       N       E                     dE             d eps       ncg     rms          rms(c)
DAV:   1     0.159251765835E+04    0.15925E+04   -0.11294E+05  2320   0.125E+03
DAV:   2    -0.569214354172E+02   -0.16494E+04   -0.15523E+04  2888   0.358E+02
DAV:   3    -0.228695373126E+03   -0.17177E+03   -0.16963E+03  2816   0.116E+02
DAV:   4    -0.241959787531E+03   -0.13264E+02   -0.13239E+02  3560   0.330E+01
DAV:   5    -0.242181999688E+03   -0.22221E+00   -0.22212E+00  3400   0.445E+00
DAV:   6    -0.242191514797E+03   -0.95151E-02   -0.95140E-02  3456   0.106E+00
DAV:   7    -0.242191937168E+03   -0.42237E-03   -0.42235E-03  3448   0.212E-01
DAV:   8    -0.242191964198E+03   -0.27030E-04   -0.27030E-04  3440   0.617E-02
DAV:   9    -0.242191966070E+03   -0.18721E-05   -0.18721E-05  3400   0.138E-02
DAV:  10    -0.242191966175E+03   -0.10472E-06   -0.10512E-06  1976   0.437E-03    0.648E+01
RMM:  11    -0.234575240530E+03    0.76167E+01   -0.49864E+01  2112   0.197E+01    0.332E+01
RMM:  12    -0.255986388172E+03   -0.21411E+02   -0.24186E+01  2218   0.139E+01    0.207E+01
RMM:  13    -0.258475479404E+03   -0.24891E+01   -0.88022E+00  2176   0.538E+00    0.725E+00
RMM:  14    -0.258674236639E+03   -0.19876E+00   -0.20682E+00  2769   0.338E+00    0.326E+00
RMM:  15    -0.258641643113E+03    0.32594E-01   -0.35679E-01  2285   0.166E+00    0.676E-01
RMM:  16    -0.258662993860E+03   -0.21351E-01   -0.11027E-01  2317   0.901E-01    0.313E-01
RMM:  17    -0.258669154880E+03   -0.61610E-02   -0.26688E-02  2580   0.461E-01    0.178E-01
RMM:  18    -0.258670529120E+03   -0.13742E-02   -0.70997E-03  2512   0.211E-01    0.892E-02
RMM:  19    -0.258671042078E+03   -0.51296E-03   -0.21064E-03  2957   0.113E-01    0.442E-02
RMM:  20    -0.258671137723E+03   -0.95645E-04   -0.49681E-04  2877   0.490E-02    0.249E-02
RMM:  21    -0.258671158047E+03   -0.20324E-04   -0.14587E-04  2507   0.279E-02    0.988E-03
RMM:  22    -0.258671165317E+03   -0.72702E-05   -0.55320E-05  2828   0.159E-02    0.623E-03
RMM:  23    -0.258671165133E+03    0.18325E-06   -0.13825E-05  2243   0.828E-03    0.300E-03
RMM:  24    -0.258671164318E+03    0.81597E-06   -0.52483E-06  1725   0.621E-03
   1 F= -.27199209E+03 E0= -.27199209E+03  d E =-.271992E+03  mag=    -0.0004
       N       E                     dE             d eps       ncg     rms          rms(c)
DAV:   1    -0.258671220223E+03   -0.55089E-04   -0.24136E-03  2352   0.894E-02    0.115E-02
RMM:   2    -0.258671229173E+03   -0.89498E-05   -0.15837E-04  2141   0.454E-02    0.541E-03
RMM:   3    -0.258671233953E+03   -0.47800E-05   -0.66333E-05  2319   0.206E-02    0.323E-03
RMM:   4    -0.258671235385E+03   -0.14322E-05   -0.11650E-05  2162   0.912E-03    0.230E-03
RMM:   5    -0.258671235478E+03   -0.92772E-07   -0.13266E-06  1421   0.370E-03
   2 F= -.27199220E+03 E0= -.27199220E+03  d E =-.104897E-03  mag=     0.0000
       N       E                     dE             d eps       ncg     rms          rms(c)
DAV:   1    -0.258671215092E+03    0.20293E-04   -0.41073E-03  2552   0.118E-01    0.147E-02
RMM:   2    -0.258671231643E+03   -0.16551E-04   -0.26871E-04  2150   0.587E-02    0.712E-03
RMM:   3    -0.258671239791E+03   -0.81475E-05   -0.10989E-04  2355   0.268E-02    0.427E-03
RMM:   4    -0.258671242010E+03   -0.22193E-05   -0.18878E-05  2347   0.115E-02    0.289E-03
RMM:   5    -0.258671242158E+03   -0.14851E-06   -0.21962E-06  1558   0.411E-03
   3 F= -.27199225E+03 E0= -.27199225E+03  d E =-.155963E-03  mag=     0.0000
       N       E                     dE             d eps       ncg     rms          rms(c)
DAV:   1    -0.258671240782E+03    0.12280E-05   -0.60861E-06  2408   0.509E-03    0.776E-04
RMM:   2    -0.258671240666E+03    0.11594E-06   -0.67419E-07  1297   0.316E-03
   4 F= -.27199225E+03 E0= -.27199225E+03  d E =-.156034E-03  mag=     0.0000
       N       E                     dE             d eps       ncg     rms          rms(c)
DAV:   1    -0.258671241925E+03   -0.11425E-05   -0.34033E-04  2528   0.390E-02    0.362E-03
RMM:   2    -0.258671243046E+03   -0.11219E-05   -0.17962E-05  2194   0.149E-02    0.163E-03
RMM:   3    -0.258671243432E+03   -0.38581E-06   -0.62476E-06  1900   0.741E-03
   5 F= -.27199225E+03 E0= -.27199225E+03  d E =-.666193E-05  mag=     0.0000
       N       E                     dE             d eps       ncg     rms          rms(c)
DAV:   1    -0.258671243004E+03    0.42919E-07   -0.57528E-05  2656   0.159E-02    0.170E-03
RMM:   2    -0.258671243111E+03   -0.10768E-06   -0.32973E-06  1641   0.710E-03
   6 F= -.27199226E+03 E0= -.27199226E+03  d E =-.786513E-05  mag=     0.0000
       N       E                     dE             d eps       ncg     rms          rms(c)
DAV:   1    -0.258671239107E+03    0.38964E-05   -0.21405E-04  2432   0.307E-02    0.286E-03
RMM:   2    -0.258671239871E+03   -0.76435E-06   -0.12363E-05  2166   0.128E-02    0.147E-03
RMM:   3    -0.258671240077E+03   -0.20523E-06   -0.39205E-06  1695   0.647E-03
   7 F= -.27199226E+03 E0= -.27199226E+03  d E =-.789523E-05  mag=     0.0000
       N       E                     dE             d eps       ncg     rms          rms(c)
DAV:   1    -0.258671241744E+03   -0.18723E-05   -0.10615E-04  2400   0.230E-02    0.229E-03
RMM:   2    -0.258671242514E+03   -0.76997E-06   -0.65952E-06  1891   0.855E-03
   8 F= -.27199226E+03 E0= -.27199226E+03  d E =-.810069E-05  mag=     0.0000
       N       E                     dE             d eps       ncg     rms          rms(c)
DAV:   1    -0.258671241537E+03    0.20692E-06   -0.29854E-05  2256   0.130E-02    0.135E-03
RMM:   2    -0.258671241539E+03   -0.17699E-08   -0.15135E-06  1217   0.418E-03
   9 F= -.27199226E+03 E0= -.27199226E+03  d E =-.836884E-05  mag=     0.0000
       N       E                     dE             d eps       ncg     rms          rms(c)
DAV:   1    -0.258671242101E+03   -0.56421E-06   -0.68222E-06  2208   0.650E-03    0.653E-04
RMM:   2    -0.258671242175E+03   -0.73662E-07   -0.40527E-07  1117   0.207E-03
  10 F= -.27199226E+03 E0= -.27199226E+03  d E =-.838336E-05  mag=     0.0000
       N       E                     dE             d eps       ncg     rms          rms(c)
DAV:   1    -0.258671241942E+03    0.15923E-06   -0.11211E-06  1448   0.278E-03    0.347E-04
RMM:   2    -0.258671241938E+03    0.42401E-08   -0.15580E-07  1073   0.182E-03
  11 F= -.27199226E+03 E0= -.27199226E+03  d E =-.841752E-05  mag=     0.0000
       N       E                     dE             d eps       ncg     rms          rms(c)
DAV:   1    -0.258671245557E+03   -0.36154E-05   -0.53659E-04  2296   0.429E-02    0.388E-03
RMM:   2    -0.258671247187E+03   -0.16301E-05   -0.18348E-05  2408   0.133E-02    0.121E-03
RMM:   3    -0.258671247438E+03   -0.25107E-06   -0.38578E-06  1625   0.618E-03
  12 F= -.27199226E+03 E0= -.27199226E+03  d E =-.466218E-05  mag=     0.0000
       N       E                     dE             d eps       ncg     rms          rms(c)
DAV:   1    -0.258671250056E+03   -0.28682E-05   -0.32979E-04  2448   0.334E-02    0.286E-03
RMM:   2    -0.258671251069E+03   -0.10137E-05   -0.11363E-05  2113   0.115E-02    0.109E-03
RMM:   3    -0.258671251250E+03   -0.18083E-06   -0.26722E-06  1521   0.549E-03
  13 F= -.27199226E+03 E0= -.27199226E+03  d E =-.782648E-05  mag=     0.0000
       N       E                     dE             d eps       ncg     rms          rms(c)
DAV:   1    -0.258671252858E+03   -0.17891E-05   -0.12767E-03  2296   0.659E-02    0.576E-03
RMM:   2    -0.258671256737E+03   -0.38790E-05   -0.42462E-05  2612   0.214E-02    0.196E-03
RMM:   3    -0.258671257654E+03   -0.91685E-06   -0.11026E-05  2068   0.995E-03    0.163E-03
RMM:   4    -0.258671257703E+03   -0.48993E-07   -0.13838E-06  1410   0.498E-03
  14 F= -.27199227E+03 E0= -.27199227E+03  d E =-.129708E-04  mag=     0.0000
       N       E                     dE             d eps       ncg     rms          rms(c)
DAV:   1    -0.258671246783E+03    0.10871E-04   -0.50452E-03  2352   0.131E-01    0.120E-02
RMM:   2    -0.258671261852E+03   -0.15069E-04   -0.16469E-04  2704   0.410E-02    0.384E-03
RMM:   3    -0.258671265499E+03   -0.36472E-05   -0.40386E-05  2703   0.188E-02    0.296E-03
RMM:   4    -0.258671265935E+03   -0.43652E-06   -0.74284E-06  1669   0.835E-03
  15 F= -.27199227E+03 E0= -.27199227E+03  d E =-.186078E-04  mag=    -0.0000
       N       E                     dE             d eps       ncg     rms          rms(c)
DAV:   1    -0.258671271396E+03   -0.58973E-05   -0.45209E-04  2672   0.373E-02    0.370E-03
RMM:   2    -0.258671272840E+03   -0.14438E-05   -0.15274E-05  2276   0.138E-02    0.146E-03
RMM:   3    -0.258671273215E+03   -0.37509E-06   -0.44361E-06  1641   0.640E-03
  16 F= -.27199228E+03 E0= -.27199228E+03  d E =-.481823E-05  mag=    -0.0000
       N       E                     dE             d eps       ncg     rms          rms(c)
DAV:   1    -0.258671278270E+03   -0.54300E-05   -0.17724E-03  2304   0.737E-02    0.710E-03
RMM:   2    -0.258671283668E+03   -0.53977E-05   -0.58109E-05  2441   0.249E-02    0.234E-03
RMM:   3    -0.258671285118E+03   -0.14504E-05   -0.16352E-05  2399   0.118E-02    0.189E-03
RMM:   4    -0.258671285152E+03   -0.34148E-07   -0.22015E-06  1421   0.539E-03
  17 F= -.27199229E+03 E0= -.27199229E+03  d E =-.118944E-04  mag=    -0.0000
       N       E                     dE             d eps       ncg     rms          rms(c)
DAV:   1    -0.258671272680E+03    0.12438E-04   -0.70019E-03  2336   0.147E-01    0.147E-02
RMM:   2    -0.258671293449E+03   -0.20769E-04   -0.22572E-04  2448   0.472E-02    0.466E-03
RMM:   3    -0.258671298629E+03   -0.51805E-05   -0.58151E-05  2776   0.223E-02    0.329E-03
RMM:   4    -0.258671299257E+03   -0.62740E-06   -0.11085E-05  1868   0.951E-03    0.260E-03
RMM:   5    -0.258671299168E+03    0.88678E-07   -0.85582E-07  1403   0.437E-03
  18 F= -.27199229E+03 E0= -.27199229E+03  d E =-.161797E-04  mag=    -0.0000
       N       E                     dE             d eps       ncg     rms          rms(c)
DAV:   1    -0.258671291115E+03    0.81420E-05   -0.10990E-03  2352   0.586E-02    0.584E-03
RMM:   2    -0.258671294445E+03   -0.33307E-05   -0.36176E-05  2438   0.188E-02    0.187E-03
RMM:   3    -0.258671295232E+03   -0.78657E-06   -0.94575E-06  1979   0.878E-03
  19 F= -.27199229E+03 E0= -.27199229E+03  d E =-.160913E-04  mag=    -0.0000
       N       E                     dE             d eps       ncg     rms          rms(c)
DAV:   1    -0.258671296032E+03   -0.15865E-05   -0.60033E-04  2416   0.439E-02    0.487E-03
RMM:   2    -0.258671297957E+03   -0.19250E-05   -0.21389E-05  2419   0.147E-02    0.137E-03
RMM:   3    -0.258671298425E+03   -0.46871E-06   -0.54564E-06  1687   0.671E-03
  20 F= -.27199229E+03 E0= -.27199229E+03  d E =-.163779E-04  mag=    -0.0000
       N       E                     dE             d eps       ncg     rms          rms(c)
DAV:   1    -0.258671296402E+03    0.15544E-05   -0.14790E-04  2400   0.222E-02    0.266E-03
RMM:   2    -0.258671296853E+03   -0.45110E-06   -0.54500E-06  1658   0.789E-03
  21 F= -.27199229E+03 E0= -.27199229E+03  d E =-.162596E-04  mag=     0.0000
       N       E                     dE             d eps       ncg     rms          rms(c)
DAV:   1    -0.258671297682E+03   -0.12798E-05   -0.39563E-05  2288   0.120E-02    0.146E-03
RMM:   2    -0.258671297766E+03   -0.84281E-07   -0.11185E-06  1164   0.372E-03
  22 F= -.27199229E+03 E0= -.27199229E+03  d E =-.163944E-04  mag=     0.0000
       N       E                     dE             d eps       ncg     rms          rms(c)
DAV:   1    -0.258671297382E+03    0.29992E-06   -0.91885E-06  1792   0.592E-03    0.738E-04
RMM:   2    -0.258671297410E+03   -0.27587E-07   -0.38425E-07  1060   0.256E-03
  23 F= -.27199229E+03 E0= -.27199229E+03  d E =-.164269E-04  mag=    -0.0000
       N       E                     dE             d eps       ncg     rms          rms(c)
DAV:   1    -0.258671297583E+03   -0.20088E-06   -0.13973E-06  1360   0.254E-03    0.387E-04
RMM:   2    -0.258671297588E+03   -0.47476E-08   -0.10180E-07   947   0.138E-03
  24 F= -.27199229E+03 E0= -.27199229E+03  d E =-.164424E-04  mag=     0.0000
       N       E                     dE             d eps       ncg     rms          rms(c)
DAV:   1    -0.258671297533E+03    0.50448E-07   -0.15574E-07  1248   0.927E-04    0.191E-04
RMM:   2    -0.258671297532E+03    0.28194E-09   -0.76827E-09   482   0.420E-04
  25 F= -.27199229E+03 E0= -.27199229E+03  d E =-.164477E-04  mag=     0.0000
       N       E                     dE             d eps       ncg     rms          rms(c)
DAV:   1    -0.258671300000E+03   -0.24672E-05   -0.18460E-03  2256   0.704E-02    0.702E-03
RMM:   2    -0.258671305414E+03   -0.54137E-05   -0.57699E-05  2650   0.216E-02    0.192E-03
RMM:   3    -0.258671306745E+03   -0.13310E-05   -0.14700E-05  2043   0.994E-03    0.173E-03
RMM:   4    -0.258671306793E+03   -0.48141E-07   -0.15118E-06  1440   0.485E-03
  26 F= -.27199230E+03 E0= -.27199230E+03  d E =-.511213E-05  mag=     0.0000
       N       E                     dE             d eps       ncg     rms          rms(c)
DAV:   1    -0.258671309259E+03   -0.25148E-05   -0.10036E-03  2440   0.518E-02    0.492E-03
RMM:   2    -0.258671312294E+03   -0.30346E-05   -0.31902E-05  2511   0.166E-02    0.153E-03
RMM:   3    -0.258671312920E+03   -0.62563E-06   -0.75526E-06  1761   0.771E-03
  27 F= -.27199230E+03 E0= -.27199230E+03  d E =-.818824E-05  mag=     0.0000
       N       E                     dE             d eps       ncg     rms          rms(c)
DAV:   1    -0.258671310194E+03    0.21004E-05   -0.13473E-04  2264   0.201E-02    0.278E-03
RMM:   2    -0.258671310550E+03   -0.35689E-06   -0.45020E-06  1545   0.682E-03
  28 F= -.27199230E+03 E0= -.27199230E+03  d E =-.698004E-05  mag=     0.0000
       N       E                     dE             d eps       ncg     rms          rms(c)
DAV:   1    -0.258671312313E+03   -0.21194E-05   -0.94837E-05  2208   0.166E-02    0.193E-03
RMM:   2    -0.258671312555E+03   -0.24209E-06   -0.28141E-06  1432   0.533E-03
  29 F= -.27199230E+03 E0= -.27199230E+03  d E =-.800138E-05  mag=    -0.0000
       N       E                     dE             d eps       ncg     rms          rms(c)
DAV:   1    -0.258671313297E+03   -0.98439E-06   -0.18584E-04  2256   0.286E-02    0.243E-03
RMM:   2    -0.258671313980E+03   -0.68279E-06   -0.90189E-06  2062   0.113E-02
  30 F= -.27199230E+03 E0= -.27199230E+03  d E =-.329291E-05  mag=    -0.0000
       N       E                     dE             d eps       ncg     rms          rms(c)
DAV:   1    -0.258671314226E+03   -0.92850E-06   -0.90359E-06  2384   0.718E-03    0.125E-03
RMM:   2    -0.258671314228E+03   -0.24320E-08   -0.51852E-07  1099   0.276E-03
  31 F= -.27199230E+03 E0= -.27199230E+03  d E =-.380400E-05  mag=     0.0000
       N       E                     dE             d eps       ncg     rms          rms(c)
DAV:   1    -0.258671314070E+03    0.15604E-06   -0.13757E-05  2128   0.804E-03    0.641E-04
RMM:   2    -0.258671314115E+03   -0.45067E-07   -0.79382E-07  1085   0.336E-03
  32 F= -.27199230E+03 E0= -.27199230E+03  d E =-.421642E-05  mag=    -0.0000
       N       E                     dE             d eps       ncg     rms          rms(c)
DAV:   1    -0.258671313067E+03    0.10028E-05   -0.61390E-05  2304   0.162E-02    0.146E-03
RMM:   2    -0.258671313245E+03   -0.17816E-06   -0.28153E-06  1600   0.685E-03
  33 F= -.27199230E+03 E0= -.27199230E+03  d E =-.439806E-05  mag=     0.0000
       N       E                     dE             d eps       ncg     rms          rms(c)
DAV:   1    -0.258671313752E+03   -0.68471E-06   -0.19168E-05  2128   0.104E-02    0.108E-03
RMM:   2    -0.258671313857E+03   -0.10500E-06   -0.91551E-07  1072   0.325E-03
  34 F= -.27199230E+03 E0= -.27199230E+03  d E =-.439666E-05  mag=    -0.0000
       N       E                     dE             d eps       ncg     rms          rms(c)
DAV:   1    -0.258671313572E+03    0.17963E-06   -0.60904E-06  2000   0.584E-03    0.486E-04
RMM:   2    -0.258671313591E+03   -0.19450E-07   -0.38553E-07  1050   0.225E-03
  35 F= -.27199230E+03 E0= -.27199230E+03  d E =-.450481E-05  mag=    -0.0000
       N       E                     dE             d eps       ncg     rms          rms(c)
DAV:   1    -0.258671314396E+03   -0.82372E-06   -0.38963E-04  2240   0.356E-02    0.275E-03
RMM:   2    -0.258671315519E+03   -0.11233E-05   -0.12421E-05  2190   0.118E-02    0.126E-03
RMM:   3    -0.258671315708E+03   -0.18918E-06   -0.29218E-06  1518   0.546E-03
  36 F= -.27199231E+03 E0= -.27199231E+03  d E =-.307412E-05  mag=     0.0000
       N       E                     dE             d eps       ncg     rms          rms(c)
DAV:   1    -0.258671315851E+03   -0.33211E-06   -0.44393E-04  2376   0.377E-02    0.283E-03
RMM:   2    -0.258671317113E+03   -0.12615E-05   -0.13860E-05  2244   0.135E-02    0.143E-03
RMM:   3    -0.258671317424E+03   -0.31171E-06   -0.41988E-06  1648   0.631E-03
  37 F= -.27199231E+03 E0= -.27199231E+03  d E =-.579604E-05  mag=     0.0000
       N       E                     dE             d eps       ncg     rms          rms(c)
DAV:   1    -0.258671312716E+03    0.43968E-05   -0.17550E-03  2280   0.751E-02    0.569E-03
RMM:   2    -0.258671317516E+03   -0.48001E-05   -0.51867E-05  2533   0.256E-02    0.268E-03
RMM:   3    -0.258671319069E+03   -0.15534E-05   -0.17221E-05  2406   0.120E-02    0.205E-03
RMM:   4    -0.258671319004E+03    0.64920E-07   -0.13002E-06  1412   0.546E-03
  38 F= -.27199231E+03 E0= -.27199231E+03  d E =-.938406E-05  mag=    -0.0000
       N       E                     dE             d eps       ncg     rms          rms(c)
DAV:   1    -0.258671326364E+03   -0.72948E-05   -0.65616E-04  2312   0.434E-02    0.437E-03
RMM:   2    -0.258671328705E+03   -0.23406E-05   -0.23426E-05  2310   0.158E-02    0.162E-03
RMM:   3    -0.258671329481E+03   -0.77617E-06   -0.74892E-06  1872   0.749E-03
  39 F= -.27199232E+03 E0= -.27199232E+03  d E =-.432097E-05  mag=     0.0000
       N       E                     dE             d eps       ncg     rms          rms(c)
DAV:   1    -0.258671328655E+03    0.49655E-07   -0.47749E-06  2240   0.621E-03    0.118E-03
RMM:   2    -0.258671328643E+03    0.12045E-07   -0.44627E-07  1159   0.238E-03
  40 F= -.27199232E+03 E0= -.27199232E+03  d E =-.405618E-05  mag=    -0.0000
       N       E                     dE             d eps       ncg     rms          rms(c)
DAV:   1    -0.258671329277E+03   -0.62145E-06   -0.33983E-06  1584   0.346E-03    0.395E-04
RMM:   2    -0.258671329309E+03   -0.32407E-07   -0.22229E-07  1061   0.198E-03
  41 F= -.27199232E+03 E0= -.27199232E+03  d E =-.422647E-05  mag=    -0.0000
       N       E                     dE             d eps       ncg     rms          rms(c)
DAV:   1    -0.258671329386E+03   -0.10976E-06   -0.16911E-07  1216   0.145E-03    0.102E-04
RMM:   2    -0.258671329397E+03   -0.11036E-07   -0.69637E-08  1026   0.130E-03
  42 F= -.27199232E+03 E0= -.27199232E+03  d E =-.426336E-05  mag=     0.0000
       N       E                     dE             d eps       ncg     rms          rms(c)
DAV:   1    -0.258671329425E+03   -0.38386E-07   -0.49197E-08  1200   0.777E-04    0.972E-05
RMM:   2    -0.258671329427E+03   -0.28140E-08   -0.19345E-08   872   0.760E-04
  43 F= -.27199232E+03 E0= -.27199232E+03  d E =-.427518E-05  mag=    -0.0000
       N       E                     dE             d eps       ncg     rms          rms(c)
DAV:   1    -0.258671329437E+03   -0.11894E-07   -0.11168E-08  1176   0.426E-04    0.249E-05
RMM:   2    -0.258671329435E+03    0.12024E-08   -0.14931E-09   399   0.386E-04
  44 F= -.27199232E+03 E0= -.27199232E+03  d E =-.427729E-05  mag=    -0.0000
       N       E                     dE             d eps       ncg     rms          rms(c)
DAV:   1    -0.258671329437E+03   -0.11823E-09   -0.55379E-09  1176   0.351E-04    0.177E-05
RMM:   2    -0.258671329437E+03   -0.38563E-09   -0.78053E-11   307   0.245E-04
  45 F= -.27199232E+03 E0= -.27199232E+03  d E =-.427756E-05  mag=     0.0000
       N       E                     dE             d eps       ncg     rms          rms(c)
DAV:   1    -0.258671329438E+03   -0.10750E-08   -0.27909E-09  1176   0.239E-04    0.130E-05
RMM:   2    -0.258671329438E+03   -0.17644E-09    0.00000E+00   262   0.189E-04
  46 F= -.27199232E+03 E0= -.27199232E+03  d E =-.427809E-05  mag=     0.0000
       N       E                     dE             d eps       ncg     rms          rms(c)
DAV:   1    -0.258671329438E+03    0.74579E-10   -0.15683E-09  1168   0.189E-04    0.827E-06
RMM:   2    -0.258671329438E+03   -0.47839E-09    0.00000E+00   228   0.133E-04
  47 F= -.27199232E+03 E0= -.27199232E+03  d E =-.427825E-05  mag=    -0.0000
       N       E                     dE             d eps       ncg     rms          rms(c)
DAV:   1    -0.258671329438E+03   -0.66393E-09   -0.92705E-10  1152   0.132E-04    0.650E-06
RMM:   2    -0.258671329438E+03    0.74579E-10    0.00000E+00   215   0.110E-04
  48 F= -.27199232E+03 E0= -.27199232E+03  d E =-.427834E-05  mag=     0.0000
       N       E                     dE             d eps       ncg     rms          rms(c)
DAV:   1    -0.258671329438E+03   -0.21828E-10   -0.56482E-10  1152   0.110E-04    0.441E-06
RMM:   2    -0.258671329438E+03    0.25466E-10    0.00000E+00   190   0.783E-05
  49 F= -.27199232E+03 E0= -.27199232E+03  d E =-.427841E-05  mag=    -0.0000
       N       E                     dE             d eps       ncg     rms          rms(c)
DAV:   1    -0.258671329438E+03   -0.27285E-10   -0.35215E-10  1152   0.782E-05    0.368E-06
RMM:   2    -0.258671329438E+03    0.43656E-10    0.00000E+00   171   0.668E-05
  50 F= -.27199232E+03 E0= -.27199232E+03  d E =-.427842E-05  mag=     0.0000
       N       E                     dE             d eps       ncg     rms          rms(c)
DAV:   1    -0.258671316798E+03    0.12640E-04   -0.65348E-04  2192   0.434E-02    0.414E-03
RMM:   2    -0.258671318541E+03   -0.17431E-05   -0.23013E-05  2314   0.150E-02    0.151E-03
RMM:   3    -0.258671318991E+03   -0.44925E-06   -0.66287E-06  1774   0.702E-03
  51 F= -.27199231E+03 E0= -.27199231E+03  d E =0.137534E-07  mag=     0.0000
