 vasp.6.4.1 05Apr23 (build Jun 07 2023 15:38:11) complex                        
  
 executed on             LinuxIFC date 2023.10.05  10:15:38
 running  128 mpi-ranks, with    1 threads/rank, on    1 nodes
 distrk:  each k-point on  128 cores,    1 groups
 distr:  one band on NCORE=  32 cores,    4 groups


--------------------------------------------------------------------------------------------------------


 INCAR:
   GGA = PE
   PREC = Accu
   EDIFF = 1.e-5
   EDIFFG = -1.e-2
   ENCUT = 520.
   NELM = 100
   NELMDL = -10
   LASPH = .TRUE.
   LREAL = Auto
   LMAXMIX = 4
   ISPIN = 2
   LDIAG = .TRUE.
   LPLANE = .TRUE.
   IVDW = 12
   SIGMA = 0.03
   ISMEAR = 0
   NSW = 1000    number of steps for IOM
   IBRION = 1    ionic relax: 0-MD 1-quasi-New 2-CG
   ISIF = 2    ionic relaxation + stress tensor calcn.
   LCHARG = .FALSE.
   LWAVE = .FALSE.
   ALGO = V
   KPAR = 1
   NPAR = 4

 POTCAR:    PAW_PBE Li_sv_GW 25Mar2010            
 POTCAR:    PAW_PBE P_GW 19Mar2012                
 POTCAR:    PAW_PBE S_GW 19Mar2012                
 POTCAR:    PAW_PBE Cl_GW 19Mar2012               
 -----------------------------------------------------------------------------
|                                                                             |
|           W    W    AA    RRRRR   N    N  II  N    N   GGGG   !!!           |
|           W    W   A  A   R    R  NN   N  II  NN   N  G    G  !!!           |
|           W    W  A    A  R    R  N N  N  II  N N  N  G       !!!           |
|           W WW W  AAAAAA  RRRRR   N  N N  II  N  N N  G  GGG   !            |
|           WW  WW  A    A  R   R   N   NN  II  N   NN  G    G                |
|           W    W  A    A  R    R  N    N  II  N    N   GGGG   !!!           |
|                                                                             |
|     You use a magnetic or noncollinear calculation, but did not specify     |
|     the initial magnetic moment with the MAGMOM tag. Note that a            |
|     default of 1 will be used for all atoms. This ferromagnetic setup       |
|     may break the symmetry of the crystal, in particular it may rule        |
|     out finding an antiferromagnetic solution. Thence, we recommend         |
|     setting the initial magnetic moment manually or verifying carefully     |
|     that this magnetic setup is desired.                                    |
|                                                                             |
 -----------------------------------------------------------------------------

 POTCAR:    PAW_PBE Li_sv_GW 25Mar2010            
   SHA256 =  24a6ace15a582615486b36ce4dc781b048409f4015b7684ed1273ae395fa2fdc Li_sv_GW/POTCAR       
   COPYR  = (c) Copyright 25Mar2010 Georg Kresse                                                    
   COPYR  = This file is part of the software VASP. Any use, copying, and all other rights are regul
   COPYR  = If you do not have a valid VASP license, you may not use, copy or distribute this file. 
   VRHFIN =Li: 1s2s                                                                                 
   LEXCH  = PE                                                                                      
   EATOM  =   200.9989 eV,   14.7730 Ry                                                             
                                                                                                    
   TITEL  = PAW_PBE Li_sv_GW 25Mar2010                                                              
   LULTRA =        F    use ultrasoft PP ?                                                          
   IUNSCR =        0    unscreen: 0-lin 1-nonlin 2-no                                               
   RPACOR =    0.000    partial core radius                                                         
   POMASS =    7.010; ZVAL   =    3.000    mass and valenz                                          
   RCORE  =    1.500    outmost cutoff radius                                                       
   RWIGS  =    1.600; RWIGS  =    0.847    wigner-seitz radius (au A)                               
   ENMAX  =  433.699; ENMIN  =  325.274 eV                                                          
   RCLOC  =    1.003    cutoff for local pot                                                        
   LCOR   =        T    correct aug charges                                                         
   LPAW   =        T    paw PP                                                                      
   EAUG   = 1041.699                                                                                
   RMAX   =    1.536    core radius for proj-oper                                                   
   RAUG   =    1.300    factor for augmentation sphere                                              
   RDEP   =    1.520    radius for radial grids                                                     
   RDEPT  =    1.300    core radius for aug-charge                                                  
                                                                                                    
   Atomic configuration                                                                             
    4 entries                                                                                       
     n  l   j            E        occ.                                                              
     1  0  0.50       -53.3604   2.0000                                                             
     1  0  0.50       -52.0001   0.0000                                                             
     2  1  0.50        -1.5636   1.0000                                                             
     3  2  1.50        -1.3606   0.0000                                                             
   Description                                                                                      
     l       E           TYP  RCUT    TYP  RCUT                                                     
     0    -53.3603633     23  1.200                                                                 
     0    -52.0001064     23  1.200                                                                 
     0    176.8757380     23  1.300                                                                 
     1     -1.5635925     23  1.500                                                                 
     1    108.8466080     23  1.500                                                                 
     2     81.6349560     23  1.500                                                                 
  local pseudopotential read in
  kinetic energy density of atom read in
  atomic valenz-charges read in
  non local Contribution for L=           0  read in
    real space projection operators read in
  non local Contribution for L=           0  read in
    real space projection operators read in
  non local Contribution for L=           0  read in
    real space projection operators read in
  non local Contribution for L=           1  read in
    real space projection operators read in
  non local Contribution for L=           1  read in
    real space projection operators read in
  non local Contribution for L=           2  read in
    real space projection operators read in
    PAW grid and wavefunctions read in
 
   number of l-projection  operators is LMAX  =           6
   number of lm-projection operators is LMMAX =          14
 
 POTCAR:    PAW_PBE P_GW 19Mar2012                
   SHA256 =  715c28f2291d37b61637ce89646c59f66f71c8b8d8bfba631e5feb9f7b42defe P_GW/POTCAR           
   COPYR  = (c) Copyright 19Mar2012 Georg Kresse                                                    
   COPYR  = This file is part of the software VASP. Any use, copying, and all other rights are regul
   COPYR  = If you do not have a valid VASP license, you may not use, copy or distribute this file. 
   VRHFIN =P : s2p3                                                                                 
   LEXCH  = PE                                                                                      
   EATOM  =   176.0430 eV,   12.9388 Ry                                                             
                                                                                                    
   TITEL  = PAW_PBE P_GW 19Mar2012                                                                  
   LULTRA =        F    use ultrasoft PP ?                                                          
   IUNSCR =        1    unscreen: 0-lin 1-nonlin 2-no                                               
   RPACOR =    1.400    partial core radius                                                         
   POMASS =   30.974; ZVAL   =    5.000    mass and valenz                                          
   RCORE  =    2.000    outmost cutoff radius                                                       
   RWIGS  =    1.900; RWIGS  =    1.005    wigner-seitz radius (au A)                               
   ENMAX  =  255.040; ENMIN  =  191.280 eV                                                          
   ICORE  =        3    local potential                                                             
   LCOR   =        T    correct aug charges                                                         
   LPAW   =        T    paw PP                                                                      
   EAUG   =  499.732                                                                                
   DEXC   =    0.000                                                                                
   RMAX   =    2.047    core radius for proj-oper                                                   
   RAUG   =    1.300    factor for augmentation sphere                                              
   RDEP   =    2.059    radius for radial grids                                                     
   RDEPT  =    1.900    core radius for aug-charge                                                  
                                                                                                    
   Atomic configuration                                                                             
    7 entries                                                                                       
     n  l   j            E        occ.                                                              
     1  0  0.50     -2084.0982   2.0000                                                             
     2  0  0.50      -173.9859   2.0000                                                             
     2  1  1.50      -124.4865   6.0000                                                             
     3  0  0.50       -13.9692   2.0000                                                             
     3  1  0.50        -5.5067   3.0000                                                             
     3  2  1.50        -6.8029   0.0000                                                             
     4  3  2.50        -1.3606   0.0000                                                             
   Description                                                                                      
     l       E           TYP  RCUT    TYP  RCUT                                                     
     0    -13.9691528     23  1.900                                                                 
     0    102.0436950     23  1.900                                                                 
     1     -5.5066939     23  1.900                                                                 
     1    102.0436950     23  1.900                                                                 
     2     -8.1634956     23  2.000                                                                 
     2     81.6349560     23  2.000                                                                 
     3     27.2116520     23  2.000                                                                 
  local pseudopotential read in
  partial core-charges read in
  partial kinetic energy density read in
  kinetic energy density of atom read in
  atomic valenz-charges read in
  non local Contribution for L=           0  read in
    real space projection operators read in
  non local Contribution for L=           0  read in
    real space projection operators read in
  non local Contribution for L=           1  read in
    real space projection operators read in
  non local Contribution for L=           1  read in
    real space projection operators read in
  non local Contribution for L=           2  read in
    real space projection operators read in
  non local Contribution for L=           2  read in
    real space projection operators read in
    PAW grid and wavefunctions read in
 
   number of l-projection  operators is LMAX  =           6
   number of lm-projection operators is LMMAX =          18
 
 POTCAR:    PAW_PBE S_GW 19Mar2012                
   SHA256 =  357db9cfb0783579b2eebe03197c2d807131fea8ea663b1fcfb6ce2fa75af011 S_GW/POTCAR           
   COPYR  = (c) Copyright 19Mar2012 Georg Kresse                                                    
   COPYR  = This file is part of the software VASP. Any use, copying, and all other rights are regul
   COPYR  = If you do not have a valid VASP license, you may not use, copy or distribute this file. 
   VRHFIN =S : s2p4                                                                                 
   LEXCH  = PE                                                                                      
   EATOM  =   276.8230 eV,   20.3459 Ry                                                             
                                                                                                    
   TITEL  = PAW_PBE S_GW 19Mar2012                                                                  
   LULTRA =        F    use ultrasoft PP ?                                                          
   IUNSCR =        1    unscreen: 0-lin 1-nonlin 2-no                                               
   RPACOR =    1.400    partial core radius                                                         
   POMASS =   32.066; ZVAL   =    6.000    mass and valenz                                          
   RCORE  =    1.900    outmost cutoff radius                                                       
   RWIGS  =    1.900; RWIGS  =    1.005    wigner-seitz radius (au A)                               
   ENMAX  =  258.689; ENMIN  =  194.016 eV                                                          
   ICORE  =        3    local potential                                                             
   LCOR   =        T    correct aug charges                                                         
   LPAW   =        T    paw PP                                                                      
   EAUG   =  488.319                                                                                
   DEXC   =    0.000                                                                                
   RMAX   =    1.942    core radius for proj-oper                                                   
   RAUG   =    1.300    factor for augmentation sphere                                              
   RDEP   =    1.954    radius for radial grids                                                     
   RDEPT  =    1.900    core radius for aug-charge                                                  
                                                                                                    
   Atomic configuration                                                                             
    7 entries                                                                                       
     n  l   j            E        occ.                                                              
     1  0  0.50     -2405.8406   2.0000                                                             
     2  0  0.50      -211.7007   2.0000                                                             
     2  1  1.50      -156.4958   6.0000                                                             
     3  0  0.50       -17.2562   2.0000                                                             
     3  1  0.50        -7.0085   4.0000                                                             
     3  2  1.50        -8.1635   0.0000                                                             
     4  3  2.50        -1.3606   0.0000                                                             
   Description                                                                                      
     l       E           TYP  RCUT    TYP  RCUT                                                     
     0    -17.2561639     23  1.700                                                                 
     0     88.4378690     23  1.900                                                                 
     1     -7.0085399     23  1.900                                                                 
     1     88.4378690     23  1.900                                                                 
     2    -10.8846608     23  1.900                                                                 
     2     54.4233040     23  1.900                                                                 
     3     27.2116520     23  1.800                                                                 
  local pseudopotential read in
  partial core-charges read in
  partial kinetic energy density read in
  kinetic energy density of atom read in
  atomic valenz-charges read in
  non local Contribution for L=           0  read in
    real space projection operators read in
  non local Contribution for L=           0  read in
    real space projection operators read in
  non local Contribution for L=           1  read in
    real space projection operators read in
  non local Contribution for L=           1  read in
    real space projection operators read in
  non local Contribution for L=           2  read in
    real space projection operators read in
  non local Contribution for L=           2  read in
    real space projection operators read in
    PAW grid and wavefunctions read in
 
   number of l-projection  operators is LMAX  =           6
   number of lm-projection operators is LMMAX =          18
 
 POTCAR:    PAW_PBE Cl_GW 19Mar2012               
   SHA256 =  3ef3b3169d6a9a89979f58b4cf17d927a58518fc660d8883d88cacaee8175441 Cl_GW/POTCAR          
   COPYR  = (c) Copyright 19Mar2012 Georg Kresse                                                    
   COPYR  = This file is part of the software VASP. Any use, copying, and all other rights are regul
   COPYR  = If you do not have a valid VASP license, you may not use, copy or distribute this file. 
   VRHFIN =Cl: s2p5                                                                                 
   LEXCH  = PE                                                                                      
   EATOM  =   409.7259 eV,   30.1140 Ry                                                             
                                                                                                    
   TITEL  = PAW_PBE Cl_GW 19Mar2012                                                                 
   LULTRA =        F    use ultrasoft PP ?                                                          
   IUNSCR =        1    unscreen: 0-lin 1-nonlin 2-no                                               
   RPACOR =    1.400    partial core radius                                                         
   POMASS =   35.453; ZVAL   =    7.000    mass and valenz                                          
   RCORE  =    1.900    outmost cutoff radius                                                       
   RWIGS  =    1.900; RWIGS  =    1.005    wigner-seitz radius (au A)                               
   ENMAX  =  262.472; ENMIN  =  196.854 eV                                                          
   ICORE  =        3    local potential                                                             
   LCOR   =        T    correct aug charges                                                         
   LPAW   =        T    paw PP                                                                      
   EAUG   =  456.703                                                                                
   DEXC   =    0.000                                                                                
   RMAX   =    1.945    core radius for proj-oper                                                   
   RAUG   =    1.300    factor for augmentation sphere                                              
   RDEP   =    2.020    radius for radial grids                                                     
   RDEPT  =    1.900    core radius for aug-charge                                                  
                                                                                                    
   Atomic configuration                                                                             
    7 entries                                                                                       
     n  l   j            E        occ.                                                              
     1  0  0.50     -2751.1850   2.0000                                                             
     2  0  0.50      -252.6861   2.0000                                                             
     2  1  1.50      -191.6157   6.0000                                                             
     3  0  0.50       -20.6916   2.0000                                                             
     3  1  0.50        -8.5949   5.0000                                                             
     3  2  1.50        -9.5241   0.0000                                                             
     4  3  2.50        -9.5241   0.0000                                                             
   Description                                                                                      
     l       E           TYP  RCUT    TYP  RCUT                                                     
     0    -20.6915657     23  1.700                                                                 
     0     95.2407820     23  1.800                                                                 
     1     -8.5948577     23  1.900                                                                 
     1     95.2407820     23  1.900                                                                 
     2    -10.8846608     23  1.900                                                                 
     2     54.4233040     23  1.900                                                                 
     3     27.2116520     23  1.900                                                                 
  local pseudopotential read in
  partial core-charges read in
  partial kinetic energy density read in
  kinetic energy density of atom read in
  atomic valenz-charges read in
  non local Contribution for L=           0  read in
    real space projection operators read in
  non local Contribution for L=           0  read in
    real space projection operators read in
  non local Contribution for L=           1  read in
    real space projection operators read in
  non local Contribution for L=           1  read in
    real space projection operators read in
  non local Contribution for L=           2  read in
    real space projection operators read in
  non local Contribution for L=           2  read in
    real space projection operators read in
    PAW grid and wavefunctions read in
 
   number of l-projection  operators is LMAX  =           6
   number of lm-projection operators is LMMAX =          18
 
 Optimization of the real space projectors (new method)

 maximal supplied QI-value         = 25.13
 optimisation between [QCUT,QGAM] = [ 11.56, 23.12] = [ 37.43,149.72] Ry 
 Optimized for a Real-space Cutoff    1.28 Angstroem

   l    n(q)    QCUT    max X(q) W(low)/X(q) W(high)/X(q)  e(spline) 
   0      9    11.561    87.733    0.11E-03    0.32E-04    0.56E-06
   0      9    11.561    82.800    0.11E-03    0.35E-04    0.56E-06
   0      9    11.561     2.509    0.22E-03    0.42E-04    0.79E-06
   1      8    11.561    12.580    0.94E-04    0.26E-03    0.21E-06
   1      8    11.561     1.319    0.33E-04    0.15E-03    0.19E-06
   2      8    11.561     1.993    0.36E-04    0.89E-04    0.26E-06
 Optimization of the real space projectors (new method)

 maximal supplied QI-value         = 18.90
 optimisation between [QCUT,QGAM] = [ 11.53, 23.24] = [ 37.21,151.29] Ry 
 Optimized for a Real-space Cutoff    1.21 Angstroem

   l    n(q)    QCUT    max X(q) W(low)/X(q) W(high)/X(q)  e(spline) 
   0      8    11.527     8.355    0.73E-04    0.70E-04    0.26E-07
   0      8    11.527     1.401    0.17E-03    0.17E-03    0.63E-07
   1      8    11.527     4.747    0.13E-03    0.17E-03    0.11E-06
   1      8    11.527     2.025    0.16E-03    0.18E-03    0.12E-06
   2      7    11.527     3.169    0.51E-04    0.25E-03    0.60E-07
   2      7    11.527     3.441    0.82E-04    0.22E-03    0.14E-06
 Optimization of the real space projectors (new method)

 maximal supplied QI-value         = 19.84
 optimisation between [QCUT,QGAM] = [ 11.51, 23.22] = [ 37.09,150.92] Ry 
 Optimized for a Real-space Cutoff    1.49 Angstroem

   l    n(q)    QCUT    max X(q) W(low)/X(q) W(high)/X(q)  e(spline) 
   0     10    11.508     7.541    0.34E-04    0.13E-04    0.69E-07
   0     10    11.508     1.809    0.49E-04    0.27E-04    0.14E-06
   1     10    11.508     4.107    0.27E-05    0.41E-05    0.14E-06
   1     10    11.508     2.196    0.26E-05    0.25E-05    0.22E-06
   2      9    11.508     4.265    0.18E-03    0.11E-03    0.81E-06
   2      9    11.508     1.925    0.97E-04    0.76E-04    0.47E-06
 Optimization of the real space projectors (new method)

 maximal supplied QI-value         = 19.84
 optimisation between [QCUT,QGAM] = [ 11.51, 23.22] = [ 37.09,150.92] Ry 
 Optimized for a Real-space Cutoff    1.21 Angstroem

   l    n(q)    QCUT    max X(q) W(low)/X(q) W(high)/X(q)  e(spline) 
   0      8    11.508     6.761    0.57E-04    0.57E-04    0.35E-07
   0      8    11.508     1.642    0.14E-03    0.14E-03    0.91E-07
   1      8    11.508     3.519    0.20E-04    0.72E-04    0.47E-07
   1      8    11.508     2.150    0.27E-04    0.11E-03    0.89E-07
   2      7    11.508     2.976    0.19E-03    0.33E-03    0.16E-06
   2      7    11.508     1.494    0.14E-03    0.29E-03    0.14E-06
  PAW_PBE Li_sv_GW 25Mar2010            :
 energy of atom  1       EATOM= -200.9989
 kinetic energy error for atom=    0.0127 (will be added to EATOM!!)
  PAW_PBE P_GW 19Mar2012                :
 energy of atom  2       EATOM= -176.0430
 kinetic energy error for atom=    0.0011 (will be added to EATOM!!)
  PAW_PBE S_GW 19Mar2012                :
 energy of atom  3       EATOM= -276.8230
 kinetic energy error for atom=    0.0024 (will be added to EATOM!!)
  PAW_PBE Cl_GW 19Mar2012               :
 energy of atom  4       EATOM= -409.7259
 kinetic energy error for atom=    0.0030 (will be added to EATOM!!)
 
 
 POSCAR: Li24 P4 S20 Cl4
  positions in direct lattice
  No initial velocities read in
 exchange correlation table for  LEXCH =        8
   RHO(1)=    0.500       N(1)  =     2000
   RHO(2)=  100.500       N(2)  =     4000

 VTST: version 4.1, (05/19/21)

 CHAIN: initializing optimizer
 
 OPT: Using VASP QUASI-newton optimizer
 CHAIN: Read ICHAIN            0
 
 POSCAR: Li24 P4 S20 Cl4
  positions in direct lattice
  No initial velocities read in
 


--------------------------------------------------------------------------------------------------------


 ion  position               nearest neighbor table
   1  0.977  0.250  0.250-
   2  0.976  0.750  0.750-
   3  0.023  0.250  0.750-
   4  0.023  0.750  0.250-
   5  0.250  0.250  0.977-
   6  0.251  0.749  0.023-
   7  0.750  0.250  0.024-
   8  0.750  0.750  0.977-
   9  0.250  0.977  0.249-
  10  0.250  0.023  0.750-
  11  0.749  0.977  0.750-
  12  0.750  0.023  0.250-
  13  0.250  0.750  0.476-
  14  0.250  0.250  0.523-
  15  0.750  0.750  0.523-
  16  0.750  0.250  0.477-
  17  0.250  0.477  0.750-
  18  0.250  0.523  0.250-
  19  0.750  0.477  0.250-
  20  0.750  0.523  0.750-
  21  0.477  0.250  0.750-
  22  0.477  0.750  0.250-
  23  0.524  0.250  0.250-
  24  0.523  0.749  0.751-
  25  0.500  0.500  0.500-  44 2.05  42 2.05  43 2.05  41 2.05
  26  0.500  0.000  1.000-  38 2.05  40 2.05  39 2.05  37 2.05
  27  1.000  0.500  1.000-  34 2.05  36 2.05  35 2.05  33 2.05
  28  1.000  1.000  0.500-  31 2.05  29 2.05  32 2.05  30 2.05
  29  0.118  0.882  0.618-  28 2.05
  30  0.118  0.118  0.382-  28 2.05
  31  0.882  0.882  0.382-  28 2.05
  32  0.882  0.118  0.618-  28 2.05
  33  0.882  0.618  0.118-  27 2.05
  34  0.882  0.382  0.882-  27 2.05
  35  0.118  0.618  0.882-  27 2.05
  36  0.118  0.382  0.118-  27 2.05
  37  0.618  0.118  0.882-  26 2.05
  38  0.618  0.882  0.118-  26 2.05
  39  0.382  0.118  0.118-  26 2.05
  40  0.382  0.882  0.882-  26 2.05
  41  0.618  0.618  0.382-  25 2.05
  42  0.618  0.382  0.618-  25 2.05
  43  0.382  0.618  0.618-  25 2.05
  44  0.382  0.382  0.382-  25 2.05
  45  0.750  0.750  0.750-
  46  0.750  0.250  0.250-
  47  0.250  0.750  0.250-
  48  0.250  0.250  0.750-
  49  0.000  1.000  1.000-
  50  0.000  0.500  0.500-
  51  0.500  1.000  0.500-
  52  0.500  0.500  0.000-
 
  LATTYP: Found a simple cubic cell.
 ALAT       =    10.0236290993
  
  Lattice vectors:
  
 A1 = (  10.0236290993,   0.0000000000,   0.0000000000)
 A2 = (   0.0000000000,  10.0236290993,   0.0000000000)
 A3 = (   0.0000000000,   0.0000000000,  10.0236290993)


Analysis of symmetry for initial positions (statically):
=====================================================================
 Subroutine PRICEL returns:
 Original cell was already a primitive cell.
 

 Routine SETGRP: Setting up the symmetry group for a 
 simple cubic supercell.


 Subroutine GETGRP returns: Found  2 space group operations
 (whereof  1 operations were pure point group operations)
 out of a pool of 48 trial point group operations.


The static configuration has the point symmetry C_1 .
 The point group associated with its full space group is C_1h.


Analysis of symmetry for dynamics (positions and initial velocities):
=====================================================================
 Subroutine PRICEL returns:
 Original cell was already a primitive cell.
 

 Routine SETGRP: Setting up the symmetry group for a 
 simple cubic supercell.


 Subroutine GETGRP returns: Found  2 space group operations
 (whereof  1 operations were pure point group operations)
 out of a pool of 48 trial point group operations.


The dynamic configuration has the point symmetry C_1 .
 The point group associated with its full space group is C_1h.


Analysis of structural, dynamic, and magnetic symmetry:
=====================================================================
 Subroutine PRICEL returns:
 Original cell was already a primitive cell.
 

 Routine SETGRP: Setting up the symmetry group for a 
 simple cubic supercell.


 Subroutine GETGRP returns: Found  2 space group operations
 (whereof  1 operations were pure point group operations)
 out of a pool of 48 trial point group operations.


The overall configuration has the point symmetry C_1 .
 The point group associated with its full space group is C_1h.


 Subroutine INISYM returns: Found  2 space group operations
 (whereof  1 operations are pure point group operations),
 and found     1 'primitive' translations


----------------------------------------------------------------------------------------

                                     Primitive cell                                     

  volume of cell :    1007.1055

  direct lattice vectors                    reciprocal lattice vectors
    10.023629099  0.000000000  0.000000000     0.099764266  0.000000000  0.000000000
     0.000000000 10.023629099  0.000000000     0.000000000  0.099764266  0.000000000
     0.000000000  0.000000000 10.023629099     0.000000000  0.000000000  0.099764266

  length of vectors
    10.023629099 10.023629099 10.023629099     0.099764266  0.099764266  0.099764266

  position of ions in fractional coordinates (direct lattice)
     0.977122743  0.250120030  0.250132037
     0.976473267  0.750292540  0.750095821
     0.023250075  0.249865050  0.750189433
     0.023375213  0.750231397  0.249628278
     0.249997357  0.249889253  0.976854922
     0.251397096  0.748603387  0.022877347
     0.749900499  0.250249914  0.023519112
     0.750314967  0.750302483  0.976966877
     0.249847049  0.976707623  0.249497311
     0.249760189  0.023251971  0.749760159
     0.749497341  0.976707623  0.749847018
     0.750048718  0.023237994  0.250048687
     0.250095852  0.750292540  0.476473236
     0.250189464  0.249865050  0.523250044
     0.749628308  0.750231397  0.523375183
     0.750132068  0.250120030  0.477122712
     0.249586620  0.476752184  0.749586589
     0.250058185  0.523190812  0.250004880
     0.750107912  0.476748183  0.250107881
     0.750004910  0.523190812  0.750058154
     0.476854953  0.249889253  0.749997327
     0.476966908  0.750302483  0.250314937
     0.523519142  0.250249914  0.249900468
     0.522880176  0.748604243  0.751401460
     0.499794542  0.500071674  0.499830925
     0.499959023  0.000220620  0.999958992
     0.999830955  0.500071674  0.999794511
     0.999885779  0.999929688  0.499885748
     0.117955717  0.881757769  0.617955686
     0.118252911  0.117973606  0.381901294
     0.881819827  0.881755902  0.381819796
     0.881901325  0.117973606  0.618252880
     0.881837127  0.618111645  0.118148085
     0.881716560  0.381824965  0.881879441
     0.117856251  0.618238141  0.881600273
     0.118123197  0.382115324  0.117882779
     0.618258021  0.118377936  0.882036694
     0.618026819  0.882046923  0.118026789
     0.382036725  0.118377936  0.118257990
     0.381747907  0.882325618  0.881747876
     0.618148116  0.618111645  0.381837096
     0.617882810  0.382115324  0.618123166
     0.381600304  0.618238141  0.617856220
     0.381879472  0.381824965  0.381716529
     0.749682344  0.749943585  0.750171324
     0.750274648  0.250027179  0.250274618
     0.250171355  0.749943585  0.249682313
     0.250062061  0.250014189  0.750062030
     0.000110318  0.999918103  0.999860213
     0.000113269  0.500007927  0.500113239
     0.499860244  0.999918103  0.500110287
     0.500203363  0.499868058  0.000203333

  ion indices of the primitive-cell ions
   primitive index   ion index
                 1           1
                 2           2
                 3           3
                 4           4
                 5           5
                 6           6
                 7           7
                 8           8
                 9           9
                10          10
                11          11
                12          12
                13          13
                14          14
                15          15
                16          16
                17          17
                18          18
                19          19
                20          20
                21          21
                22          22
                23          23
                24          24
                25          25
                26          26
                27          27
                28          28
                29          29
                30          30
                31          31
                32          32
                33          33
                34          34
                35          35
                36          36
                37          37
                38          38
                39          39
                40          40
                41          41
                42          42
                43          43
                44          44
                45          45
                46          46
                47          47
                48          48
                49          49
                50          50
                51          51
                52          52

----------------------------------------------------------------------------------------

 
 
 KPOINTS: Automatic mesh                          

Automatic generation of k-mesh.
 Grid dimensions read from file:
 generate k-points for:    2    2    2

 Generating k-lattice:

  Cartesian coordinates                     Fractional coordinates (reciprocal lattice)
     0.049882133  0.000000000  0.000000000     0.500000000  0.000000000  0.000000000
     0.000000000  0.049882133  0.000000000     0.000000000  0.500000000  0.000000000
     0.000000000  0.000000000  0.049882133     0.000000000  0.000000000  0.500000000

  Length of vectors
     0.049882133  0.049882133  0.049882133

  Shift w.r.t. Gamma in fractional coordinates (k-lattice)
     0.500000000  0.500000000  0.500000000

 
 Subroutine IBZKPT returns following result:
 ===========================================
 
 Found      3 irreducible k-points:
 
 Following reciprocal coordinates:
            Coordinates               Weight
  0.250000  0.250000  0.250000      2.000000
 -0.250000  0.250000  0.250000      4.000000
  0.250000 -0.250000  0.250000      2.000000
 
 Following cartesian coordinates:
            Coordinates               Weight
  0.024941  0.024941  0.024941      2.000000
 -0.024941  0.024941  0.024941      4.000000
  0.024941 -0.024941  0.024941      2.000000
 


--------------------------------------------------------------------------------------------------------




 Dimension of arrays:
   k-points           NKPTS =      3   k-points in BZ     NKDIM =      3   number of bands    NBANDS=    176
   number of dos      NEDOS =    301   number of ions     NIONS =     52
   non local maximal  LDIM  =      6   non local SUM 2l+1 LMDIM =     18
   total plane-waves  NPLWV = 512000
   max r-space proj   IRMAX =   7082   max aug-charges    IRDMAX=  21654
   dimension x,y,z NGX =    80 NGY =   80 NGZ =   80
   dimension x,y,z NGXF=   160 NGYF=  160 NGZF=  160
   support grid    NGXF=   160 NGYF=  160 NGZF=  160
   ions per type =              24   4  20   4
   NGX,Y,Z   is equivalent  to a cutoff of  13.27, 13.27, 13.27 a.u.
   NGXF,Y,Z  is equivalent  to a cutoff of  26.54, 26.54, 26.54 a.u.

 SYSTEM =  unknown system                          
 POSCAR =  Li24 P4 S20 Cl4                         

 Startparameter for this run:
   NWRITE =      2    write-flag & timer
   PREC   = accu      normal or accurate (medium, high low for compatibility)
   ISTART =      0    job   : 0-new  1-cont  2-samecut
   ICHARG =      2    charge: 1-file 2-atom 10-const
   ISPIN  =      2    spin polarized calculation?
   LNONCOLLINEAR =      F non collinear calculations
   LSORBIT =      F    spin-orbit coupling
   INIWAV =      1    electr: 0-lowe 1-rand  2-diag
   LASPH  =      T    aspherical Exc in radial PAW
 Electronic Relaxation 1
   ENCUT  =  520.0 eV  38.22 Ry    6.18 a.u.  18.64 18.64 18.64*2*pi/ulx,y,z
   ENINI  =  520.0     initial cutoff
   ENAUG  = 1041.7 eV  augmentation charge cutoff
   NELM   =    100;   NELMIN=  2; NELMDL=-10     # of ELM steps 
   EDIFF  = 0.1E-04   stopping-criterion for ELM
   LREAL  =      T    real-space projection
   NLSPLINE    = F    spline interpolate recip. space projectors
   LCOMPAT=      F    compatible to vasp.4.4
   GGA_COMPAT  = T    GGA compatible to vasp.4.4-vasp.4.6
   LMAXPAW     = -100 max onsite density
   LMAXMIX     =    4 max onsite mixed and CHGCAR
   VOSKOWN=      0    Vosko Wilk Nusair interpolation
   ROPT   =   -0.00025  -0.00025  -0.00025  -0.00025
 Ionic relaxation
   EDIFFG = -.1E-01   stopping-criterion for IOM
   NSW    =   1000    number of steps for IOM
   NBLOCK =      1;   KBLOCK =   1000    inner block; outer block 
   IBRION =      1    ionic relax: 0-MD 1-quasi-New 2-CG
   NFREE  =      0    steps in history (QN), initial steepest desc. (CG)
   ISIF   =      2    stress and relaxation
   IWAVPR =     11    prediction:  0-non 1-charg 2-wave 3-comb
   ISYM   =      2    0-nonsym 1-usesym 2-fastsym
   LCORR  =      T    Harris-Foulkes like correction to forces

   POTIM  = 0.5000    time-step for ionic-motion
   TEIN   =    0.0    initial temperature
   TEBEG  =    0.0;   TEEND  =   0.0 temperature during run
   SMASS  =  -3.00    Nose mass-parameter (am)
   estimated Nose-frequenzy (Omega)   =  0.10E-29 period in steps = 0.13E+47 mass=  -0.230E-26a.u.
   SCALEE = 1.0000    scale energy and forces
   NPACO  =    256;   APACO  = 10.0  distance and # of slots for P.C.
   PSTRESS=    0.0 pullay stress

  Mass of Ions in am
   POMASS =   7.01 30.97 32.07 35.45
  Ionic Valenz
   ZVAL   =   3.00  5.00  6.00  7.00
  Atomic Wigner-Seitz radii
   RWIGS  =  -1.00 -1.00 -1.00 -1.00
  virtual crystal weights 
   VCA    =   1.00  1.00  1.00  1.00
   NELECT =     240.0000    total number of electrons
   NUPDOWN=      -1.0000    fix difference up-down

 DOS related values:
   EMIN   =  10.00;   EMAX   =-10.00  energy-range for DOS
   EFERMI =   0.00;   METHOD = LEGACY      
   ISMEAR =     0;   SIGMA  =   0.03  broadening in eV -4-tet -1-fermi 0-gaus

 Electronic relaxation 2 (details)
   IALGO  =     48    algorithm
   LDIAG  =      T    sub-space diagonalisation (order eigenvalues)
   LSUBROT=      F    optimize rotation matrix (better conditioning)
   TURBO    =      0    0=normal 1=particle mesh
   IRESTART =      0    0=no restart 2=restart with 2 vectors
   NREBOOT  =      0    no. of reboots
   NMIN     =      0    reboot dimension
   EREF     =   0.00    reference energy to select bands
   IMIX   =      4    mixing-type and parameters
     AMIX     =   0.40;   BMIX     =  1.00
     AMIX_MAG =   1.60;   BMIX_MAG =  1.00
     AMIN     =   0.10
     WC   =   100.;   INIMIX=   1;  MIXPRE=   1;  MAXMIX= -45

 Intra band minimization:
   WEIMIN = 0.0010     energy-eigenvalue tresh-hold
   EBREAK =  0.14E-07  absolut break condition
   DEPER  =   0.30     relativ break condition  

   TIME   =   0.40     timestep for ELM

  volume/ion in A,a.u.               =      19.37       130.70
  Fermi-wavevector in a.u.,A,eV,Ry     =   1.014971  1.918017 14.016258  1.030166
  Thomas-Fermi vector in A             =   2.148230
 
 Write flags
   LWAVE        =      F    write WAVECAR
   LDOWNSAMPLE  =      F    k-point downsampling of WAVECAR
   LCHARG       =      F    write CHGCAR
   LVTOT        =      F    write LOCPOT, total local potential
   LVHAR        =      F    write LOCPOT, Hartree potential only
   LELF         =      F    write electronic localiz. function (ELF)
   LORBIT       =      0    0 simple, 1 ext, 2 COOP (PROOUT), +10 PAW based schemes


 Dipole corrections
   LMONO  =      F    monopole corrections only (constant potential shift)
   LDIPOL =      F    correct potential (dipole corrections)
   IDIPOL =      0    1-x, 2-y, 3-z, 4-all directions 
   EPSILON=  1.0000000 bulk dielectric constant

 Exchange correlation treatment:
   GGA     =    PE    GGA type
   LEXCH   =     8    internal setting for exchange type
   LIBXC   =     F    Libxc                    
   VOSKOWN =     0    Vosko Wilk Nusair interpolation
   LHFCALC =     F    Hartree Fock is set to
   LHFONE  =     F    Hartree Fock one center treatment
   AEXX    =    0.0000 exact exchange contribution

 Linear response parameters
   LEPSILON=     F    determine dielectric tensor
   LRPA    =     F    only Hartree local field effects (RPA)
   LNABLA  =     F    use nabla operator in PAW spheres
   LVEL    =     F    velocity operator in full k-point grid
   CSHIFT  =0.1000    complex shift for real part using Kramers Kronig
   OMEGAMAX=  -1.0    maximum frequency
   DEG_THRESHOLD= 0.2000000E-02 threshold for treating states as degnerate
   RTIME   =   -0.100 relaxation time in fs
  (WPLASMAI=    0.000 imaginary part of plasma frequency in eV, 0.658/RTIME)
   DFIELD  = 0.0000000 0.0000000 0.0000000 field for delta impulse in time
 
  Optional k-point grid parameters
   LKPOINTS_OPT  =     F    use optional k-point grid
   KPOINTS_OPT_MODE=     1    mode for optional k-point grid
 
 Orbital magnetization related:
   ORBITALMAG=     F  switch on orbital magnetization
   LCHIMAG   =     F  perturbation theory with respect to B field
   DQ        =  0.001000  dq finite difference perturbation B field
   LLRAUG    =     F  two centre corrections for induced B field
   LBONE     =     F  B-component reconstruction in AE one-centre
   LVGVCALC  =     T  calculate vGv susceptibility
   LVGVAPPL  =     F  apply vGv susceptibility instead of pGv for G=0

 Random number generation:
   RANDOM_GENERATOR = DEFAULT
   PCG_SEED         = not used


--------------------------------------------------------------------------------------------------------


 quasi-Newton-method for relaxation of ions
 charge density and potential will be updated during run
 spin polarized calculation
 RMM-DIIS sequential band-by-band
 perform sub-space diagonalisation
    before iterative eigenvector-optimisation
 modified Broyden-mixing scheme, WC =      100.0
 initial mixing is a Kerker type mixing with AMIX =  0.4000 and BMIX =      1.0000
 Hartree-type preconditioning will be used
 using additional bands           56
 real space projection scheme for non local part
 use partial core corrections
 calculate Harris-corrections to forces 
   (improved forces if not selfconsistent)
 use gradient corrections 
 use of overlap-Matrix (Vanderbilt PP)
 Gauss-broadening in eV      SIGMA  =   0.03


--------------------------------------------------------------------------------------------------------


  energy-cutoff  :      520.00
  volume of cell :     1007.11
      direct lattice vectors                 reciprocal lattice vectors
    10.023629099  0.000000000  0.000000000     0.099764266  0.000000000  0.000000000
     0.000000000 10.023629099  0.000000000     0.000000000  0.099764266  0.000000000
     0.000000000  0.000000000 10.023629099     0.000000000  0.000000000  0.099764266

  length of vectors
    10.023629099 10.023629099 10.023629099     0.099764266  0.099764266  0.099764266


 
 k-points in units of 2pi/SCALE and weight: Automatic mesh                          
   0.02494107  0.02494107  0.02494107       0.250
  -0.02494107  0.02494107  0.02494107       0.500
   0.02494107 -0.02494107  0.02494107       0.250
 
 k-points in reciprocal lattice and weights: Automatic mesh                          
   0.25000000  0.25000000  0.25000000       0.250
  -0.25000000  0.25000000  0.25000000       0.500
   0.25000000 -0.25000000  0.25000000       0.250
 
 position of ions in fractional coordinates (direct lattice) 
   0.97712274  0.25012003  0.25013204
   0.97647327  0.75029254  0.75009582
   0.02325007  0.24986505  0.75018943
   0.02337521  0.75023140  0.24962828
   0.24999736  0.24988925  0.97685492
   0.25139710  0.74860339  0.02287735
   0.74990050  0.25024991  0.02351911
   0.75031497  0.75030248  0.97696688
   0.24984705  0.97670762  0.24949731
   0.24976019  0.02325197  0.74976016
   0.74949734  0.97670762  0.74984702
   0.75004872  0.02323799  0.25004869
   0.25009585  0.75029254  0.47647324
   0.25018946  0.24986505  0.52325004
   0.74962831  0.75023140  0.52337518
   0.75013207  0.25012003  0.47712271
   0.24958662  0.47675218  0.74958659
   0.25005818  0.52319081  0.25000488
   0.75010791  0.47674818  0.25010788
   0.75000491  0.52319081  0.75005815
   0.47685495  0.24988925  0.74999733
   0.47696691  0.75030248  0.25031494
   0.52351914  0.25024991  0.24990047
   0.52288018  0.74860424  0.75140146
   0.49979454  0.50007167  0.49983092
   0.49995902  0.00022062  0.99995899
   0.99983096  0.50007167  0.99979451
   0.99988578  0.99992969  0.49988575
   0.11795572  0.88175777  0.61795569
   0.11825291  0.11797361  0.38190129
   0.88181983  0.88175590  0.38181980
   0.88190132  0.11797361  0.61825288
   0.88183713  0.61811164  0.11814808
   0.88171656  0.38182497  0.88187944
   0.11785625  0.61823814  0.88160027
   0.11812320  0.38211532  0.11788278
   0.61825802  0.11837794  0.88203669
   0.61802682  0.88204692  0.11802679
   0.38203672  0.11837794  0.11825799
   0.38174791  0.88232562  0.88174788
   0.61814812  0.61811164  0.38183710
   0.61788281  0.38211532  0.61812317
   0.38160030  0.61823814  0.61785622
   0.38187947  0.38182497  0.38171653
   0.74968234  0.74994359  0.75017132
   0.75027465  0.25002718  0.25027462
   0.25017136  0.74994359  0.24968231
   0.25006206  0.25001419  0.75006203
   0.00011032  0.99991810  0.99986021
   0.00011327  0.50000793  0.50011324
   0.49986024  0.99991810  0.50011029
   0.50020336  0.49986806  0.00020333
 
 position of ions in cartesian coordinates  (Angst):
   9.79431596  2.50711041  2.50723077
   9.78780585  7.52065414  7.51868230
   0.23305013  2.50455459  7.51962063
   0.23430447  7.52004126  2.50218127
   2.50588079  2.50479718  9.79163142
   2.51991124  7.50372270  0.22931404
   7.51672446  2.50841232  0.23574685
   7.52087894  7.52075381  9.79275362
   2.50437415  9.79015495  2.50086850
   2.50350350  0.23306913  7.51531774
   7.51268336  9.79015495  7.51618839
   7.51821016  0.23292903  2.50639530
   2.50686806  7.52065414  4.77599100
   2.50780639  2.50455459  5.24486437
   7.51399612  7.52004126  5.24611871
   7.51904562  2.50711041  4.78250110
   2.50176371  4.77878707  7.51357795
   2.50649050  5.24427065  2.50595619
   7.51880349  4.77874696  2.50698863
   7.51777104  5.24427065  7.51830474
   4.77981718  2.50479718  7.51769503
   4.78093938  7.52075381  2.50906408
   5.24756171  2.50841232  2.50490960
   5.24115694  7.50373127  7.53176954
   5.00975511  5.01253298  5.01011980
   5.01140381  0.00221141 10.02321805
  10.02193466  5.01253298 10.02156935
  10.02248419 10.02292432  5.01066933
   1.18234436  8.83841284  6.19415860
   1.18532332  1.18252367  3.82803692
   8.83903488  8.83839412  3.82722002
   8.83985178  1.18252367  6.19713756
   8.83920829  6.19572187  1.18427258
   8.83799977  3.82727183  8.83963242
   1.18134735  6.19698982  8.83683415
   1.18402311  3.83018228  1.18161325
   6.19718909  1.18657653  8.84120867
   6.19487161  8.84131121  1.18305675
   3.82939443  1.18657653  1.18537423
   3.82649943  8.84410474  8.83831367
   6.19608744  6.19572187  3.82739343
   6.19342811  3.83018228  6.19583736
   3.82501991  6.19698982  6.19316159
   3.82781818  3.82727183  3.82618491
   7.51453776  7.51715635  7.51943912
   7.52047480  2.50617971  2.50865994
   2.50762487  7.51715635  2.50272290
   2.50652935  2.50604950  7.51834359
   0.00110579 10.02280820 10.02222793
   0.00113537  5.01189400  5.01294961
   5.01041369 10.02280820  5.01292003
   5.01385299  5.01049201  0.00203813
 


--------------------------------------------------------------------------------------------------------


 k-point   1 :   0.2500 0.2500 0.2500  plane waves:   27124
 k-point   2 :  -0.2500 0.2500 0.2500  plane waves:   27124
 k-point   3 :   0.2500-0.2500 0.2500  plane waves:   27124

 maximum and minimum number of plane-waves per node :       867      830

 maximum number of plane-waves:     27124
 maximum index in each direction: 
   IXMAX=   18   IYMAX=   18   IZMAX=   18
   IXMIN=  -18   IYMIN=  -18   IZMIN=  -18


 real space projection operators:
  total allocation   :      34910.88 KBytes
  max/ min on nodes  :       1345.31        817.66


 parallel 3D FFT for wavefunctions:
    minimum data exchange during FFTs selected (reduces bandwidth)
 parallel 3D FFT for charge:
    minimum data exchange during FFTs selected (reduces bandwidth)


 total amount of memory used by VASP MPI-rank0    50410. kBytes
=======================================================================

   base      :      30000. kBytes
   nonlr-proj:       7915. kBytes
   fftplans  :       2173. kBytes
   grid      :       6510. kBytes
   one-center:         62. kBytes
   wavefun   :       3750. kBytes
 
     INWAV:  cpu time      0.0000: real time      0.0000
 Broyden mixing: mesh for mixing (old mesh)
   NGX = 37   NGY = 37   NGZ = 37
  (NGX  =160   NGY  =160   NGZ  =160)
  gives a total of  50653 points

 initial charge density was supplied:
 charge density of overlapping atoms calculated
 number of electron     240.0000000 magnetization      52.0000000
 keeping initial charge density in first step


--------------------------------------------------------------------------------------------------------


 Maximum index for non-local projection operator          456
 Maximum index for augmentation-charges          918 (set IRDMAX)


--------------------------------------------------------------------------------------------------------


 First call to EWALD:  gamma=   0.177
 Maximum number of real-space cells 3x 3x 3
 Maximum number of reciprocal cells 3x 3x 3

    FEWALD:  cpu time      0.0024: real time      0.0027


--------------------------------------- Ionic step        1  -------------------------------------------




--------------------------------------- Iteration      1(   1)  ---------------------------------------


    POTLOK:  cpu time      0.0944: real time      0.1351
    SETDIJ:  cpu time      0.4318: real time      0.4394
    EDDIAG:  cpu time      0.3238: real time      0.4940
  RMM-DIIS:  cpu time      0.6429: real time      0.6493
    ORTHCH:  cpu time      0.0559: real time      0.0597
       DOS:  cpu time      0.0027: real time      0.0045
    --------------------------------------------
      LOOP:  cpu time      1.5516: real time      1.7820

 eigenvalue-minimisations  :  1056
 total energy-change (2. order) : 0.2372539E+04  (-0.8807256E+04)
 number of electron     240.0000000 magnetization      52.0000000
 augmentation part      240.0000000 magnetization      52.0000000

 Free energy of the ion-electron system (eV)
  ---------------------------------------------------
  alpha Z        PSCENC =       269.54227294
  Ewald energy   TEWEN  =     -8278.61003065
  -Hartree energ DENC   =     -2404.30767553
  -exchange      EXHF   =         0.00000000
  -V(xc)+E(xc)   XCENC  =       529.57208749
  PAW double counting   =      8141.38806575    -8271.61346273
  entropy T*S    EENTRO =        -0.00611523
  eigenvalues    EBANDS =      -316.56649500
  atomic energy  EATOM  =     12703.13999606
  Solvation  Ediel_sol  =         0.00000000
  ---------------------------------------------------
  free energy    TOTEN  =      2372.53864312 eV

  energy without entropy =     2372.54475834  energy(sigma->0) =     2372.54170073


--------------------------------------------------------------------------------------------------------




--------------------------------------- Iteration      1(   2)  ---------------------------------------


    EDDIAG:  cpu time      0.2950: real time      0.3001
  RMM-DIIS:  cpu time      0.6384: real time      0.6437
    ORTHCH:  cpu time      0.0561: real time      0.0572
       DOS:  cpu time      0.0009: real time      0.0009
    --------------------------------------------
      LOOP:  cpu time      0.9903: real time      1.0019

 eigenvalue-minimisations  :  1056
 total energy-change (2. order) :-0.2129113E+04  (-0.2647547E+04)
 number of electron     240.0000000 magnetization      52.0000000
 augmentation part      240.0000000 magnetization      52.0000000

 Free energy of the ion-electron system (eV)
  ---------------------------------------------------
  alpha Z        PSCENC =       269.54227294
  Ewald energy   TEWEN  =     -8278.61003065
  -Hartree energ DENC   =     -2404.30767553
  -exchange      EXHF   =         0.00000000
  -V(xc)+E(xc)   XCENC  =       529.57208749
  PAW double counting   =      8141.38806575    -8271.61346273
  entropy T*S    EENTRO =        -0.00742335
  eigenvalues    EBANDS =     -2445.67799929
  atomic energy  EATOM  =     12703.13999606
  Solvation  Ediel_sol  =         0.00000000
  ---------------------------------------------------
  free energy    TOTEN  =       243.42583070 eV

  energy without entropy =      243.43325405  energy(sigma->0) =      243.42954237


--------------------------------------------------------------------------------------------------------




--------------------------------------- Iteration      1(   3)  ---------------------------------------


    EDDIAG:  cpu time      0.2940: real time      0.2977
  RMM-DIIS:  cpu time      0.6432: real time      0.6487
    ORTHCH:  cpu time      0.0576: real time      0.0591
       DOS:  cpu time      0.0010: real time      0.0010
    --------------------------------------------
      LOOP:  cpu time      0.9958: real time      1.0064

 eigenvalue-minimisations  :  1056
 total energy-change (2. order) :-0.1193670E+03  (-0.6184292E+03)
 number of electron     240.0000000 magnetization      52.0000000
 augmentation part      240.0000000 magnetization      52.0000000

 Free energy of the ion-electron system (eV)
  ---------------------------------------------------
  alpha Z        PSCENC =       269.54227294
  Ewald energy   TEWEN  =     -8278.61003065
  -Hartree energ DENC   =     -2404.30767553
  -exchange      EXHF   =         0.00000000
  -V(xc)+E(xc)   XCENC  =       529.57208749
  PAW double counting   =      8141.38806575    -8271.61346273
  entropy T*S    EENTRO =        -0.00469236
  eigenvalues    EBANDS =     -2565.04774124
  atomic energy  EATOM  =     12703.13999606
  Solvation  Ediel_sol  =         0.00000000
  ---------------------------------------------------
  free energy    TOTEN  =       124.05881974 eV

  energy without entropy =      124.06351210  energy(sigma->0) =      124.06116592


--------------------------------------------------------------------------------------------------------




--------------------------------------- Iteration      1(   4)  ---------------------------------------


    EDDIAG:  cpu time      0.2959: real time      0.2989
  RMM-DIIS:  cpu time      0.6381: real time      0.6435
    ORTHCH:  cpu time      0.0567: real time      0.0576
       DOS:  cpu time      0.0010: real time      0.0010
    --------------------------------------------
      LOOP:  cpu time      0.9917: real time      1.0010

 eigenvalue-minimisations  :  1056
 total energy-change (2. order) :-0.2065779E+03  (-0.1763685E+03)
 number of electron     240.0000000 magnetization      52.0000000
 augmentation part      240.0000000 magnetization      52.0000000

 Free energy of the ion-electron system (eV)
  ---------------------------------------------------
  alpha Z        PSCENC =       269.54227294
  Ewald energy   TEWEN  =     -8278.61003065
  -Hartree energ DENC   =     -2404.30767553
  -exchange      EXHF   =         0.00000000
  -V(xc)+E(xc)   XCENC  =       529.57208749
  PAW double counting   =      8141.38806575    -8271.61346273
  entropy T*S    EENTRO =        -0.00626163
  eigenvalues    EBANDS =     -2771.62410652
  atomic energy  EATOM  =     12703.13999606
  Solvation  Ediel_sol  =         0.00000000
  ---------------------------------------------------
  free energy    TOTEN  =       -82.51911481 eV

  energy without entropy =      -82.51285318  energy(sigma->0) =      -82.51598399


--------------------------------------------------------------------------------------------------------




--------------------------------------- Iteration      1(   5)  ---------------------------------------


    EDDIAG:  cpu time      0.2945: real time      0.2968
  RMM-DIIS:  cpu time      0.6411: real time      0.6465
    ORTHCH:  cpu time      0.0585: real time      0.0588
       DOS:  cpu time      0.0004: real time      0.0004
    --------------------------------------------
      LOOP:  cpu time      0.9945: real time      1.0025

 eigenvalue-minimisations  :  1056
 total energy-change (2. order) :-0.8018534E+02  (-0.7339441E+02)
 number of electron     240.0000000 magnetization      52.0000000
 augmentation part      240.0000000 magnetization      52.0000000

 Free energy of the ion-electron system (eV)
  ---------------------------------------------------
  alpha Z        PSCENC =       269.54227294
  Ewald energy   TEWEN  =     -8278.61003065
  -Hartree energ DENC   =     -2404.30767553
  -exchange      EXHF   =         0.00000000
  -V(xc)+E(xc)   XCENC  =       529.57208749
  PAW double counting   =      8141.38806575    -8271.61346273
  entropy T*S    EENTRO =        -0.00000000
  eigenvalues    EBANDS =     -2851.81571054
  atomic energy  EATOM  =     12703.13999606
  Solvation  Ediel_sol  =         0.00000000
  ---------------------------------------------------
  free energy    TOTEN  =      -162.70445719 eV

  energy without entropy =     -162.70445719  energy(sigma->0) =     -162.70445719


--------------------------------------------------------------------------------------------------------




--------------------------------------- Iteration      1(   6)  ---------------------------------------


    EDDIAG:  cpu time      0.3063: real time      0.3097
  RMM-DIIS:  cpu time      0.6365: real time      0.6419
    ORTHCH:  cpu time      0.0569: real time      0.0575
       DOS:  cpu time      0.0004: real time      0.0004
    --------------------------------------------
      LOOP:  cpu time      1.0001: real time      1.0096

 eigenvalue-minimisations  :  1056
 total energy-change (2. order) :-0.3715505E+02  (-0.3544648E+02)
 number of electron     240.0000000 magnetization      52.0000000
 augmentation part      240.0000000 magnetization      52.0000000

 Free energy of the ion-electron system (eV)
  ---------------------------------------------------
  alpha Z        PSCENC =       269.54227294
  Ewald energy   TEWEN  =     -8278.61003065
  -Hartree energ DENC   =     -2404.30767553
  -exchange      EXHF   =         0.00000000
  -V(xc)+E(xc)   XCENC  =       529.57208749
  PAW double counting   =      8141.38806575    -8271.61346273
  entropy T*S    EENTRO =        -0.00000000
  eigenvalues    EBANDS =     -2888.97075979
  atomic energy  EATOM  =     12703.13999606
  Solvation  Ediel_sol  =         0.00000000
  ---------------------------------------------------
  free energy    TOTEN  =      -199.85950645 eV

  energy without entropy =     -199.85950645  energy(sigma->0) =     -199.85950645


--------------------------------------------------------------------------------------------------------




--------------------------------------- Iteration      1(   7)  ---------------------------------------


    EDDIAG:  cpu time      0.3265: real time      0.3292
  RMM-DIIS:  cpu time      0.6410: real time      0.6466
    ORTHCH:  cpu time      0.0573: real time      0.0576
       DOS:  cpu time      0.0004: real time      0.0004
    --------------------------------------------
      LOOP:  cpu time      1.0252: real time      1.0338

 eigenvalue-minimisations  :  1056
 total energy-change (2. order) :-0.1866378E+02  (-0.1790944E+02)
 number of electron     240.0000000 magnetization      52.0000000
 augmentation part      240.0000000 magnetization      52.0000000

 Free energy of the ion-electron system (eV)
  ---------------------------------------------------
  alpha Z        PSCENC =       269.54227294
  Ewald energy   TEWEN  =     -8278.61003065
  -Hartree energ DENC   =     -2404.30767553
  -exchange      EXHF   =         0.00000000
  -V(xc)+E(xc)   XCENC  =       529.57208749
  PAW double counting   =      8141.38806575    -8271.61346273
  entropy T*S    EENTRO =        -0.00000000
  eigenvalues    EBANDS =     -2907.63454285
  atomic energy  EATOM  =     12703.13999606
  Solvation  Ediel_sol  =         0.00000000
  ---------------------------------------------------
  free energy    TOTEN  =      -218.52328951 eV

  energy without entropy =     -218.52328951  energy(sigma->0) =     -218.52328951


--------------------------------------------------------------------------------------------------------




--------------------------------------- Iteration      1(   8)  ---------------------------------------


    EDDIAG:  cpu time      0.2937: real time      0.2963
  RMM-DIIS:  cpu time      1.4982: real time      1.5271
    ORTHCH:  cpu time      0.0529: real time      0.0546
       DOS:  cpu time      0.0004: real time      0.0004
    --------------------------------------------
      LOOP:  cpu time      1.8453: real time      1.8784

 eigenvalue-minimisations  :  2686
 total energy-change (2. order) :-0.1900909E+02  (-0.1869049E+02)
 number of electron     240.0000000 magnetization      52.0000000
 augmentation part      240.0000000 magnetization      52.0000000

 Free energy of the ion-electron system (eV)
  ---------------------------------------------------
  alpha Z        PSCENC =       269.54227294
  Ewald energy   TEWEN  =     -8278.61003065
  -Hartree energ DENC   =     -2404.30767553
  -exchange      EXHF   =         0.00000000
  -V(xc)+E(xc)   XCENC  =       529.57208749
  PAW double counting   =      8141.38806575    -8271.61346273
  entropy T*S    EENTRO =        -0.00000000
  eigenvalues    EBANDS =     -2926.64362910
  atomic energy  EATOM  =     12703.13999606
  Solvation  Ediel_sol  =         0.00000000
  ---------------------------------------------------
  free energy    TOTEN  =      -237.53237576 eV

  energy without entropy =     -237.53237576  energy(sigma->0) =     -237.53237576


--------------------------------------------------------------------------------------------------------




--------------------------------------- Iteration      1(   9)  ---------------------------------------


    EDDIAG:  cpu time      0.2966: real time      0.2993
  RMM-DIIS:  cpu time      1.7677: real time      1.7838
    ORTHCH:  cpu time      0.0550: real time      0.0556
       DOS:  cpu time      0.0004: real time      0.0004
    --------------------------------------------
      LOOP:  cpu time      2.1196: real time      2.1391

 eigenvalue-minimisations  :  2976
 total energy-change (2. order) :-0.2425457E+01  (-0.2534083E+01)
 number of electron     240.0000000 magnetization      52.0000000
 augmentation part      240.0000000 magnetization      52.0000000

 Free energy of the ion-electron system (eV)
  ---------------------------------------------------
  alpha Z        PSCENC =       269.54227294
  Ewald energy   TEWEN  =     -8278.61003065
  -Hartree energ DENC   =     -2404.30767553
  -exchange      EXHF   =         0.00000000
  -V(xc)+E(xc)   XCENC  =       529.57208749
  PAW double counting   =      8141.38806575    -8271.61346273
  entropy T*S    EENTRO =        -0.00000000
  eigenvalues    EBANDS =     -2929.06908650
  atomic energy  EATOM  =     12703.13999606
  Solvation  Ediel_sol  =         0.00000000
  ---------------------------------------------------
  free energy    TOTEN  =      -239.95783316 eV

  energy without entropy =     -239.95783316  energy(sigma->0) =     -239.95783316


--------------------------------------------------------------------------------------------------------




--------------------------------------- Iteration      1(  10)  ---------------------------------------


    EDDIAG:  cpu time      0.2940: real time      0.2963
  RMM-DIIS:  cpu time      1.8880: real time      1.9052
    ORTHCH:  cpu time      0.0523: real time      0.0526
       DOS:  cpu time      0.0005: real time      0.0005
    CHARGE:  cpu time      0.3156: real time      0.8171
    MIXING:  cpu time      0.0018: real time      0.0032
    --------------------------------------------
      LOOP:  cpu time      2.5522: real time      3.0748

 eigenvalue-minimisations  :  3370
 total energy-change (2. order) :-0.2754268E+00  (-0.2433807E+00)
 number of electron     240.0000122 magnetization      28.5304197
 augmentation part        1.5603852 magnetization      28.9593507

 Broyden mixing:
  rms(total) = 0.65520E+01    rms(broyden)= 0.65517E+01
  rms(prec ) = 0.67939E+01
  weight for this iteration     100.00

 Free energy of the ion-electron system (eV)
  ---------------------------------------------------
  alpha Z        PSCENC =       269.54227294
  Ewald energy   TEWEN  =     -8278.61003065
  -Hartree energ DENC   =     -2404.30767553
  -exchange      EXHF   =         0.00000000
  -V(xc)+E(xc)   XCENC  =       529.57208749
  PAW double counting   =      8141.38806575    -8271.61346273
  entropy T*S    EENTRO =        -0.00000000
  eigenvalues    EBANDS =     -2929.34451329
  atomic energy  EATOM  =     12703.13999606
  Solvation  Ediel_sol  =         0.00000000
  ---------------------------------------------------
  free energy    TOTEN  =      -240.23325995 eV

  energy without entropy =     -240.23325995  energy(sigma->0) =     -240.23325995


--------------------------------------------------------------------------------------------------------




--------------------------------------- Iteration      1(  11)  ---------------------------------------


    POTLOK:  cpu time      0.0689: real time      0.0748
    SETDIJ:  cpu time      0.4037: real time      0.4195
    EDDIAG:  cpu time      0.3000: real time      0.3018
  RMM-DIIS:  cpu time      1.4920: real time      1.5054
    ORTHCH:  cpu time      0.0528: real time      0.0533
       DOS:  cpu time      0.0004: real time      0.0004
    CHARGE:  cpu time      0.4695: real time      0.6417
    MIXING:  cpu time      0.0014: real time      0.0025
    --------------------------------------------
      LOOP:  cpu time      2.7888: real time      2.9995

 eigenvalue-minimisations  :  2657
 total energy-change (2. order) : 0.1742086E+02  (-0.7286738E+01)
 number of electron     240.0000122 magnetization      17.5352236
 augmentation part        1.7197542 magnetization      17.8102118

 Broyden mixing:
  rms(total) = 0.33008E+01    rms(broyden)= 0.33007E+01
  rms(prec ) = 0.34221E+01
  weight for this iteration     100.00

 eigenvalues of (default mixing * dielectric matrix)
  average eigenvalue GAMMA=   0.7278
  0.7278

 Free energy of the ion-electron system (eV)
  ---------------------------------------------------
  alpha Z        PSCENC =       269.54227294
  Ewald energy   TEWEN  =     -8278.61003065
  -Hartree energ DENC   =     -2464.82491855
  -exchange      EXHF   =         0.00000000
  -V(xc)+E(xc)   XCENC  =       542.39479517
  PAW double counting   =      8976.89841975    -9113.69155200
  entropy T*S    EENTRO =        -0.00000000
  eigenvalues    EBANDS =     -2857.66138294
  atomic energy  EATOM  =     12703.13999606
  Solvation  Ediel_sol  =         0.00000000
  ---------------------------------------------------
  free energy    TOTEN  =      -222.81240021 eV

  energy without entropy =     -222.81240021  energy(sigma->0) =     -222.81240021


--------------------------------------------------------------------------------------------------------




--------------------------------------- Iteration      1(  12)  ---------------------------------------


    POTLOK:  cpu time      0.0695: real time      0.0704
    SETDIJ:  cpu time      0.4315: real time      0.4335
    EDDIAG:  cpu time      0.2947: real time      0.2966
  RMM-DIIS:  cpu time      1.4485: real time      1.4617
    ORTHCH:  cpu time      0.0529: real time      0.0535
       DOS:  cpu time      0.0004: real time      0.0005
    CHARGE:  cpu time      0.1799: real time      0.2203
    MIXING:  cpu time      0.0013: real time      0.0013
    --------------------------------------------
      LOOP:  cpu time      2.4788: real time      2.5378

 eigenvalue-minimisations  :  2577
 total energy-change (2. order) :-0.3100197E+02  (-0.4139190E+01)
 number of electron     240.0000122 magnetization       4.0940555
 augmentation part        1.9327163 magnetization       4.4432183

 Broyden mixing:
  rms(total) = 0.22437E+01    rms(broyden)= 0.22437E+01
  rms(prec ) = 0.22918E+01
  weight for this iteration     100.00

 eigenvalues of (default mixing * dielectric matrix)
  average eigenvalue GAMMA=   0.9505
  1.2531  0.6479

 Free energy of the ion-electron system (eV)
  ---------------------------------------------------
  alpha Z        PSCENC =       269.54227294
  Ewald energy   TEWEN  =     -8278.61003065
  -Hartree energ DENC   =     -2501.85603084
  -exchange      EXHF   =         0.00000000
  -V(xc)+E(xc)   XCENC  =       534.90072378
  PAW double counting   =      9371.84734693    -9512.57584229
  entropy T*S    EENTRO =        -0.00000000
  eigenvalues    EBANDS =     -2840.20280140
  atomic energy  EATOM  =     12703.13999606
  Solvation  Ediel_sol  =         0.00000000
  ---------------------------------------------------
  free energy    TOTEN  =      -253.81436546 eV

  energy without entropy =     -253.81436546  energy(sigma->0) =     -253.81436546


--------------------------------------------------------------------------------------------------------




--------------------------------------- Iteration      1(  13)  ---------------------------------------


    POTLOK:  cpu time      0.0706: real time      0.0795
    SETDIJ:  cpu time      0.4111: real time      0.4128
    EDDIAG:  cpu time      0.2947: real time      0.2965
  RMM-DIIS:  cpu time      1.2541: real time      1.2654
    ORTHCH:  cpu time      0.0536: real time      0.0543
       DOS:  cpu time      0.0005: real time      0.0005
    CHARGE:  cpu time      0.1523: real time      0.1965
    MIXING:  cpu time      0.0012: real time      0.0013
    --------------------------------------------
      LOOP:  cpu time      2.2381: real time      2.3067

 eigenvalue-minimisations  :  2215
 total energy-change (2. order) :-0.1973568E+01  (-0.6333201E+00)
 number of electron     240.0000122 magnetization      -1.9300686
 augmentation part        1.9829311 magnetization      -1.7921735

 Broyden mixing:
  rms(total) = 0.96240E+00    rms(broyden)= 0.96240E+00
  rms(prec ) = 0.99002E+00
  weight for this iteration     100.00

 eigenvalues of (default mixing * dielectric matrix)
  average eigenvalue GAMMA=   1.3310
  2.6195  0.7297  0.6439

 Free energy of the ion-electron system (eV)
  ---------------------------------------------------
  alpha Z        PSCENC =       269.54227294
  Ewald energy   TEWEN  =     -8278.61003065
  -Hartree energ DENC   =     -2525.63033759
  -exchange      EXHF   =         0.00000000
  -V(xc)+E(xc)   XCENC  =       535.05690899
  PAW double counting   =      9765.38557034    -9909.52791416
  entropy T*S    EENTRO =        -0.00000000
  eigenvalues    EBANDS =     -2815.14439906
  atomic energy  EATOM  =     12703.13999606
  Solvation  Ediel_sol  =         0.00000000
  ---------------------------------------------------
  free energy    TOTEN  =      -255.78793314 eV

  energy without entropy =     -255.78793314  energy(sigma->0) =     -255.78793314


--------------------------------------------------------------------------------------------------------




--------------------------------------- Iteration      1(  14)  ---------------------------------------


    POTLOK:  cpu time      0.0686: real time      0.0703
    SETDIJ:  cpu time      0.4106: real time      0.4121
    EDDIAG:  cpu time      0.2953: real time      0.2970
  RMM-DIIS:  cpu time      1.4366: real time      1.4496
    ORTHCH:  cpu time      0.0526: real time      0.0533
       DOS:  cpu time      0.0004: real time      0.0005
    CHARGE:  cpu time      0.1528: real time      0.1830
    MIXING:  cpu time      0.0013: real time      0.0014
    --------------------------------------------
      LOOP:  cpu time      2.4182: real time      2.4672

 eigenvalue-minimisations  :  2556
 total energy-change (2. order) :-0.3156492E+00  (-0.2418711E+00)
 number of electron     240.0000122 magnetization      -1.1449387
 augmentation part        1.9552023 magnetization      -1.1162113

 Broyden mixing:
  rms(total) = 0.32321E+00    rms(broyden)= 0.32321E+00
  rms(prec ) = 0.35176E+00
  weight for this iteration     100.00

 eigenvalues of (default mixing * dielectric matrix)
  average eigenvalue GAMMA=   1.2803
  2.7127  1.1066  0.6947  0.6073

 Free energy of the ion-electron system (eV)
  ---------------------------------------------------
  alpha Z        PSCENC =       269.54227294
  Ewald energy   TEWEN  =     -8278.61003065
  -Hartree energ DENC   =     -2534.84596194
  -exchange      EXHF   =         0.00000000
  -V(xc)+E(xc)   XCENC  =       536.29114489
  PAW double counting   =      9933.82104620   -10079.48889849
  entropy T*S    EENTRO =        -0.00000000
  eigenvalues    EBANDS =     -2805.95315133
  atomic energy  EATOM  =     12703.13999606
  Solvation  Ediel_sol  =         0.00000000
  ---------------------------------------------------
  free energy    TOTEN  =      -256.10358232 eV

  energy without entropy =     -256.10358232  energy(sigma->0) =     -256.10358232


--------------------------------------------------------------------------------------------------------




--------------------------------------- Iteration      1(  15)  ---------------------------------------


    POTLOK:  cpu time      0.0687: real time      0.0703
    SETDIJ:  cpu time      0.4132: real time      0.4147
    EDDIAG:  cpu time      0.2939: real time      0.2959
  RMM-DIIS:  cpu time      1.4359: real time      1.4487
    ORTHCH:  cpu time      0.0548: real time      0.0575
       DOS:  cpu time      0.0005: real time      0.0005
    CHARGE:  cpu time      0.1643: real time      0.1916
    MIXING:  cpu time      0.0015: real time      0.0015
    --------------------------------------------
      LOOP:  cpu time      2.4328: real time      2.4807

 eigenvalue-minimisations  :  2549
 total energy-change (2. order) : 0.1872016E-03  (-0.4636259E-01)
 number of electron     240.0000122 magnetization      -0.2932409
 augmentation part        1.8978775 magnetization      -0.2708927

 Broyden mixing:
  rms(total) = 0.71816E-01    rms(broyden)= 0.71814E-01
  rms(prec ) = 0.86671E-01
  weight for this iteration     100.00

 eigenvalues of (default mixing * dielectric matrix)
  average eigenvalue GAMMA=   1.2958
  2.5729  1.6912  0.9056  0.6905  0.6188

 Free energy of the ion-electron system (eV)
  ---------------------------------------------------
  alpha Z        PSCENC =       269.54227294
  Ewald energy   TEWEN  =     -8278.61003065
  -Hartree energ DENC   =     -2530.62477472
  -exchange      EXHF   =         0.00000000
  -V(xc)+E(xc)   XCENC  =       535.88381921
  PAW double counting   =      9894.83021188   -10040.14252441
  entropy T*S    EENTRO =        -0.00000000
  eigenvalues    EBANDS =     -2810.12236543
  atomic energy  EATOM  =     12703.13999606
  Solvation  Ediel_sol  =         0.00000000
  ---------------------------------------------------
  free energy    TOTEN  =      -256.10339512 eV

  energy without entropy =     -256.10339512  energy(sigma->0) =     -256.10339512


--------------------------------------------------------------------------------------------------------




--------------------------------------- Iteration      1(  16)  ---------------------------------------


    POTLOK:  cpu time      0.0690: real time      0.0698
    SETDIJ:  cpu time      0.4112: real time      0.4123
    EDDIAG:  cpu time      0.2945: real time      0.2963
  RMM-DIIS:  cpu time      1.3972: real time      1.4099
    ORTHCH:  cpu time      0.0527: real time      0.0534
       DOS:  cpu time      0.0004: real time      0.0004
    CHARGE:  cpu time      0.1585: real time      0.1817
    MIXING:  cpu time      0.0015: real time      0.0015
    --------------------------------------------
      LOOP:  cpu time      2.3850: real time      2.4254

 eigenvalue-minimisations  :  2500
[...]
  0.000   0.000   0.000   0.003  -0.002  -0.000   0.000  -0.000  -0.000   0.000   0.000   0.000  -0.000   0.000
  0.000  -0.000  -0.000  -0.002   0.003  -0.000  -0.000   0.000  -0.000  -0.000   0.000  -0.000   0.000   0.000
 -0.002   0.002   0.000  -0.000  -0.000   0.007  -0.000  -0.000   0.000  -0.000  -0.000   0.000   0.000  -0.000
 -0.000   0.000   0.000   0.006  -0.007  -0.000   0.000  -0.000  -0.000   0.000   0.000   0.000  -0.000   0.000
 -0.034   0.034   0.000   0.000   0.000  -0.006   0.000   0.000  -0.000   0.000   0.000  -0.000   0.000   0.000
 -0.019   0.019   0.000   0.000  -0.000   0.006   0.000  -0.000   0.000   0.000  -0.000   0.000  -0.000  -0.000
 -0.000   0.000   0.000  -0.007   0.006   0.000  -0.000   0.000   0.000  -0.000   0.000  -0.000   0.000  -0.000
  0.033  -0.033  -0.000   0.000   0.000  -0.011   0.000   0.000  -0.000   0.000   0.000  -0.000  -0.000   0.000
 total augmentation occupancy for first ion, spin component:           2
  0.000  -0.000   0.000   0.000  -0.000   0.000   0.000  -0.000  -0.000   0.000  -0.000   0.000  -0.000  -0.000
 -0.000   0.000   0.000  -0.000   0.000  -0.000  -0.000   0.000   0.000  -0.000   0.000  -0.000   0.000   0.000
  0.000   0.000  -0.000  -0.000   0.000  -0.000  -0.000   0.000  -0.000   0.000   0.000  -0.000   0.000   0.000
  0.000  -0.000  -0.000   0.000  -0.000   0.000  -0.000  -0.000  -0.000   0.000  -0.000  -0.000  -0.000  -0.000
 -0.000   0.000   0.000  -0.000   0.000   0.000   0.000   0.000   0.000  -0.000   0.000   0.000   0.000  -0.000
  0.000  -0.000  -0.000   0.000   0.000   0.000  -0.000  -0.000   0.000   0.000  -0.000  -0.000  -0.000  -0.000
  0.000  -0.000  -0.000  -0.000   0.000  -0.000  -0.000   0.000  -0.000  -0.000   0.000  -0.000   0.000   0.000
 -0.000   0.000   0.000  -0.000   0.000  -0.000   0.000   0.000   0.000   0.000   0.000   0.000   0.000  -0.000
 -0.000   0.000  -0.000  -0.000   0.000   0.000  -0.000   0.000   0.000   0.000   0.000   0.000  -0.000  -0.000
  0.000  -0.000   0.000   0.000  -0.000   0.000  -0.000   0.000   0.000   0.000  -0.000  -0.000  -0.000  -0.000
 -0.000   0.000   0.000  -0.000   0.000  -0.000   0.000   0.000   0.000  -0.000   0.000  -0.000   0.000   0.000
  0.000  -0.000  -0.000  -0.000   0.000  -0.000  -0.000   0.000   0.000  -0.000  -0.000  -0.000   0.000   0.000
 -0.000   0.000   0.000  -0.000   0.000  -0.000   0.000   0.000  -0.000  -0.000   0.000   0.000  -0.000   0.000
 -0.000   0.000   0.000  -0.000  -0.000  -0.000   0.000  -0.000  -0.000  -0.000   0.000   0.000   0.000   0.000


------------------------ aborting loop because EDIFF is reached ----------------------------------------


    CHARGE:  cpu time      0.1453: real time      0.1609
    FORLOC:  cpu time      0.0049: real time      0.0050
    FORNL :  cpu time      0.3613: real time      0.3638
    STRESS:  cpu time      1.0790: real time      1.0861
    FORCOR:  cpu time      0.0650: real time      0.0655
    FORHAR:  cpu time      0.0111: real time      0.0111
    MIXING:  cpu time      0.0010: real time      0.0010
    OFIELD:  cpu time      0.0000: real time      0.0000

 ---------------------------------------------------------------------------------------------

         DFTD3 V3.0 Rev 1        
 Edisp (eV)  -12.09576

 E6    (eV) :    -7.4484
 E8    (eV) :    -4.6474
 % E8        : 38.42
    FORVDW:  cpu time      0.2855: real time      0.2876

  FORCE on cell =-STRESS in cart. coord.  units (eV):
  Direction    XX          YY          ZZ          XY          YZ          ZX
  --------------------------------------------------------------------------------------
  Alpha Z   269.54227   269.54227   269.54227
  Ewald   -2759.55386 -2759.34083 -2759.55725    -0.55832    -0.55729     0.66604
  Hartree   843.96560   844.07948   843.96503    -0.33187    -0.33170     0.32513
  E(xc)    -946.88569  -946.88561  -946.88569     0.00019     0.00019     0.00003
  Local   -1760.05244 -1760.39526 -1760.04932     0.91586     0.91490    -0.98675
  n-local  1481.11883  1481.13061  1481.11715     0.26641    -0.31839     0.02992
  augment  -356.05800  -356.06152  -356.05802     0.00686     0.00686    -0.00474
  Kinetic  3240.54720  3240.58225  3240.54627     0.45552    -0.58962     0.02654
  Fock        0.00000     0.00000     0.00000     0.00000     0.00000     0.00000
  vdW       -12.84855   -12.84851   -12.84855     0.00020     0.00020    -0.00023
  -------------------------------------------------------------------------------------
  Total      -0.22638    -0.19712    -0.22638    -0.06001    -0.06001     0.05594
  in kB      -0.36014    -0.31360    -0.36014    -0.09546    -0.09546     0.08900
  external pressure =       -0.34 kB  Pullay stress =        0.00 kB


 VOLUME and BASIS-vectors are now :
 -----------------------------------------------------------------------------
  energy-cutoff  :      520.00
  volume of cell :     1007.11
      direct lattice vectors                 reciprocal lattice vectors
    10.023629099  0.000000000  0.000000000     0.099764266  0.000000000  0.000000000
     0.000000000 10.023629099  0.000000000     0.000000000  0.099764266  0.000000000
     0.000000000  0.000000000 10.023629099     0.000000000  0.000000000  0.099764266

  length of vectors
    10.023629099 10.023629099 10.023629099     0.099764266  0.099764266  0.099764266


 FORCES acting on ions
    electron-ion (+dipol)            ewald-force                    non-local-force                 convergence-correction
 -----------------------------------------------------------------------------------------------
   -.682E+01 -.258E-01 -.145E-01   0.612E+01 0.221E-01 0.172E-01   0.691E+00 0.599E-02 -.224E-02   0.938E-03 -.904E-03 -.158E-03
   -.675E+01 -.122E+00 -.195E-01   0.606E+01 0.116E+00 0.176E-01   0.685E+00 0.926E-02 0.326E-02   -.374E-03 -.149E-02 -.451E-03
   0.682E+01 0.690E-01 -.419E-02   -.612E+01 -.689E-01 0.907E-03   -.691E+00 -.188E-02 0.310E-02   0.382E-03 0.227E-03 0.288E-03
   0.677E+01 -.128E+00 0.459E-01   -.607E+01 0.121E+00 -.486E-01   -.690E+00 0.111E-01 -.248E-02   0.557E-03 -.210E-02 0.243E-02
   0.958E-01 0.358E-01 -.677E+01   -.935E-01 -.324E-01 0.607E+01   -.523E-02 -.365E-02 0.689E+00   0.187E-02 -.386E-04 0.776E-03
   -.363E+00 0.409E+00 0.683E+01   0.339E+00 -.371E+00 -.612E+01   0.422E-01 -.466E-01 -.695E+00   -.469E-02 0.411E-02 0.160E-03
   -.325E-01 0.329E-01 0.674E+01   0.403E-01 -.392E-01 -.605E+01   -.634E-02 0.558E-02 -.686E+00   -.110E-02 0.425E-03 0.439E-03
   -.162E+00 -.191E+00 -.682E+01   0.158E+00 0.185E+00 0.612E+01   0.826E-02 0.113E-01 0.689E+00   -.863E-03 -.258E-02 0.111E-02
   0.216E+00 -.679E+01 0.124E+00   -.209E+00 0.610E+01 -.124E+00   -.132E-01 0.691E+00 -.557E-02   0.270E-02 -.103E-02 0.258E-02
   -.293E-03 0.684E+01 -.258E-03   0.298E-02 -.614E+01 0.287E-02   -.307E-02 -.690E+00 -.307E-02   0.544E-03 0.236E-03 0.547E-03
   0.124E+00 -.679E+01 0.216E+00   -.124E+00 0.610E+01 -.209E+00   -.557E-02 0.691E+00 -.132E-01   0.258E-02 -.103E-02 0.270E-02
   0.424E-02 0.677E+01 0.423E-02   0.882E-03 -.607E+01 0.945E-03   -.572E-02 -.690E+00 -.572E-02   0.344E-03 -.341E-03 0.340E-03
   -.196E-01 -.122E+00 -.675E+01   0.179E-01 0.116E+00 0.606E+01   0.326E-02 0.926E-02 0.685E+00   -.456E-03 -.149E-02 -.373E-03
   -.421E-02 0.690E-01 0.682E+01   0.953E-03 -.689E-01 -.612E+01   0.310E-02 -.188E-02 -.691E+00   0.284E-03 0.227E-03 0.385E-03
   0.459E-01 -.128E+00 0.677E+01   -.488E-01 0.121E+00 -.607E+01   -.248E-02 0.111E-01 -.690E+00   0.244E-02 -.210E-02 0.560E-03
   -.145E-01 -.258E-01 -.682E+01   0.172E-01 0.221E-01 0.612E+01   -.224E-02 0.599E-02 0.691E+00   -.154E-03 -.905E-03 0.940E-03
   0.671E-01 -.678E+01 0.671E-01   -.710E-01 0.608E+01 -.711E-01   -.324E-02 0.694E+00 -.324E-02   0.298E-02 -.142E-02 0.298E-02
   0.153E+00 0.681E+01 -.878E-01   -.152E+00 -.611E+01 0.889E-01   -.464E-02 -.692E+00 0.111E-02   0.192E-02 -.404E-03 -.733E-03
   -.100E+00 -.682E+01 -.100E+00   0.103E+00 0.612E+01 0.103E+00   -.523E-03 0.691E+00 -.523E-03   -.921E-03 -.112E-02 -.925E-03
   -.878E-01 0.681E+01 0.153E+00   0.889E-01 -.611E+01 -.152E+00   0.111E-02 -.692E+00 -.464E-02   -.729E-03 -.404E-03 0.192E-02
   -.677E+01 0.358E-01 0.958E-01   0.607E+01 -.324E-01 -.936E-01   0.689E+00 -.365E-02 -.523E-02   0.778E-03 -.387E-04 0.187E-02
   -.682E+01 -.191E+00 -.162E+00   0.612E+01 0.185E+00 0.158E+00   0.689E+00 0.113E-01 0.826E-02   0.111E-02 -.258E-02 -.867E-03
   0.674E+01 0.329E-01 -.325E-01   -.605E+01 -.392E-01 0.404E-01   -.686E+00 0.558E-02 -.634E-02   0.442E-03 0.425E-03 -.111E-02
   0.682E+01 0.408E+00 -.376E+00   -.612E+01 -.373E+00 0.338E+00   -.695E+00 -.466E-01 0.422E-01   0.163E-03 0.411E-02 -.469E-02
   0.154E-01 -.423E-01 -.834E-02   -.171E-01 0.391E-01 0.793E-02   0.386E-02 0.212E-02 0.404E-02   0.332E-02 0.117E-02 0.180E-02
   0.874E-01 0.306E-01 0.873E-01   -.846E-01 -.265E-01 -.842E-01   -.188E-02 -.760E-02 -.188E-02   0.996E-03 0.206E-02 0.992E-03
   -.830E-02 -.422E-01 0.154E-01   0.777E-02 0.388E-01 -.170E-01   0.404E-02 0.212E-02 0.386E-02   0.180E-02 0.117E-02 0.332E-02
   0.143E+00 -.126E+00 0.143E+00   -.139E+00 0.113E+00 -.139E+00   -.303E-02 0.129E-01 -.303E-02   0.255E-02 0.401E-03 0.255E-02
   -.450E+02 0.452E+02 -.450E+02   0.483E+02 -.485E+02 0.483E+02   -.329E+01 0.330E+01 -.329E+01   -.203E-02 0.258E-02 -.202E-02
   -.451E+02 -.450E+02 0.450E+02   0.484E+02 0.483E+02 -.483E+02   -.331E+01 -.329E+01 0.329E+01   0.605E-03 -.118E-02 0.231E-02
   0.450E+02 0.452E+02 0.450E+02   -.483E+02 -.485E+02 -.483E+02   0.329E+01 0.330E+01 0.329E+01   -.309E-02 -.445E-02 -.309E-02
   0.450E+02 -.450E+02 -.451E+02   -.483E+02 0.483E+02 0.484E+02   0.329E+01 -.329E+01 -.331E+01   0.231E-02 -.118E-02 0.613E-03
   0.449E+02 -.450E+02 -.453E+02   -.482E+02 0.483E+02 0.486E+02   0.329E+01 -.329E+01 -.331E+01   0.132E-02 -.109E-02 -.565E-03
   0.450E+02 0.452E+02 0.451E+02   -.483E+02 -.485E+02 -.484E+02   0.329E+01 0.330E+01 0.328E+01   -.589E-02 -.336E-02 -.304E-02
   -.449E+02 -.452E+02 0.450E+02   0.482E+02 0.485E+02 -.484E+02   -.327E+01 -.331E+01 0.331E+01   -.238E-02 0.400E-03 0.115E-02
   -.450E+02 0.451E+02 -.451E+02   0.483E+02 -.484E+02 0.484E+02   -.330E+01 0.329E+01 -.329E+01   -.196E-02 0.461E-02 -.249E-02
   -.452E+02 -.450E+02 0.450E+02   0.485E+02 0.483E+02 -.483E+02   -.330E+01 -.330E+01 0.328E+01   -.434E-03 0.186E-02 0.244E-02
   -.451E+02 0.450E+02 -.451E+02   0.484E+02 -.483E+02 0.484E+02   -.329E+01 0.329E+01 -.329E+01   -.817E-04 0.273E-02 -.914E-04
   0.450E+02 -.450E+02 -.452E+02   -.483E+02 0.483E+02 0.485E+02   0.328E+01 -.330E+01 -.330E+01   0.244E-02 0.186E-02 -.442E-03
   0.453E+02 0.446E+02 0.453E+02   -.486E+02 -.479E+02 -.486E+02   0.332E+01 0.326E+01 0.332E+01   -.223E-02 0.251E-02 -.223E-02
   -.453E+02 -.450E+02 0.449E+02   0.486E+02 0.483E+02 -.482E+02   -.331E+01 -.329E+01 0.329E+01   -.555E-03 -.109E-02 0.131E-02
   -.451E+02 0.451E+02 -.450E+02   0.484E+02 -.484E+02 0.483E+02   -.329E+01 0.329E+01 -.330E+01   -.248E-02 0.461E-02 -.195E-02
   0.450E+02 -.452E+02 -.449E+02   -.484E+02 0.485E+02 0.482E+02   0.331E+01 -.331E+01 -.327E+01   0.115E-02 0.399E-03 -.237E-02
   0.451E+02 0.452E+02 0.450E+02   -.484E+02 -.485E+02 -.483E+02   0.328E+01 0.330E+01 0.329E+01   -.304E-02 -.337E-02 -.589E-02
   0.663E-01 -.152E+00 0.273E+00   -.714E-01 0.155E+00 -.277E+00   0.636E-02 -.254E-02 0.386E-02   0.278E-03 -.894E-03 -.711E-03
   -.217E+00 0.189E+00 -.217E+00   0.227E+00 -.194E+00 0.227E+00   -.837E-02 0.444E-02 -.837E-02   -.163E-02 0.370E-03 -.164E-02
   0.273E+00 -.152E+00 0.666E-01   -.276E+00 0.155E+00 -.725E-01   0.386E-02 -.254E-02 0.636E-02   -.720E-03 -.894E-03 0.269E-03
   -.407E-01 -.566E-01 -.406E-01   0.444E-01 0.601E-01 0.443E-01   -.566E-02 -.269E-02 -.566E-02   0.109E-02 -.104E-02 0.110E-02
   -.453E-01 -.144E-01 -.130E+00   0.505E-01 0.109E-01 0.129E+00   -.832E-02 0.667E-02 0.299E-02   0.197E-02 -.204E-02 -.947E-03
   0.169E+00 -.833E-01 0.169E+00   -.169E+00 0.904E-01 -.169E+00   0.114E-02 -.152E-01 0.114E-02   -.608E-03 0.508E-02 -.603E-03
   -.130E+00 -.142E-01 -.453E-01   0.129E+00 0.104E-01 0.506E-01   0.299E-02 0.667E-02 -.832E-02   -.942E-03 -.204E-02 0.197E-02
   0.102E+00 0.105E+00 0.102E+00   -.969E-01 -.117E+00 -.966E-01   -.115E-01 0.290E-01 -.115E-01   0.449E-02 -.108E-01 0.449E-02
 -----------------------------------------------------------------------------------------------
   0.423E-01 0.106E-01 0.366E-01   0.197E-13 -.941E-13 0.389E-13   -.332E-01 -.172E-01 -.332E-01   0.700E-02 -.118E-01 0.700E-02
 
 
 POSITION                                       TOTAL-FORCE (eV/Angst)
 -----------------------------------------------------------------------------------
      9.79405      2.50731      2.50718        -0.001878      0.001692      0.000047
      9.78787      7.52089      7.51870         0.000924      0.001479      0.000743
      0.23292      2.50445      7.51962        -0.000888     -0.001161     -0.000168
      0.23418      7.52026      2.50189        -0.000953      0.002598     -0.003048
      2.50570      2.50485      9.79144        -0.001333      0.000227     -0.001531
      2.52039      7.50328      0.22940         0.005531     -0.005245      0.001040
      7.51675      2.50845      0.23559         0.000181      0.000089     -0.001079
      7.52104      7.52111      9.79257         0.002269      0.003330     -0.001385
      2.50405      9.79032      2.50054        -0.003564      0.001626     -0.003230
      2.50344      0.23304      7.51525        -0.000062      0.000026     -0.000062
      7.51236      9.79032      7.51586        -0.003230      0.001626     -0.003564
      7.51809      0.23295      2.50627        -0.000503      0.000535     -0.000503
      2.50688      7.52089      4.77605         0.000743      0.001479      0.000924
      2.50780      2.50445      5.24473        -0.000168     -0.001161     -0.000888
      7.51370      7.52026      5.24599        -0.003048      0.002598     -0.000953
      7.51899      2.50731      4.78223         0.000047      0.001692     -0.001878
      2.50136      4.77896      7.51317        -0.004347      0.001682     -0.004347
      2.50622      5.24431      2.50603        -0.002255      0.000548      0.001226
      7.51889      4.77893      2.50708         0.000604      0.001209      0.000604
      7.51785      5.24431      7.51804         0.001226      0.000548     -0.002255
      4.77963      2.50485      7.51751        -0.001531      0.000227     -0.001333
      4.78075      7.52111      2.50923        -0.001385      0.003330      0.002269
      5.24741      2.50845      2.50493        -0.001079      0.000089      0.000181
      5.24124      7.50328      7.53225         0.001040     -0.005245      0.005531
      5.01038      5.01251      5.01067         0.005321      0.000382      0.005121
      5.01160      0.00203     10.02341         0.001751     -0.001257      0.001751
     10.02249      5.01251     10.02219         0.005121      0.000382      0.005321
     10.02288     10.02299      5.01107         0.003482      0.001333      0.003482
      1.18249      8.83826      6.19430         0.000837     -0.000576      0.000837
      1.18494      1.18241      3.82806        -0.002167     -0.000718      0.000195
      8.83916      8.83866      3.82735        -0.000749     -0.000555     -0.000749
      8.83988      1.18241      6.19676         0.000195     -0.000718     -0.002167
      8.83935      6.19558      1.18405         0.001340     -0.001271     -0.001288
      8.83834      3.82744      8.83977         0.000640     -0.000840     -0.000634
      1.18128      6.19674      8.83707         0.000130     -0.001401      0.002058
      1.18421      3.82983      1.18179         0.000938     -0.002084      0.001191
      6.19695      1.18627      8.84124        -0.001471     -0.001827      0.000219
      6.19494      8.84103      1.18313         0.000880     -0.002236      0.000880
      3.82942      1.18627      1.18513         0.000219     -0.001827     -0.001471
      3.82673      8.84395      8.83855         0.000534     -0.002192      0.000534
      6.19586      6.19558      3.82754        -0.001288     -0.001271      0.001340
      6.19360      3.82983      6.19602         0.001191     -0.002084      0.000938
      3.82526      6.19674      6.19309         0.002058     -0.001401      0.000130
      3.82795      3.82744      3.82653        -0.000634     -0.000840      0.000640
      7.51463      7.51717      7.51940         0.000859      0.000484     -0.000603
      7.52041      2.50609      2.50860        -0.000893      0.000156     -0.000893
      2.50758      7.51717      2.50282        -0.000603      0.000484      0.000859
      2.50638      2.50606      7.51820        -0.001028      0.000247     -0.001028
      0.00090     10.02297     10.02226        -0.001371      0.001273      0.000329
      0.00115      5.01158      5.01297         0.000229     -0.002510      0.000229
      5.01044     10.02297      5.01272         0.000329      0.001273     -0.001371
      5.01359      5.01116      0.00177        -0.002188      0.005777     -0.002188
 -----------------------------------------------------------------------------------
    total drift:                                0.016183     -0.018445      0.010451


--------------------------------------------------------------------------------------------------------



  FREE ENERGIE OF THE ION-ELECTRON SYSTEM (eV)
  ---------------------------------------------------
  free  energy   TOTEN  =      -268.23184400 eV

  energy  without entropy=     -268.23184400  energy(sigma->0) =     -268.23184400
 
 d Force = 0.2738901E-04[ 0.113E-04, 0.435E-04]  d Energy = 0.3611664E-04-0.873E-05
 d Force = 0.2102629E-01[ 0.209E-01, 0.211E-01]  d Ewald  = 0.2102630E-01-0.951E-08


--------------------------------------------------------------------------------------------------------


    POTLOK:  cpu time      0.4664: real time      0.4680


--------------------------------------------------------------------------------------------------------


 stress matrix after NEB project (eV)
     -0.22638     -0.06001      0.05594
     -0.06001     -0.19712     -0.06001
      0.05594     -0.06001     -0.22638
  FORCES: max atom, RMS     0.007693    0.003437
  FORCE total and by dimension    0.024785    0.005777
  Stress total and by dimension    0.402512    0.226381
 Quasi-Newton relaxation of ions (Broydens 2nd method)
  g(Force)  = 0.296E-04   g(Stress)= 0.000E+00

 retain information from N=  2 steps
 eigenvalues of (default step * inverse Hessian matrix)
  average eigenvalue of G=   1.9557
 eigenvalue spectrum of G is  0.4738  3.4377


--------------------------------------------------------------------------------------------------------


  
 reached required accuracy - stopping structural energy minimisation
     LOOP+:  cpu time      9.1928: real time      9.3133
    4ORBIT:  cpu time      0.0000: real time      0.0000

 total amount of memory used by VASP MPI-rank0    50410. kBytes
=======================================================================

   base      :      30000. kBytes
   nonlr-proj:       7915. kBytes
   fftplans  :       2173. kBytes
   grid      :       6510. kBytes
   one-center:         62. kBytes
   wavefun   :       3750. kBytes
 
  
  
 General timing and accounting informations for this job:
 ========================================================
  
                  Total CPU time used (sec):       71.807
                            User time (sec):       70.321
                          System time (sec):        1.486
                         Elapsed time (sec):       76.566
  
                   Maximum memory used (kb):      428016.
                   Average memory used (kb):          N/A
  
                          Minor page faults:        74086
                          Major page faults:          124
                 Voluntary context switches:         6386
