<?xml version="1.0" encoding="ISO-8859-1"?>
<modeling>
 <generator>
  <i name="program" type="string">vasp </i>
  <i name="version" type="string">6.4.1  </i>
  <i name="subversion" type="string">05Apr23 (build Jun 07 2023 15:38:11) complex                          parallel </i>
  <i name="platform" type="string">LinuxIFC </i>
  <i name="date" type="string">2023 10 19 </i>
  <i name="time" type="string">05:04:06 </i>
 </generator>
 <incar>
  <i type="string" name="PREC">Accu</i>
  <i type="string" name="ALGO">F</i>
  <i type="logical" name="LDIAG"> T  </i>
  <i type="int" name="ISPIN">     2</i>
  <i type="int" name="NELM">   100</i>
  <i type="int" name="NELMDL">   -10</i>
  <i type="int" name="IBRION">     2</i>
  <i name="EDIFF">      0.00000100</i>
  <i name="EDIFFG">     -0.00100000</i>
  <i type="int" name="NSW">  1000</i>
  <i type="int" name="ISIF">     2</i>
  <i name="ENCUT">    520.00000000</i>
  <i name="POTIM">      0.20000000</i>
  <i type="string" name="LREAL">Auto</i>
  <i type="logical" name="LPLANE"> T  </i>
  <i type="int" name="ISMEAR">     0</i>
  <i name="SIGMA">      0.03000000</i>
  <i type="int" name="LMAXMIX">     4</i>
  <i type="logical" name="LWAVE"> F  </i>
  <i type="logical" name="LCHARG"> F  </i>
  <i type="logical" name="LASPH"> T  </i>
  <i type="string" name="GGA">PE</i>
  <i type="int" name="IVDW">    12</i>
 </incar>
 <primitive_cell>
  <structure name="primitive_cell" >
   <crystal>
    <varray name="basis" >
     <v>       9.71924782       0.00000000       0.00000000 </v>
     <v>       0.00000000       9.71924782       0.00000000 </v>
     <v>       0.00000000       0.00000000       9.71924782 </v>
    </varray>
    <i name="volume">    918.11686925 </i>
    <varray name="rec_basis" >
     <v>       0.10288862       0.00000000       0.00000000 </v>
     <v>       0.00000000       0.10288862       0.00000000 </v>
     <v>       0.00000000       0.00000000       0.10288862 </v>
    </varray>
   </crystal>
   <varray name="positions" >
    <v>       0.97786551       0.30147002       0.29477573 </v>
    <v>       0.97487251       0.82281185       0.80030439 </v>
    <v>       0.02762987       0.21498219       0.77493621 </v>
    <v>       0.01468659       0.77874000       0.19354378 </v>
    <v>       0.30236457       0.31718053       0.98878002 </v>
    <v>       0.30349443       0.66589355       0.03453196 </v>
    <v>       0.81803787       0.17746862       0.02768281 </v>
    <v>       0.77926443       0.78571372       0.97500498 </v>
    <v>       0.19234142       0.97758124       0.16610259 </v>
    <v>       0.27077267       0.03195648       0.77077264 </v>
    <v>       0.66610262       0.97758124       0.69234139 </v>
    <v>       0.77075335       0.01797158       0.27075332 </v>
    <v>       0.30030442       0.82281185       0.47487248 </v>
    <v>       0.27493624       0.21498219       0.52762984 </v>
    <v>       0.69354381       0.77874000       0.51468656 </v>
    <v>       0.79477576       0.30147002       0.47786548 </v>
    <v>       0.17939657       0.48006931       0.67939654 </v>
    <v>       0.18155082       0.53644806       0.32912582 </v>
    <v>       0.65893837       0.45410518       0.15893834 </v>
    <v>       0.82912585       0.53644806       0.68155079 </v>
    <v>       0.48878005       0.31718053       0.80236454 </v>
    <v>       0.47500501       0.78571372       0.27926440 </v>
    <v>       0.52768284       0.17746862       0.31803784 </v>
    <v>       0.53453479       0.66589441       0.80349879 </v>
    <v>       0.49698643       0.49883704       0.49176462 </v>
    <v>       0.50373122       0.99968554       0.00373119 </v>
    <v>       0.99176465       0.49883704       0.99698640 </v>
    <v>       0.00109420       0.99341081       0.50109417 </v>
    <v>       0.13190962       0.89057761       0.63190959 </v>
    <v>       0.11801041       0.11123329       0.37041023 </v>
    <v>       0.89127180       0.85125368       0.39127177 </v>
    <v>       0.87041026       0.11123329       0.61801038 </v>
    <v>       0.86067218       0.60777996       0.12043593 </v>
    <v>       0.87373463       0.37210922       0.87599131 </v>
    <v>       0.10998406       0.62481572       0.87524157 </v>
    <v>       0.12055570       0.38930553       0.12436259 </v>
    <v>       0.62241511       0.12301469       0.88063258 </v>
    <v>       0.62837874       0.88378632       0.12837871 </v>
    <v>       0.38063261       0.12301469       0.12241508 </v>
    <v>       0.38905770       0.86406097       0.88905767 </v>
    <v>       0.62043596       0.60777996       0.36067215 </v>
    <v>       0.62436262       0.38930553       0.62055567 </v>
    <v>       0.37524160       0.62481572       0.60998403 </v>
    <v>       0.37599134       0.37210922       0.37373460 </v>
    <v>       0.74956444       0.75503611       0.74413520 </v>
    <v>       0.74947675       0.24781094       0.24947672 </v>
    <v>       0.24413523       0.75503611       0.24956441 </v>
    <v>       0.25757591       0.26330481       0.75757588 </v>
    <v>       0.98207120       0.97202390       0.01172654 </v>
    <v>       0.99945310       0.46267605       0.49945307 </v>
    <v>       0.51172657       0.97202390       0.48207117 </v>
    <v>       0.48259556       0.49443942       0.98259553 </v>
   </varray>
  </structure>
  <varray name="primitive_index" >
   <v type="int" >        1 </v>
   <v type="int" >        2 </v>
   <v type="int" >        3 </v>
   <v type="int" >        4 </v>
   <v type="int" >        5 </v>
   <v type="int" >        6 </v>
   <v type="int" >        7 </v>
   <v type="int" >        8 </v>
   <v type="int" >        9 </v>
   <v type="int" >       10 </v>
   <v type="int" >       11 </v>
   <v type="int" >       12 </v>
   <v type="int" >       13 </v>
   <v type="int" >       14 </v>
   <v type="int" >       15 </v>
   <v type="int" >       16 </v>
   <v type="int" >       17 </v>
   <v type="int" >       18 </v>
   <v type="int" >       19 </v>
   <v type="int" >       20 </v>
   <v type="int" >       21 </v>
   <v type="int" >       22 </v>
   <v type="int" >       23 </v>
   <v type="int" >       24 </v>
   <v type="int" >       25 </v>
   <v type="int" >       26 </v>
   <v type="int" >       27 </v>
   <v type="int" >       28 </v>
   <v type="int" >       29 </v>
   <v type="int" >       30 </v>
   <v type="int" >       31 </v>
   <v type="int" >       32 </v>
   <v type="int" >       33 </v>
   <v type="int" >       34 </v>
   <v type="int" >       35 </v>
   <v type="int" >       36 </v>
   <v type="int" >       37 </v>
   <v type="int" >       38 </v>
   <v type="int" >       39 </v>
   <v type="int" >       40 </v>
   <v type="int" >       41 </v>
   <v type="int" >       42 </v>
   <v type="int" >       43 </v>
   <v type="int" >       44 </v>
   <v type="int" >       45 </v>
   <v type="int" >       46 </v>
   <v type="int" >       47 </v>
   <v type="int" >       48 </v>
   <v type="int" >       49 </v>
   <v type="int" >       50 </v>
   <v type="int" >       51 </v>
   <v type="int" >       52 </v>
  </varray>
 </primitive_cell>
 <kpoints>
  <generation param="Monkhorst-Pack">
   <v type="int" name="divisions">       2        2        2 </v>
   <v name="usershift">      0.00000000       0.00000000       0.00000000 </v>
   <v name="genvec1">      0.50000000       0.00000000       0.00000000 </v>
   <v name="genvec2">      0.00000000       0.50000000       0.00000000 </v>
   <v name="genvec3">      0.00000000       0.00000000       0.50000000 </v>
   <v name="shift">      0.50000000       0.50000000       0.50000000 </v>
  </generation>
  <varray name="kpointlist" >
   <v>       0.25000000       0.25000000       0.25000000 </v>
   <v>      -0.25000000       0.25000000       0.25000000 </v>
   <v>       0.25000000      -0.25000000       0.25000000 </v>
  </varray>
  <varray name="weights" >
   <v>       0.25000000 </v>
   <v>       0.50000000 </v>
   <v>       0.25000000 </v>
  </varray>
 </kpoints>
 <parameters>
  <separator name="general" >
   <i type="string" name="SYSTEM">unknown system</i>
   <i type="logical" name="LCOMPAT"> F  </i>
  </separator>
  <separator name="electronic" >
   <i type="string" name="PREC">accu</i>
   <i name="ENMAX">    520.00000000</i>
   <i name="ENAUG">   1041.69900000</i>
   <i name="EDIFF">      0.00000100</i>
   <i type="int" name="IALGO">    68</i>
   <i type="int" name="IWAVPR">    11</i>
   <i type="int" name="NBANDS">   176</i>
   <i type="int" name="NBANDSLOW">    -1</i>
   <i type="int" name="NBANDSHIGH">    -1</i>
   <i name="NELECT">    240.00000000</i>
   <i type="int" name="TURBO">     0</i>
   <i type="int" name="IRESTART">     0</i>
   <i type="int" name="NREBOOT">     0</i>
   <i type="int" name="NMIN">     0</i>
   <i name="EREF">      0.00000000</i>
   <separator name="electronic smearing" >
    <i type="int" name="ISMEAR">     0</i>
    <i name="SIGMA">      0.03000000</i>
    <i name="KSPACING">      0.50000000</i>
    <i type="logical" name="KGAMMA"> T  </i>
    <i type="logical" name="KBLOWUP"> T  </i>
   </separator>
   <separator name="electronic projectors" >
    <i type="logical" name="LREAL"> T  </i>
    <v name="ROPT">     -0.00025000     -0.00025000     -0.00025000     -0.00025000</v>
    <i type="int" name="LMAXPAW">  -100</i>
    <i type="int" name="LMAXMIX">     4</i>
    <i type="logical" name="NLSPLINE"> F  </i>
   </separator>
   <separator name="electronic startup" >
    <i type="int" name="ISTART">     0</i>
    <i type="int" name="ICHARG">     2</i>
    <i type="int" name="INIWAV">     1</i>
   </separator>
   <separator name="electronic spin" >
    <i type="int" name="ISPIN">     2</i>
    <i type="logical" name="LNONCOLLINEAR"> F  </i>
    <v name="MAGMOM">      1.00000000      1.00000000      1.00000000      1.00000000      1.00000000      1.00000000      1.00000000      1.00000000      1.00000000      1.00000000      1.00000000      1.00000000      1.00000000      1.00000000      1.00000000      1.00000000      1.00000000      1.00000000      1.00000000      1.00000000
      1.00000000      1.00000000      1.00000000      1.00000000      1.00000000      1.00000000      1.00000000      1.00000000      1.00000000      1.00000000      1.00000000      1.00000000      1.00000000      1.00000000      1.00000000      1.00000000      1.00000000      1.00000000      1.00000000      1.00000000
      1.00000000      1.00000000      1.00000000      1.00000000      1.00000000      1.00000000      1.00000000      1.00000000      1.00000000      1.00000000      1.00000000      1.00000000</v>
    <i name="NUPDOWN">     -1.00000000</i>
    <i type="logical" name="LSORBIT"> F  </i>
    <v name="SAXIS">      0.00000000      0.00000000      1.00000000</v>
    <i type="logical" name="LSPIRAL"> F  </i>
    <v name="QSPIRAL">      0.00000000      0.00000000      0.00000000</v>
    <i type="logical" name="LZEROZ"> F  </i>
   </separator>
   <separator name="electronic exchange-correlation" >
    <i type="logical" name="LASPH"> T  </i>
    <i type="logical" name="LMETAGGA"> F  </i>
   </separator>
   <separator name="electronic convergence" >
    <i type="int" name="NELM">   100</i>
    <i type="int" name="NELMDL">   -10</i>
    <i type="int" name="NELMIN">     2</i>
    <i name="ENINI">    520.00000000</i>
    <separator name="electronic convergence detail" >
     <i type="logical" name="LDIAG"> T  </i>
     <i type="logical" name="LSUBROT"> F  </i>
     <i name="WEIMIN">      0.00100000</i>
     <i name="EBREAK">      0.00000000</i>
     <i name="DEPER">      0.30000000</i>
     <i type="int" name="NRMM">     4</i>
     <i name="TIME">      0.40000000</i>
    </separator>
   </separator>
   <separator name="electronic mixer" >
    <i name="AMIX">      0.40000000</i>
    <i name="BMIX">      1.00000000</i>
    <i name="AMIN">      0.10000000</i>
    <i name="AMIX_MAG">      1.60000000</i>
    <i name="BMIX_MAG">      1.00000000</i>
    <separator name="electronic mixer details" >
     <i type="int" name="IMIX">     4</i>
     <i type="logical" name="MIXFIRST"> F  </i>
     <i type="int" name="MAXMIX">   -45</i>
     <i name="WC">    100.00000000</i>
     <i type="int" name="INIMIX">     1</i>
     <i type="int" name="MIXPRE">     1</i>
     <i type="int" name="MREMOVE">     5</i>
    </separator>
   </separator>
   <separator name="electronic dipolcorrection" >
    <i type="logical" name="LDIPOL"> F  </i>
    <i type="logical" name="LMONO"> F  </i>
    <i type="int" name="IDIPOL">     0</i>
    <i name="EPSILON">      1.00000000</i>
    <v name="DIPOL">   -100.00000000   -100.00000000   -100.00000000</v>
    <i name="EFIELD">      0.00000000</i>
   </separator>
  </separator>
  <separator name="grids" >
   <i type="int" name="NGX">    72</i>
   <i type="int" name="NGY">    72</i>
   <i type="int" name="NGZ">    72</i>
   <i type="int" name="NGXF">   144</i>
   <i type="int" name="NGYF">   144</i>
   <i type="int" name="NGZF">   144</i>
   <i type="logical" name="ADDGRID"> F  </i>
  </separator>
  <separator name="ionic" >
   <i type="int" name="NSW">  1000</i>
   <i type="int" name="IBRION">     2</i>
   <i type="int" name="MDALGO">     0</i>
   <i type="int" name="ISIF">     2</i>
   <i name="PSTRESS">      0.00000000</i>
   <i name="EDIFFG">     -0.00100000</i>
   <i type="int" name="NFREE">     1</i>
   <i name="POTIM">      0.20000000</i>
   <i name="SMASS">     -3.00000000</i>
   <i name="SCALEE">      1.00000000</i>
  </separator>
  <separator name="ionic md" >
   <i name="TEBEG">      0.00010000</i>
   <i name="TEEND">      0.00010000</i>
   <i type="int" name="NBLOCK">     1</i>
   <i type="int" name="KBLOCK">  1000</i>
   <i type="int" name="NPACO">   256</i>
   <i name="APACO">     10.00000000</i>
  </separator>
  <separator name="symmetry" >
   <i type="int" name="ISYM">     2</i>
   <i name="SYMPREC">      0.00001000</i>
  </separator>
  <separator name="dos" >
   <i type="int" name="LORBIT">     0</i>
   <v name="RWIGS">     -1.00000000     -1.00000000     -1.00000000     -1.00000000</v>
   <i type="int" name="NEDOS">   301</i>
   <i name="EMIN">     10.00000000</i>
   <i name="EMAX">    -10.00000000</i>
   <i name="EFERMI">      0.00000000</i>
  </separator>
  <separator name="writing" >
   <i type="int" name="NWRITE">     2</i>
   <i type="logical" name="LWAVE"> F  </i>
   <i type="logical" name="LDOWNSAMPLE"> F  </i>
   <i type="logical" name="LCHARG"> F  </i>
   <i type="logical" name="LPARD"> F  </i>
   <i type="logical" name="LVTOT"> F  </i>
   <i type="logical" name="LVHAR"> F  </i>
   <i type="logical" name="LELF"> F  </i>
   <i type="logical" name="LOPTICS"> F  </i>
   <v name="STM">      0.00000000      0.00000000      0.00000000      0.00000000      0.00000000      0.00000000      0.00000000</v>
  </separator>
  <separator name="performance" >
   <i type="int" name="NPAR">     4</i>
   <i type="int" name="NSIM">     4</i>
   <i type="int" name="NBLK">    -1</i>
   <i type="logical" name="LPLANE"> T  </i>
   <i type="logical" name="LSCALAPACK"> T  </i>
   <i type="logical" name="LSCAAWARE"> F  </i>
   <i type="logical" name="LSCALU"> F  </i>
   <i type="logical" name="LASYNC"> F  </i>
   <i type="logical" name="LORBITALREAL"> F  </i>
  </separator>
  <separator name="miscellaneous" >
   <i type="int" name="IDIOT">     3</i>
   <i type="int" name="PHON_NSTRUCT">    -1</i>
   <i type="logical" name="LMUSIC"> F  </i>
   <v name="POMASS">      7.01000000     30.97400000     32.06600000     35.45300000</v>
   <v name="DARWINR">      0.00000000      0.00000000      0.00000000      0.00000000</v>
   <v name="DARWINV">      1.00000000      1.00000000      1.00000000      1.00000000</v>
   <i type="logical" name="LCORR"> T  </i>
  </separator>
  <i type="logical" name="GGA_COMPAT"> T  </i>
  <i type="logical" name="LBERRY"> F  </i>
  <i type="int" name="ICORELEVEL">     0</i>
  <i type="logical" name="LDAU"> F  </i>
  <i type="int" name="I_CONSTRAINED_M">     0</i>
  <separator name="electronic exchange-correlation" >
   <i type="string" name="GGA">PE</i>
   <i type="int" name="VOSKOWN">     0</i>
   <i type="logical" name="LHFCALC"> F  </i>
   <i type="string" name="PRECFOCK"></i>
   <i type="logical" name="LSYMGRAD"> F  </i>
   <i type="logical" name="LHFONE"> F  </i>
   <i type="logical" name="LRHFCALC"> F  </i>
   <i type="logical" name="LTHOMAS"> F  </i>
   <i type="logical" name="LMODELHF"> F  </i>
   <i type="logical" name="LFOCKACE"> F  </i>
   <i name="ENCUT4O">     -1.00000000</i>
   <i type="int" name="EXXOEP">     0</i>
   <i type="int" name="FOURORBIT">     0</i>
   <i name="AEXX">      0.00000000</i>
   <i name="HFALPHA">      0.00000000</i>
   <i name="MCALPHA">      0.00000000</i>
   <i name="ALDAX">      1.00000000</i>
   <i name="AGGAX">      1.00000000</i>
   <i name="ALDAC">      1.00000000</i>
   <i name="AGGAC">      1.00000000</i>
   <i type="int" name="NKREDX">     1</i>
   <i type="int" name="NKREDY">     1</i>
   <i type="int" name="NKREDZ">     1</i>
   <i type="logical" name="SHIFTRED"> F  </i>
   <i type="logical" name="ODDONLY"> F  </i>
   <i type="logical" name="EVENONLY"> F  </i>
   <i type="int" name="LMAXFOCK">     0</i>
   <i type="int" name="NMAXFOCKAE">     0</i>
   <i type="logical" name="LFOCKAEDFT"> F  </i>
   <i name="HFSCREEN">      0.00000000</i>
   <i name="HFSCREENC">      0.00000000</i>
   <i type="int" name="NBANDSGWLOW">     0</i>
  </separator>
  <separator name="vdW DFT" >
   <i type="logical" name="LUSE_VDW"> F  </i>
   <i type="int" name="IVDW_NL">     1</i>
   <i type="logical" name="LSPIN_VDW"> F  </i>
   <i name="Zab_VDW">     -0.84910000</i>
   <i name="PARAM1">      0.12340000</i>
   <i name="PARAM2">      1.00000000</i>
   <i name="PARAM3">      0.00000000</i>
  </separator>
  <separator name="model GW" >
   <i type="int" name="MODEL_GW">     0</i>
   <i name="MODEL_EPS0">     10.59365618</i>
   <i name="MODEL_ALPHA">      1.00000000</i>
  </separator>
  <separator name="linear response parameters" >
   <i type="logical" name="LEPSILON"> F  </i>
   <i type="logical" name="LRPA"> F  </i>
   <i type="logical" name="LNABLA"> F  </i>
   <i type="logical" name="LVEL"> F  </i>
   <i name="CSHIFT">      0.10000000</i>
   <i name="OMEGAMAX">     -1.00000000</i>
   <i name="DEG_THRESHOLD">      0.00200000</i>
   <i name="RTIME">     -0.10000000</i>
   <i name="WPLASMAI">      0.00000000</i>
   <v name="DFIELD">      0.00000000      0.00000000      0.00000000</v>
   <v name="WPLASMA">      0.00000000      0.00000000      0.00000000      0.00000000      0.00000000      0.00000000      0.00000000      0.00000000      0.00000000</v>
  </separator>
  <separator name="orbital magnetization" >
   <i type="logical" name="NUCIND"> F  </i>
   <v name="MAGPOS">      0.00000000      0.00000000      0.00000000</v>
   <i type="logical" name="LNICSALL"> T  </i>
   <i type="logical" name="ORBITALMAG"> F  </i>
   <i type="logical" name="LMAGBLOCH"> F  </i>
   <i type="logical" name="LCHIMAG"> F  </i>
   <i type="logical" name="LGAUGE"> T  </i>
   <i type="int" name="MAGATOM">     0</i>
   <v name="MAGDIPOL">      0.00000000      0.00000000      0.00000000</v>
   <v name="AVECCONST">      0.00000000      0.00000000      0.00000000</v>
  </separator>
  <separator name="response functions" >
   <i type="logical" name="LALL_IN_ONE"> F  </i>
   <i type="int" name="IALL_IN_ONE">    -1</i>
   <i type="int" name="NBANDS_WAVE">    -1</i>
   <i type="logical" name="LFINITE_TEMPERATURE"> F  </i>
   <i type="logical" name="LADDER"> F  </i>
   <i type="logical" name="LRPAFORCE"> F  </i>
   <i type="logical" name="LFXC"> F  </i>
   <i type="logical" name="LHARTREE"> T  </i>
   <i type="int" name="IBSE">     0</i>
   <v type="int" name="KPOINT">    -1     0     0     0</v>
   <i type="logical" name="LTCTC"> F  </i>
   <i type="logical" name="LTCTE"> F  </i>
   <i type="logical" name="LTETE"> F  </i>
   <i type="logical" name="LTRIPLET"> F  </i>
   <i type="logical" name="LFXCEPS"> F  </i>
   <i type="logical" name="LFXHEG"> F  </i>
   <i type="int" name="NATURALO">     2</i>
   <i type="logical" name="LHOLEGF"> F  </i>
   <i type="logical" name="L2ORDER"> F  </i>
   <i type="logical" name="LDMP1"> F  </i>
   <i type="logical" name="LMP2LT"> F  </i>
   <i type="logical" name="LSMP2LT"> F  </i>
   <i type="logical" name="LGWLF"> F  </i>
   <i name="ENCUTGW">     -1.60000002</i>
   <i name="ENCUTGWSOFT">     -1.60000002</i>
   <i name="ENCUTLF">     -1.00000000</i>
   <i type="logical" name="LESF_SPLINES"> F  </i>
   <i type="int" name="LMAXMP2">    -1</i>
   <i name="SCISSOR">      0.00000000</i>
   <i type="int" name="NOMEGA">     0</i>
   <i type="int" name="NOMEGAR">     0</i>
   <i type="int" name="NBANDSGW">    -1</i>
   <i type="int" name="NBANDSO">    -1</i>
   <i type="int" name="NBANDSV">    -1</i>
   <i type="int" name="NELMGW">     1</i>
   <i type="int" name="NELMHF">     1</i>
   <i type="int" name="DIM">     3</i>
   <i type="int" name="IESPILON">     4</i>
   <i type="int" name="ANTIRES">     0</i>
   <i name="OMEGAMAX">    -30.00000000</i>
   <i name="OMEGAMIN">    -30.00000000</i>
   <i name="OMEGATL">   -200.00000000</i>
   <i type="int" name="OMEGAGRID">     0</i>
   <i name="CSHIFT">     -0.10000000</i>
   <i type="logical" name="LSELFENERGY"> F  </i>
   <i type="logical" name="LSPECTRAL"> F  </i>
   <i type="logical" name="LSPECTRALGW"> F  </i>
   <i type="logical" name="LSINGLES"> F  </i>
   <i type="logical" name="LFERMIGW"> F  </i>
   <i type="logical" name="ODDONLYGW"> F  </i>
   <i type="logical" name="EVENONLYGW"> F  </i>
   <i type="int" name="NKREDLFX">     1</i>
   <i type="int" name="NKREDLFY">     1</i>
   <i type="int" name="NKREDLFZ">     1</i>
   <i type="int" name="MAXMEM">  2800</i>
   <i type="int" name="TELESCOPE">     0</i>
   <i type="int" name="NTAUPAR">    -1</i>
   <i type="int" name="NOMEGAPAR">    -1</i>
   <i name="DAMP_NEWTON">      0.80000001</i>
   <i name="LAMBDA">      1.00000000</i>
  </separator>
  <separator name="External order field" >
   <i name="OFIELD_KAPPA">      0.00000000</i>
   <v name="OFIELD_K">      0.00000000      0.00000000      0.00000000</v>
   <i name="OFIELD_Q6_NEAR">      0.00000000</i>
   <i name="OFIELD_Q6_FAR">      0.00000000</i>
   <i name="OFIELD_A">      0.00000000</i>
  </separator>
  <separator name="optional k-points parameters" >
   <i type="int" name="KPOINTS_OPT_MODE">     1</i>
   <i type="logical" name="LKPOINTS_OPT"> F  </i>
  </separator>
 </parameters>
 <atominfo>
  <atoms>      52 </atoms>
  <types>       4 </types>
  <array name="atoms" >
   <dimension dim="1">ion</dimension>
   <field type="string">element</field>
   <field type="int">atomtype</field>
   <set>
    <rc><c>Li</c><c>   1</c></rc>
    <rc><c>Li</c><c>   1</c></rc>
    <rc><c>Li</c><c>   1</c></rc>
    <rc><c>Li</c><c>   1</c></rc>
    <rc><c>Li</c><c>   1</c></rc>
    <rc><c>Li</c><c>   1</c></rc>
    <rc><c>Li</c><c>   1</c></rc>
    <rc><c>Li</c><c>   1</c></rc>
    <rc><c>Li</c><c>   1</c></rc>
    <rc><c>Li</c><c>   1</c></rc>
    <rc><c>Li</c><c>   1</c></rc>
    <rc><c>Li</c><c>   1</c></rc>
    <rc><c>Li</c><c>   1</c></rc>
    <rc><c>Li</c><c>   1</c></rc>
    <rc><c>Li</c><c>   1</c></rc>
    <rc><c>Li</c><c>   1</c></rc>
    <rc><c>Li</c><c>   1</c></rc>
    <rc><c>Li</c><c>   1</c></rc>
    <rc><c>Li</c><c>   1</c></rc>
    <rc><c>Li</c><c>   1</c></rc>
    <rc><c>Li</c><c>   1</c></rc>
    <rc><c>Li</c><c>   1</c></rc>
    <rc><c>Li</c><c>   1</c></rc>
    <rc><c>Li</c><c>   1</c></rc>
    <rc><c>P </c><c>   2</c></rc>
    <rc><c>P </c><c>   2</c></rc>
    <rc><c>P </c><c>   2</c></rc>
    <rc><c>P </c><c>   2</c></rc>
    <rc><c>S </c><c>   3</c></rc>
    <rc><c>S </c><c>   3</c></rc>
    <rc><c>S </c><c>   3</c></rc>
    <rc><c>S </c><c>   3</c></rc>
    <rc><c>S </c><c>   3</c></rc>
    <rc><c>S </c><c>   3</c></rc>
    <rc><c>S </c><c>   3</c></rc>
    <rc><c>S </c><c>   3</c></rc>
    <rc><c>S </c><c>   3</c></rc>
    <rc><c>S </c><c>   3</c></rc>
    <rc><c>S </c><c>   3</c></rc>
    <rc><c>S </c><c>   3</c></rc>
    <rc><c>S </c><c>   3</c></rc>
    <rc><c>S </c><c>   3</c></rc>
    <rc><c>S </c><c>   3</c></rc>
    <rc><c>S </c><c>   3</c></rc>
    <rc><c>S </c><c>   3</c></rc>
    <rc><c>S </c><c>   3</c></rc>
    <rc><c>S </c><c>   3</c></rc>
    <rc><c>S </c><c>   3</c></rc>
    <rc><c>Cl</c><c>   4</c></rc>
    <rc><c>Cl</c><c>   4</c></rc>
    <rc><c>Cl</c><c>   4</c></rc>
    <rc><c>Cl</c><c>   4</c></rc>
   </set>
  </array>
  <array name="atomtypes" >
   <dimension dim="1">type</dimension>
   <field type="int">atomspertype</field>
   <field type="string">element</field>
   <field>mass</field>
   <field>valence</field>
   <field type="string">pseudopotential</field>
   <set>
    <rc><c>  24</c><c>Li</c><c>      7.01000000</c><c>      3.00000000</c><c>  PAW_PBE Li_sv_GW 25Mar2010            </c></rc>
    <rc><c>   4</c><c>P </c><c>     30.97400000</c><c>      5.00000000</c><c>  PAW_PBE P_GW 19Mar2012                </c></rc>
    <rc><c>  20</c><c>S </c><c>     32.06600000</c><c>      6.00000000</c><c>  PAW_PBE S_GW 19Mar2012                </c></rc>
    <rc><c>   4</c><c>Cl</c><c>     35.45300000</c><c>      7.00000000</c><c>  PAW_PBE Cl_GW 19Mar2012               </c></rc>
   </set>
  </array>
 </atominfo>
 <structure name="initialpos" >
  <crystal>
   <varray name="basis" >
    <v>       9.71924782       0.00000000       0.00000000 </v>
    <v>       0.00000000       9.71924782       0.00000000 </v>
    <v>       0.00000000       0.00000000       9.71924782 </v>
   </varray>
   <i name="volume">    918.11686925 </i>
   <varray name="rec_basis" >
    <v>       0.10288862       0.00000000       0.00000000 </v>
    <v>       0.00000000       0.10288862       0.00000000 </v>
    <v>       0.00000000       0.00000000       0.10288862 </v>
   </varray>
  </crystal>
  <varray name="positions" >
   <v>       0.97786551       0.30147002       0.29477573 </v>
   <v>       0.97487251       0.82281185       0.80030439 </v>
   <v>       0.02762987       0.21498219       0.77493621 </v>
   <v>       0.01468659       0.77874000       0.19354378 </v>
   <v>       0.30236457       0.31718053       0.98878002 </v>
   <v>       0.30349443       0.66589355       0.03453196 </v>
   <v>       0.81803787       0.17746862       0.02768281 </v>
   <v>       0.77926443       0.78571372       0.97500498 </v>
   <v>       0.19234142       0.97758124       0.16610259 </v>
   <v>       0.27077267       0.03195648       0.77077264 </v>
   <v>       0.66610262       0.97758124       0.69234139 </v>
   <v>       0.77075335       0.01797158       0.27075332 </v>
   <v>       0.30030442       0.82281185       0.47487248 </v>
   <v>       0.27493624       0.21498219       0.52762984 </v>
   <v>       0.69354381       0.77874000       0.51468656 </v>
   <v>       0.79477576       0.30147002       0.47786548 </v>
   <v>       0.17939657       0.48006931       0.67939654 </v>
   <v>       0.18155082       0.53644806       0.32912582 </v>
   <v>       0.65893837       0.45410518       0.15893834 </v>
   <v>       0.82912585       0.53644806       0.68155079 </v>
   <v>       0.48878005       0.31718053       0.80236454 </v>
   <v>       0.47500501       0.78571372       0.27926440 </v>
   <v>       0.52768284       0.17746862       0.31803784 </v>
   <v>       0.53453479       0.66589441       0.80349879 </v>
   <v>       0.49698643       0.49883704       0.49176462 </v>
   <v>       0.50373122       0.99968554       0.00373119 </v>
   <v>       0.99176465       0.49883704       0.99698640 </v>
   <v>       0.00109420       0.99341081       0.50109417 </v>
   <v>       0.13190962       0.89057761       0.63190959 </v>
   <v>       0.11801041       0.11123329       0.37041023 </v>
   <v>       0.89127180       0.85125368       0.39127177 </v>
   <v>       0.87041026       0.11123329       0.61801038 </v>
   <v>       0.86067218       0.60777996       0.12043593 </v>
   <v>       0.87373463       0.37210922       0.87599131 </v>
   <v>       0.10998406       0.62481572       0.87524157 </v>
   <v>       0.12055570       0.38930553       0.12436259 </v>
   <v>       0.62241511       0.12301469       0.88063258 </v>
   <v>       0.62837874       0.88378632       0.12837871 </v>
   <v>       0.38063261       0.12301469       0.12241508 </v>
   <v>       0.38905770       0.86406097       0.88905767 </v>
   <v>       0.62043596       0.60777996       0.36067215 </v>
   <v>       0.62436262       0.38930553       0.62055567 </v>
   <v>       0.37524160       0.62481572       0.60998403 </v>
   <v>       0.37599134       0.37210922       0.37373460 </v>
   <v>       0.74956444       0.75503611       0.74413520 </v>
   <v>       0.74947675       0.24781094       0.24947672 </v>
   <v>       0.24413523       0.75503611       0.24956441 </v>
   <v>       0.25757591       0.26330481       0.75757588 </v>
   <v>       0.98207120       0.97202390       0.01172654 </v>
   <v>       0.99945310       0.46267605       0.49945307 </v>
   <v>       0.51172657       0.97202390       0.48207117 </v>
   <v>       0.48259556       0.49443942       0.98259553 </v>
  </varray>
 </structure>
 <calculation>
  <scstep>
   <time name="dav">    1.67    1.96</time>
   <time name="total">    2.14    2.46</time>
   <energy>
    <i name="alphaZ">    295.66770067 </i>
    <i name="ewald">  -8723.51899559 </i>
    <i name="hartreedc">  -2161.42056606 </i>
    <i name="XCdc">    533.43817959 </i>
    <i name="pawpsdc">   8141.38806575 </i>
    <i name="pawaedc">  -8271.61346273 </i>
    <i name="eentropy">     -0.00510821 </i>
    <i name="bandstr">   -924.55815113 </i>
    <i name="atom">  12703.13999606 </i>
    <i name="e_fr_energy">   1592.51765835 </i>
    <i name="e_wo_entrp">   1592.52276656 </i>
    <i name="e_0_energy">   1592.52021246 </i>
   </energy>
  </scstep>
  <scstep>
   <time name="dav">    1.99    2.01</time>
   <time name="total">    1.99    2.01</time>
   <energy>
    <i name="e_fr_energy">    -56.92143542 </i>
    <i name="e_wo_entrp">    -56.92143542 </i>
    <i name="e_0_energy">    -56.92143542 </i>
   </energy>
  </scstep>
  <scstep>
   <time name="dav">    2.04    2.09</time>
   <time name="total">    2.04    2.09</time>
   <energy>
    <i name="e_fr_energy">   -228.69537313 </i>
    <i name="e_wo_entrp">   -228.69537313 </i>
    <i name="e_0_energy">   -228.69537313 </i>
   </energy>
  </scstep>
  <scstep>
   <time name="dav">    2.36    2.43</time>
   <time name="total">    2.36    2.43</time>
   <energy>
    <i name="e_fr_energy">   -241.95978753 </i>
    <i name="e_wo_entrp">   -241.95978753 </i>
    <i name="e_0_energy">   -241.95978753 </i>
   </energy>
  </scstep>
  <scstep>
   <time name="dav">    2.27    2.33</time>
   <time name="total">    2.27    2.33</time>
   <energy>
    <i name="e_fr_energy">   -242.18199969 </i>
    <i name="e_wo_entrp">   -242.18199969 </i>
    <i name="e_0_energy">   -242.18199969 </i>
   </energy>
  </scstep>
  <scstep>
   <time name="dav">    2.30    2.32</time>
   <time name="total">    2.30    2.32</time>
   <energy>
    <i name="e_fr_energy">   -242.19151480 </i>
    <i name="e_wo_entrp">   -242.19151480 </i>
    <i name="e_0_energy">   -242.19151480 </i>
   </energy>
  </scstep>
  <scstep>
   <time name="dav">    2.30    2.32</time>
   <time name="total">    2.30    2.32</time>
   <energy>
    <i name="e_fr_energy">   -242.19193717 </i>
    <i name="e_wo_entrp">   -242.19193717 </i>
    <i name="e_0_energy">   -242.19193717 </i>
   </energy>
  </scstep>
  <scstep>
   <time name="dav">    2.29    2.31</time>
   <time name="total">    2.29    2.31</time>
   <energy>
    <i name="e_fr_energy">   -242.19196420 </i>
    <i name="e_wo_entrp">   -242.19196420 </i>
    <i name="e_0_energy">   -242.19196420 </i>
   </energy>
  </scstep>
  <scstep>
   <time name="dav">    2.27    2.29</time>
   <time name="total">    2.27    2.30</time>
   <energy>
    <i name="e_fr_energy">   -242.19196607 </i>
    <i name="e_wo_entrp">   -242.19196607 </i>
    <i name="e_0_energy">   -242.19196607 </i>
   </energy>
  </scstep>
  <scstep>
   <time name="dav">    1.50    1.52</time>
   <time name="total">    1.64    1.70</time>
   <energy>
    <i name="e_fr_energy">   -242.19196618 </i>
    <i name="e_wo_entrp">   -242.19196618 </i>
    <i name="e_0_energy">   -242.19196618 </i>
   </energy>
  </scstep>
  <scstep>
   <time name="diag">    0.28    0.28</time>
   <time name="diis">    0.87    0.88</time>
   <time name="orth">    0.05    0.06</time>
   <time name="total">    1.81    1.87</time>
   <energy>
    <i name="e_fr_energy">   -234.57524053 </i>
    <i name="e_wo_entrp">   -234.57524053 </i>
    <i name="e_0_energy">   -234.57524053 </i>
   </energy>
  </scstep>
  <scstep>
   <time name="diag">    0.27    0.27</time>
   <time name="diis">    0.92    0.93</time>
   <time name="orth">    0.05    0.05</time>
   <time name="total">    1.83    1.89</time>
   <energy>
    <i name="e_fr_energy">   -255.98638817 </i>
    <i name="e_wo_entrp">   -255.98638817 </i>
    <i name="e_0_energy">   -255.98638817 </i>
   </energy>
  </scstep>
  <scstep>
   <time name="diag">    0.27    0.27</time>
   <time name="diis">    0.91    0.91</time>
   <time name="orth">    0.05    0.05</time>
   <time name="total">    1.82    1.87</time>
   <energy>
    <i name="e_fr_energy">   -258.47547940 </i>
    <i name="e_wo_entrp">   -258.47547940 </i>
    <i name="e_0_energy">   -258.47547940 </i>
   </energy>
  </scstep>
  <scstep>
   <time name="diag">    0.27    0.27</time>
   <time name="diis">    1.15    1.16</time>
   <time name="orth">    0.05    0.05</time>
   <time name="total">    2.05    2.09</time>
   <energy>
    <i name="e_fr_energy">   -258.67423664 </i>
    <i name="e_wo_entrp">   -258.67423664 </i>
    <i name="e_0_energy">   -258.67423664 </i>
   </energy>
  </scstep>
  <scstep>
   <time name="diag">    0.27    0.27</time>
   <time name="diis">    0.96    0.97</time>
   <time name="orth">    0.05    0.05</time>
   <time name="total">    1.87    1.90</time>
   <energy>
    <i name="e_fr_energy">   -258.64164311 </i>
    <i name="e_wo_entrp">   -258.64164311 </i>
    <i name="e_0_energy">   -258.64164311 </i>
   </energy>
  </scstep>
  <scstep>
   <time name="diag">    0.27    0.28</time>
   <time name="diis">    0.96    0.97</time>
   <time name="orth">    0.05    0.05</time>
   <time name="total">    1.87    1.90</time>
   <energy>
    <i name="e_fr_energy">   -258.66299386 </i>
    <i name="e_wo_entrp">   -258.66299386 </i>
    <i name="e_0_energy">   -258.66299386 </i>
   </energy>
  </scstep>
  <scstep>
   <time name="diag">    0.27    0.27</time>
   <time name="diis">    1.08    1.09</time>
   <time name="orth">    0.05    0.05</time>
   <time name="total">    1.98    2.00</time>
   <energy>
    <i name="e_fr_energy">   -258.66915488 </i>
    <i name="e_wo_entrp">   -258.66915488 </i>
    <i name="e_0_energy">   -258.66915488 </i>
   </energy>
  </scstep>
  <scstep>
   <time name="diag">    0.27    0.27</time>
   <time name="diis">    1.05    1.06</time>
   <time name="orth">    0.05    0.05</time>
   <time name="total">    1.95    1.98</time>
   <energy>
    <i name="e_fr_energy">   -258.67052912 </i>
    <i name="e_wo_entrp">   -258.67052912 </i>
    <i name="e_0_energy">   -258.67052912 </i>
   </energy>
  </scstep>
  <scstep>
   <time name="diag">    0.27    0.27</time>
   <time name="diis">    1.22    1.23</time>
   <time name="orth">    0.05    0.05</time>
   <time name="total">    2.12    2.14</time>
   <energy>
    <i name="e_fr_energy">   -258.67104208 </i>
    <i name="e_wo_entrp">   -258.67104208 </i>
    <i name="e_0_energy">   -258.67104208 </i>
   </energy>
  </scstep>
  <scstep>
   <time name="diag">    0.27    0.27</time>
   <time name="diis">    1.20    1.21</time>
   <time name="orth">    0.05    0.05</time>
   <time name="total">    2.11    2.13</time>
   <energy>
    <i name="e_fr_energy">   -258.67113772 </i>
    <i name="e_wo_entrp">   -258.67113772 </i>
    <i name="e_0_energy">   -258.67113772 </i>
   </energy>
  </scstep>
  <scstep>
   <time name="diag">    0.27    0.27</time>
   <time name="diis">    1.06    1.07</time>
   <time name="orth">    0.05    0.05</time>
   <time name="total">    1.96    1.98</time>
   <energy>
    <i name="e_fr_energy">   -258.67115805 </i>
    <i name="e_wo_entrp">   -258.67115805 </i>
    <i name="e_0_energy">   -258.67115805 </i>
   </energy>
  </scstep>
  <scstep>
   <time name="diag">    0.27    0.28</time>
   <time name="diis">    1.19    1.20</time>
   <time name="orth">    0.05    0.05</time>
   <time name="total">    2.09    2.12</time>
   <energy>
    <i name="e_fr_energy">   -258.67116532 </i>
    <i name="e_wo_entrp">   -258.67116532 </i>
    <i name="e_0_energy">   -258.67116532 </i>
   </energy>
  </scstep>
  <scstep>
   <time name="diag">    0.27    0.27</time>
   <time name="diis">    0.96    0.97</time>
   <time name="orth">    0.05    0.05</time>
   <time name="total">    1.86    1.87</time>
   <energy>
    <i name="e_fr_energy">   -258.67116513 </i>
    <i name="e_wo_entrp">   -258.67116513 </i>
    <i name="e_0_energy">   -258.67116513 </i>
   </energy>
  </scstep>
  <scstep>
   <time name="diag">    0.27    0.27</time>
   <time name="diis">    0.75    0.75</time>
   <time name="orth">    0.05    0.05</time>
   <time name="total">    1.54    1.55</time>
   <energy>
    <i name="alphaZ">    295.66770067 </i>
    <i name="ewald">  -8723.51899559 </i>
    <i name="hartreedc">  -2267.99854954 </i>
    <i name="XCdc">    537.55592252 </i>
    <i name="pawpsdc">   9834.46917856 </i>
    <i name="pawaedc">  -9978.62186703 </i>
    <i name="eentropy">     -0.00000000 </i>
    <i name="bandstr">  -2659.36454997 </i>
    <i name="atom">  12703.13999606 </i>
    <i name="e_fr_energy">   -258.67116432 </i>
    <i name="e_wo_entrp">   -258.67116432 </i>
    <i name="e_0_energy">   -258.67116432 </i>
   </energy>
  </scstep>
  <structure>
   <crystal>
    <varray name="basis" >
     <v>       9.71924782       0.00000000       0.00000000 </v>
     <v>       0.00000000       9.71924782       0.00000000 </v>
     <v>       0.00000000       0.00000000       9.71924782 </v>
    </varray>
    <i name="volume">    918.11686925 </i>
    <varray name="rec_basis" >
     <v>       0.10288862       0.00000000       0.00000000 </v>
     <v>       0.00000000       0.10288862       0.00000000 </v>
     <v>       0.00000000       0.00000000       0.10288862 </v>
    </varray>
   </crystal>
   <varray name="positions" >
    <v>       0.97786551       0.30147002       0.29477573 </v>
    <v>       0.97487251       0.82281185       0.80030439 </v>
    <v>       0.02762987       0.21498219       0.77493621 </v>
    <v>       0.01468659       0.77874000       0.19354378 </v>
    <v>       0.30236457       0.31718053       0.98878002 </v>
    <v>       0.30349443       0.66589355       0.03453196 </v>
    <v>       0.81803787       0.17746862       0.02768281 </v>
    <v>       0.77926443       0.78571372       0.97500498 </v>
    <v>       0.19234142       0.97758124       0.16610259 </v>
    <v>       0.27077267       0.03195648       0.77077264 </v>
    <v>       0.66610262       0.97758124       0.69234139 </v>
    <v>       0.77075335       0.01797158       0.27075332 </v>
    <v>       0.30030442       0.82281185       0.47487248 </v>
    <v>       0.27493624       0.21498219       0.52762984 </v>
    <v>       0.69354381       0.77874000       0.51468656 </v>
    <v>       0.79477576       0.30147002       0.47786548 </v>
    <v>       0.17939657       0.48006931       0.67939654 </v>
    <v>       0.18155082       0.53644806       0.32912582 </v>
    <v>       0.65893837       0.45410518       0.15893834 </v>
    <v>       0.82912585       0.53644806       0.68155079 </v>
    <v>       0.48878005       0.31718053       0.80236454 </v>
    <v>       0.47500501       0.78571372       0.27926440 </v>
    <v>       0.52768284       0.17746862       0.31803784 </v>
    <v>       0.53453479       0.66589441       0.80349879 </v>
    <v>       0.49698643       0.49883704       0.49176462 </v>
    <v>       0.50373122       0.99968554       0.00373119 </v>
    <v>       0.99176465       0.49883704       0.99698640 </v>
    <v>       0.00109420       0.99341081       0.50109417 </v>
    <v>       0.13190962       0.89057761       0.63190959 </v>
    <v>       0.11801041       0.11123329       0.37041023 </v>
    <v>       0.89127180       0.85125368       0.39127177 </v>
    <v>       0.87041026       0.11123329       0.61801038 </v>
    <v>       0.86067218       0.60777996       0.12043593 </v>
    <v>       0.87373463       0.37210922       0.87599131 </v>
    <v>       0.10998406       0.62481572       0.87524157 </v>
    <v>       0.12055570       0.38930553       0.12436259 </v>
    <v>       0.62241511       0.12301469       0.88063258 </v>
    <v>       0.62837874       0.88378632       0.12837871 </v>
    <v>       0.38063261       0.12301469       0.12241508 </v>
    <v>       0.38905770       0.86406097       0.88905767 </v>
    <v>       0.62043596       0.60777996       0.36067215 </v>
    <v>       0.62436262       0.38930553       0.62055567 </v>
    <v>       0.37524160       0.62481572       0.60998403 </v>
    <v>       0.37599134       0.37210922       0.37373460 </v>
    <v>       0.74956444       0.75503611       0.74413520 </v>
    <v>       0.74947675       0.24781094       0.24947672 </v>
    <v>       0.24413523       0.75503611       0.24956441 </v>
    <v>       0.25757591       0.26330481       0.75757588 </v>
    <v>       0.98207120       0.97202390       0.01172654 </v>
    <v>       0.99945310       0.46267605       0.49945307 </v>
    <v>       0.51172657       0.97202390       0.48207117 </v>
    <v>       0.48259556       0.49443942       0.98259553 </v>
   </varray>
  </structure>
  <varray name="forces" >
   <v>      -0.00095914       0.00013141       0.00083868 </v>
   <v>      -0.00046483      -0.00050064       0.00087430 </v>
   <v>      -0.00062190      -0.00290492       0.00109376 </v>
   <v>      -0.00266770      -0.00015098      -0.00068221 </v>
   <v>      -0.00067189      -0.00032257       0.00199427 </v>
   <v>      -0.00070477      -0.00095502      -0.00057708 </v>
   <v>      -0.00056613      -0.00058142       0.00086779 </v>
   <v>       0.00117591      -0.00005967       0.00132920 </v>
   <v>      -0.00126849       0.00074845       0.00017259 </v>
   <v>       0.00145609      -0.00355924       0.00145609 </v>
   <v>       0.00017259       0.00074845      -0.00126849 </v>
   <v>      -0.00138448       0.00012170      -0.00138448 </v>
   <v>       0.00087430      -0.00050064      -0.00046483 </v>
   <v>       0.00109376      -0.00290492      -0.00062190 </v>
   <v>      -0.00068221      -0.00015098      -0.00266770 </v>
   <v>       0.00083868       0.00013141      -0.00095914 </v>
   <v>      -0.00117596      -0.00122055      -0.00117596 </v>
   <v>      -0.00073799      -0.00006785       0.00050987 </v>
   <v>       0.00085984       0.00217688       0.00085984 </v>
   <v>       0.00050987      -0.00006785      -0.00073799 </v>
   <v>       0.00199427      -0.00032257      -0.00067189 </v>
   <v>       0.00132920      -0.00005967       0.00117591 </v>
   <v>       0.00086779      -0.00058142      -0.00056613 </v>
   <v>      -0.00057708      -0.00095502      -0.00070477 </v>
   <v>       0.01287139       0.00168634       0.00200002 </v>
   <v>      -0.00375707      -0.00465407      -0.00375707 </v>
   <v>       0.00200002       0.00168634       0.01287139 </v>
   <v>      -0.00353010       0.00578637      -0.00353010 </v>
   <v>       0.01678053      -0.01491293       0.01678053 </v>
   <v>       0.01000292       0.00983809      -0.01061278 </v>
   <v>      -0.00975977      -0.01460650      -0.00975977 </v>
   <v>      -0.01061278       0.00983809       0.01000292 </v>
   <v>      -0.01172263       0.00796397       0.00967427 </v>
   <v>      -0.01429426      -0.01468854      -0.01605590 </v>
   <v>       0.01195475       0.01090791      -0.01238768 </v>
   <v>       0.01000102      -0.00687153       0.00600770 </v>
   <v>       0.01254197       0.01340958      -0.01195701 </v>
   <v>       0.01251056      -0.00901931       0.01251056 </v>
   <v>      -0.01195701       0.01340958       0.01254197 </v>
   <v>      -0.00620216      -0.00586122      -0.00620216 </v>
   <v>       0.00967427       0.00796397      -0.01172263 </v>
   <v>       0.00600770      -0.00687153       0.01000102 </v>
   <v>      -0.01238768       0.01090791       0.01195475 </v>
   <v>      -0.01605590      -0.01468854      -0.01429426 </v>
   <v>       0.00027220      -0.00003120      -0.00050439 </v>
   <v>      -0.00069005       0.00109512      -0.00069005 </v>
   <v>      -0.00050439      -0.00003120       0.00027220 </v>
   <v>       0.00051695      -0.00008184       0.00051695 </v>
   <v>       0.00206340       0.00318466      -0.00331994 </v>
   <v>      -0.00156316       0.00304905      -0.00156316 </v>
   <v>      -0.00331994       0.00318466       0.00206340 </v>
   <v>       0.00046950       0.00021437       0.00046950 </v>
  </varray>
  <varray name="stress" >
   <v>       0.81889066      -0.64369570      -8.91192064 </v>
   <v>      -0.64369636      -1.79030470      -0.64369636 </v>
   <v>      -8.91192064      -0.64369570       0.81889066 </v>
  </varray>
  <energy>
   <i name="e_fr_energy">   -271.99209177 </i>
   <i name="e_wo_entrp">   -271.99209177 </i>
   <i name="e_0_energy">   -271.99209177 </i>
  </energy>
  <time name="totalsc">   51.25   52.41</time>
 </calculation>
 <calculation>
  <scstep>
   <time name="dav">    1.66    1.68</time>
   <time name="total">    2.25    2.30</time>
   <energy>
    <i name="alphaZ">    295.66770067 </i>
    <i name="ewald">  -8723.98977763 </i>
    <i name="hartreedc">  -2267.63650813 </i>
    <i name="XCdc">    537.54530676 </i>
    <i name="pawpsdc">   9834.46357911 </i>
    <i name="pawaedc">  -9978.61625653 </i>
    <i name="eentropy">     -0.00000000 </i>
    <i name="bandstr">  -2659.24526054 </i>
    <i name="atom">  12703.13999606 </i>
    <i name="e_fr_energy">   -258.67122022 </i>
    <i name="e_wo_entrp">   -258.67122022 </i>
    <i name="e_0_energy">   -258.67122022 </i>
   </energy>
  </scstep>
  <scstep>
   <time name="diag">    0.28    0.28</time>
   <time name="diis">    0.90    0.91</time>
   <time name="orth">    0.05    0.05</time>
   <time name="total">    1.81    1.85</time>
   <energy>
    <i name="e_fr_energy">   -258.67122917 </i>
    <i name="e_wo_entrp">   -258.67122917 </i>
    <i name="e_0_energy">   -258.67122917 </i>
   </energy>
  </scstep>
  <scstep>
   <time name="diag">    0.27    0.27</time>
   <time name="diis">    0.98    0.99</time>
   <time name="orth">    0.05    0.05</time>
   <time name="total">    1.88    1.93</time>
   <energy>
    <i name="e_fr_energy">   -258.67123395 </i>
    <i name="e_wo_entrp">   -258.67123395 </i>
    <i name="e_0_energy">   -258.67123395 </i>
   </energy>
  </scstep>
  <scstep>
   <time name="diag">    0.27    0.27</time>
   <time name="diis">    0.91    0.92</time>
   <time name="orth">    0.05    0.05</time>
   <time name="total">    1.82    1.86</time>
   <energy>
    <i name="e_fr_energy">   -258.67123538 </i>
    <i name="e_wo_entrp">   -258.67123538 </i>
    <i name="e_0_energy">   -258.67123538 </i>
   </energy>
  </scstep>
  <scstep>
   <time name="diag">    0.27    0.27</time>
   <time name="diis">    0.62    0.62</time>
   <time name="orth">    0.05    0.05</time>
   <time name="total">    1.40    1.41</time>
   <energy>
    <i name="alphaZ">    295.66770067 </i>
    <i name="ewald">  -8723.98977763 </i>
    <i name="hartreedc">  -2267.59542894 </i>
    <i name="XCdc">    537.54300035 </i>
    <i name="pawpsdc">   9833.72566572 </i>
    <i name="pawaedc">  -9977.87494888 </i>
    <i name="eentropy">     -0.00000000 </i>
    <i name="bandstr">  -2659.28744283 </i>
    <i name="atom">  12703.13999606 </i>
    <i name="e_fr_energy">   -258.67123548 </i>
    <i name="e_wo_entrp">   -258.67123548 </i>
    <i name="e_0_energy">   -258.67123548 </i>
   </energy>
  </scstep>
  <structure>
   <crystal>
    <varray name="basis" >
     <v>       9.71924782       0.00000000       0.00000000 </v>
     <v>       0.00000000       9.71924782       0.00000000 </v>
     <v>       0.00000000       0.00000000       9.71924782 </v>
    </varray>
    <i name="volume">    918.11686925 </i>
    <varray name="rec_basis" >
     <v>       0.10288862       0.00000000       0.00000000 </v>
     <v>       0.00000000       0.10288862       0.00000000 </v>
     <v>       0.00000000       0.00000000       0.10288862 </v>
    </varray>
   </crystal>
   <varray name="positions" >
    <v>       0.97786361       0.30147028       0.29477739 </v>
    <v>       0.97487159       0.82281085       0.80030613 </v>
    <v>       0.02762863       0.21497642       0.77493838 </v>
    <v>       0.01468129       0.77873970       0.19354243 </v>
    <v>       0.30236324       0.31717989       0.98878398 </v>
    <v>       0.30349303       0.66589166       0.03453082 </v>
    <v>       0.81803674       0.17746746       0.02768453 </v>
    <v>       0.77926677       0.78571360       0.97500762 </v>
    <v>       0.19233890       0.97758272       0.16610293 </v>
    <v>       0.27077556       0.03194942       0.77077553 </v>
    <v>       0.66610296       0.97758272       0.69233887 </v>
    <v>       0.77075060       0.01797183       0.27075057 </v>
    <v>       0.30030616       0.82281085       0.47487156 </v>
    <v>       0.27493841       0.21497642       0.52762860 </v>
    <v>       0.69354246       0.77873970       0.51468126 </v>
    <v>       0.79477742       0.30147028       0.47786358 </v>
    <v>       0.17939423       0.48006688       0.67939420 </v>
    <v>       0.18154935       0.53644793       0.32912683 </v>
    <v>       0.65894007       0.45410950       0.15894004 </v>
    <v>       0.82912686       0.53644793       0.68154932 </v>
    <v>       0.48878401       0.31717989       0.80236321 </v>
    <v>       0.47500765       0.78571360       0.27926673 </v>
    <v>       0.52768456       0.17746746       0.31803671 </v>
    <v>       0.53453365       0.66589251       0.80349739 </v>
    <v>       0.49701198       0.49884038       0.49176859 </v>
    <v>       0.50372376       0.99967630       0.00372373 </v>
    <v>       0.99176863       0.49884038       0.99701195 </v>
    <v>       0.00108719       0.99342230       0.50108716 </v>
    <v>       0.13194294       0.89054800       0.63194291 </v>
    <v>       0.11803027       0.11125283       0.37038916 </v>
    <v>       0.89125242       0.85122468       0.39125239 </v>
    <v>       0.87038919       0.11125283       0.61803024 </v>
    <v>       0.86064891       0.60779577       0.12045514 </v>
    <v>       0.87370625       0.37208005       0.87595943 </v>
    <v>       0.11000780       0.62483737       0.87521698 </v>
    <v>       0.12057555       0.38929188       0.12437452 </v>
    <v>       0.62244001       0.12304131       0.88060884 </v>
    <v>       0.62840358       0.88376841       0.12840355 </v>
    <v>       0.38060887       0.12304131       0.12243998 </v>
    <v>       0.38904539       0.86404933       0.88904536 </v>
    <v>       0.62045517       0.60779577       0.36064888 </v>
    <v>       0.62437455       0.38929188       0.62057552 </v>
    <v>       0.37521701       0.62483737       0.61000777 </v>
    <v>       0.37595946       0.37208005       0.37370622 </v>
    <v>       0.74956498       0.75503605       0.74413419 </v>
    <v>       0.74947538       0.24781311       0.24947535 </v>
    <v>       0.24413422       0.75503605       0.24956495 </v>
    <v>       0.25757693       0.26330464       0.75757690 </v>
    <v>       0.98207530       0.97203022       0.01171995 </v>
    <v>       0.99945000       0.46268210       0.49944997 </v>
    <v>       0.51171998       0.97203022       0.48207527 </v>
    <v>       0.48259649       0.49443985       0.98259646 </v>
   </varray>
  </structure>
  <varray name="forces" >
   <v>      -0.00086758       0.00037179       0.00078859 </v>
   <v>      -0.00032942      -0.00024604       0.00070221 </v>
   <v>      -0.00026305      -0.00263620       0.00122401 </v>
   <v>      -0.00198522       0.00019142      -0.00082196 </v>
   <v>      -0.00013102      -0.00019856       0.00111935 </v>
   <v>      -0.00058169      -0.00089478      -0.00049219 </v>
   <v>      -0.00041477      -0.00041847       0.00043174 </v>
   <v>       0.00100172       0.00023153       0.00064980 </v>
   <v>      -0.00118404       0.00059262      -0.00007939 </v>
   <v>       0.00117957      -0.00239585       0.00117957 </v>
   <v>      -0.00007939       0.00059262      -0.00118404 </v>
   <v>      -0.00097514       0.00030134      -0.00097514 </v>
   <v>       0.00070221      -0.00024604      -0.00032942 </v>
   <v>       0.00122401      -0.00263620      -0.00026305 </v>
   <v>      -0.00082196       0.00019142      -0.00198522 </v>
   <v>       0.00078859       0.00037179      -0.00086758 </v>
   <v>      -0.00120577      -0.00119642      -0.00120577 </v>
   <v>      -0.00047343      -0.00000845       0.00074117 </v>
   <v>       0.00040100       0.00162511       0.00040100 </v>
   <v>       0.00074117      -0.00000845      -0.00047343 </v>
   <v>       0.00111935      -0.00019856      -0.00013102 </v>
   <v>       0.00064980       0.00023153       0.00100172 </v>
   <v>       0.00043174      -0.00041847      -0.00041477 </v>
   <v>      -0.00049219      -0.00089478      -0.00058169 </v>
   <v>       0.00527465      -0.00071164       0.00084438 </v>
   <v>      -0.00082220      -0.00010630      -0.00082220 </v>
   <v>       0.00084438      -0.00071164       0.00527465 </v>
   <v>      -0.00056092       0.00113281      -0.00056092 </v>
   <v>       0.00920143      -0.00871828       0.00920143 </v>
   <v>       0.00613454       0.00620753      -0.00662937 </v>
   <v>      -0.00567445      -0.00868300      -0.00567445 </v>
   <v>      -0.00662937       0.00620753       0.00613454 </v>
   <v>      -0.00793050       0.00504805       0.00665208 </v>
   <v>      -0.00770673      -0.00740438      -0.00875614 </v>
   <v>       0.00671462       0.00574937      -0.00664702 </v>
   <v>       0.00682443      -0.00435139       0.00429961 </v>
   <v>       0.00725153       0.00781333      -0.00658207 </v>
   <v>       0.00729314      -0.00457323       0.00729314 </v>
   <v>      -0.00658207       0.00781333       0.00725153 </v>
   <v>      -0.00409728      -0.00401451      -0.00409728 </v>
   <v>       0.00665208       0.00504805      -0.00793050 </v>
   <v>       0.00429961      -0.00435139       0.00682443 </v>
   <v>      -0.00664702       0.00574937       0.00671462 </v>
   <v>      -0.00875614      -0.00740438      -0.00770673 </v>
   <v>       0.00002536       0.00014413      -0.00050504 </v>
   <v>      -0.00044200       0.00094820      -0.00044200 </v>
   <v>      -0.00050504       0.00014413       0.00002536 </v>
   <v>       0.00044806      -0.00039839       0.00044806 </v>
   <v>       0.00165450       0.00240814      -0.00281952 </v>
   <v>      -0.00161488       0.00204992      -0.00161488 </v>
   <v>      -0.00281952       0.00240814       0.00165450 </v>
   <v>      -0.00026470       0.00025261      -0.00026470 </v>
  </varray>
  <varray name="stress" >
   <v>       0.69793496      -0.65275277      -8.91436443 </v>
   <v>      -0.65275342      -1.90981276      -0.65275342 </v>
   <v>      -8.91436443      -0.65275277       0.69793496 </v>
  </varray>
  <energy>
   <i name="e_fr_energy">   -271.99219667 </i>
   <i name="e_wo_entrp">   -271.99219667 </i>
   <i name="e_0_energy">   -271.99219667 </i>
  </energy>
  <time name="totalsc">   11.91   12.15</time>
 </calculation>
 <calculation>
  <scstep>
   <time name="dav">    1.77    1.78</time>
   <time name="total">    2.35    2.39</time>
   <energy>
    <i name="alphaZ">    295.66770067 </i>
    <i name="ewald">  -8724.61108494 </i>
    <i name="hartreedc">  -2267.11240547 </i>
    <i name="XCdc">    537.52874245 </i>
    <i name="pawpsdc">   9833.67002271 </i>
    <i name="pawaedc">  -9977.81865796 </i>
    <i name="eentropy">     -0.00000000 </i>
    <i name="bandstr">  -2659.13552862 </i>
    <i name="atom">  12703.13999606 </i>
    <i name="e_fr_energy">   -258.67121509 </i>
    <i name="e_wo_entrp">   -258.67121509 </i>
    <i name="e_0_energy">   -258.67121509 </i>
   </energy>
  </scstep>
  <scstep>
   <time name="diag">    0.29    0.30</time>
   <time name="diis">    0.90    0.91</time>
   <time name="orth">    0.05    0.05</time>
   <time name="total">    1.81    1.85</time>
   <energy>
    <i name="e_fr_energy">   -258.67123164 </i>
    <i name="e_wo_entrp">   -258.67123164 </i>
    <i name="e_0_energy">   -258.67123164 </i>
   </energy>
  </scstep>
  <scstep>
   <time name="diag">    0.27    0.27</time>
   <time name="diis">    0.99    1.00</time>
   <time name="orth">    0.05    0.05</time>
   <time name="total">    1.89    1.93</time>
   <energy>
    <i name="e_fr_energy">   -258.67123979 </i>
    <i name="e_wo_entrp">   -258.67123979 </i>
    <i name="e_0_energy">   -258.67123979 </i>
   </energy>
  </scstep>
  <scstep>
   <time name="diag">    0.27    0.27</time>
   <time name="diis">    0.99    1.00</time>
   <time name="orth">    0.05    0.05</time>
   <time name="total">    1.90    1.92</time>
   <energy>
    <i name="e_fr_energy">   -258.67124201 </i>
    <i name="e_wo_entrp">   -258.67124201 </i>
    <i name="e_0_energy">   -258.67124201 </i>
   </energy>
  </scstep>
  <scstep>
   <time name="diag">    0.27    0.27</time>
   <time name="diis">    0.67    0.68</time>
   <time name="orth">    0.05    0.05</time>
   <time name="total">    1.46    1.47</time>
   <energy>
    <i name="alphaZ">    295.66770067 </i>
    <i name="ewald">  -8724.61108494 </i>
    <i name="hartreedc">  -2267.05376690 </i>
    <i name="XCdc">    537.52597880 </i>
    <i name="pawpsdc">   9832.70112138 </i>
    <i name="pawaedc">  -9976.84589315 </i>
    <i name="eentropy">     -0.00000000 </i>
    <i name="bandstr">  -2659.19529409 </i>
    <i name="atom">  12703.13999606 </i>
    <i name="e_fr_energy">   -258.67124216 </i>
    <i name="e_wo_entrp">   -258.67124216 </i>
    <i name="e_0_energy">   -258.67124216 </i>
   </energy>
  </scstep>
  <structure>
   <crystal>
    <varray name="basis" >
     <v>       9.71924782       0.00000000       0.00000000 </v>
     <v>       0.00000000       9.71924782       0.00000000 </v>
     <v>       0.00000000       0.00000000       9.71924782 </v>
    </varray>
    <i name="volume">    918.11686925 </i>
    <varray name="rec_basis" >
     <v>       0.10288862       0.00000000       0.00000000 </v>
     <v>       0.00000000       0.10288862       0.00000000 </v>
     <v>       0.00000000       0.00000000       0.10288862 </v>
    </varray>
   </crystal>
   <varray name="positions" >
    <v>       0.97786109       0.30147062       0.29477959 </v>
    <v>       0.97487037       0.82280954       0.80030842 </v>
    <v>       0.02762700       0.21496880       0.77494125 </v>
    <v>       0.01467429       0.77873931       0.19354064 </v>
    <v>       0.30236147       0.31717905       0.98878921 </v>
    <v>       0.30349118       0.66588915       0.03452930 </v>
    <v>       0.81803526       0.17746593       0.02768681 </v>
    <v>       0.77926985       0.78571345       0.97501111 </v>
    <v>       0.19233557       0.97758469       0.16610338 </v>
    <v>       0.27077939       0.03194007       0.77077936 </v>
    <v>       0.66610342       0.97758469       0.69233554 </v>
    <v>       0.77074697       0.01797215       0.27074694 </v>
    <v>       0.30030845       0.82280954       0.47487034 </v>
    <v>       0.27494128       0.21496880       0.52762697 </v>
    <v>       0.69354067       0.77873931       0.51467426 </v>
    <v>       0.79477962       0.30147062       0.47786106 </v>
    <v>       0.17939115       0.48006368       0.67939111 </v>
    <v>       0.18154741       0.53644775       0.32912817 </v>
    <v>       0.65894233       0.45411521       0.15894230 </v>
    <v>       0.82912820       0.53644775       0.68154738 </v>
    <v>       0.48878924       0.31717905       0.80236144 </v>
    <v>       0.47501114       0.78571345       0.27926982 </v>
    <v>       0.52768684       0.17746593       0.31803523 </v>
    <v>       0.53453213       0.66589001       0.80349554 </v>
    <v>       0.49704577       0.49884481       0.49177384 </v>
    <v>       0.50371390       0.99966408       0.00371387 </v>
    <v>       0.99177388       0.49884481       0.99704574 </v>
    <v>       0.00107793       0.99343749       0.50107789 </v>
    <v>       0.13198698       0.89050885       0.63198695 </v>
    <v>       0.11805653       0.11127865       0.37036130 </v>
    <v>       0.89122680       0.85118634       0.39122677 </v>
    <v>       0.87036133       0.11127865       0.61805650 </v>
    <v>       0.86061814       0.60781668       0.12048054 </v>
    <v>       0.87366873       0.37204150       0.87591728 </v>
    <v>       0.11003918       0.62486601       0.87518446 </v>
    <v>       0.12060180       0.38927385       0.12439029 </v>
    <v>       0.62247293       0.12307651       0.88057746 </v>
    <v>       0.62843642       0.88374474       0.12843639 </v>
    <v>       0.38057749       0.12307651       0.12247290 </v>
    <v>       0.38902911       0.86403394       0.88902908 </v>
    <v>       0.62048057       0.60781668       0.36061811 </v>
    <v>       0.62439032       0.38927385       0.62060177 </v>
    <v>       0.37518449       0.62486601       0.61003914 </v>
    <v>       0.37591731       0.37204150       0.37366870 </v>
    <v>       0.74956569       0.75503597       0.74413287 </v>
    <v>       0.74947357       0.24781599       0.24947354 </v>
    <v>       0.24413290       0.75503597       0.24956566 </v>
    <v>       0.25757829       0.26330443       0.75757826 </v>
    <v>       0.98208072       0.97203858       0.01171124 </v>
    <v>       0.99944590       0.46269010       0.49944587 </v>
    <v>       0.51171127       0.97203858       0.48208069 </v>
    <v>       0.48259773       0.49444041       0.98259770 </v>
   </varray>
  </structure>
  <varray name="forces" >
   <v>      -0.00076337       0.00062387       0.00088559 </v>
   <v>      -0.00015348      -0.00006390       0.00068768 </v>
   <v>       0.00030648      -0.00253054       0.00156392 </v>
   <v>      -0.00122077       0.00051723      -0.00097429 </v>
   <v>       0.00057586      -0.00012003       0.00027598 </v>
   <v>      -0.00041368      -0.00096896      -0.00032736 </v>
   <v>      -0.00017527      -0.00033302       0.00014231 </v>
   <v>       0.00111679       0.00050411       0.00008583 </v>
   <v>      -0.00110389       0.00036214      -0.00024839 </v>
   <v>       0.00104147      -0.00116991       0.00104147 </v>
   <v>      -0.00024839       0.00036214      -0.00110389 </v>
   <v>      -0.00055028       0.00057400      -0.00055028 </v>
   <v>       0.00068768      -0.00006390      -0.00015348 </v>
   <v>       0.00156392      -0.00253054       0.00030648 </v>
   <v>      -0.00097429       0.00051723      -0.00122077 </v>
   <v>       0.00088559       0.00062387      -0.00076337 </v>
   <v>      -0.00116187      -0.00131924      -0.00116187 </v>
   <v>      -0.00018844       0.00001278       0.00118460 </v>
   <v>       0.00001567       0.00106598       0.00001567 </v>
   <v>       0.00118460       0.00001278      -0.00018844 </v>
   <v>       0.00027598      -0.00012003       0.00057586 </v>
   <v>       0.00008583       0.00050411       0.00111679 </v>
   <v>       0.00014231      -0.00033302      -0.00017527 </v>
   <v>      -0.00032736      -0.00096896      -0.00041368 </v>
   <v>      -0.00634820      -0.00251316      -0.00205799 </v>
   <v>       0.00254037       0.00368469       0.00254037 </v>
   <v>      -0.00205799      -0.00251316      -0.00634820 </v>
   <v>       0.00114613      -0.00429373       0.00114613 </v>
   <v>      -0.00055459      -0.00096075      -0.00055459 </v>
   <v>       0.00137304       0.00141935      -0.00157507 </v>
   <v>      -0.00024641      -0.00140299      -0.00024641 </v>
   <v>      -0.00157507       0.00141935       0.00137304 </v>
   <v>      -0.00319223       0.00109310       0.00307936 </v>
   <v>       0.00072263       0.00206059       0.00087649 </v>
   <v>       0.00008835      -0.00096890       0.00079125 </v>
   <v>       0.00289940      -0.00125800       0.00233793 </v>
   <v>       0.00064956       0.00066871       0.00046314 </v>
   <v>       0.00071028       0.00098652       0.00071028 </v>
   <v>       0.00046314       0.00066871       0.00064956 </v>
   <v>      -0.00129239      -0.00190617      -0.00129239 </v>
   <v>       0.00307936       0.00109310      -0.00319223 </v>
   <v>       0.00233793      -0.00125800       0.00289940 </v>
   <v>       0.00079125      -0.00096890       0.00008835 </v>
   <v>       0.00087649       0.00206059       0.00072263 </v>
   <v>      -0.00019715       0.00022587      -0.00048765 </v>
   <v>      -0.00009891       0.00099065      -0.00009891 </v>
   <v>      -0.00048765       0.00022587      -0.00019715 </v>
   <v>       0.00054446      -0.00076202       0.00054446 </v>
   <v>       0.00173251       0.00233154      -0.00255963 </v>
   <v>      -0.00180371       0.00197282      -0.00180371 </v>
   <v>      -0.00255963       0.00233154       0.00173251 </v>
   <v>      -0.00014205       0.00041460      -0.00014205 </v>
  </varray>
  <varray name="stress" >
   <v>       0.54453056      -0.66060816      -8.92126077 </v>
   <v>      -0.66060899      -2.05820081      -0.66060899 </v>
   <v>      -8.92126077      -0.66060816       0.54453056 </v>
  </varray>
  <energy>
   <i name="e_fr_energy">   -271.99224773 </i>
   <i name="e_wo_entrp">   -271.99224773 </i>
   <i name="e_0_energy">   -271.99224773 </i>
  </energy>
  <time name="totalsc">   12.14   12.34</time>
 </calculation>
 <calculation>
  <scstep>
   <time name="dav">    1.70    1.71</time>
   <time name="total">    2.27    2.30</time>
   <energy>
    <i name="alphaZ">    295.66770067 </i>
    <i name="ewald">  -8724.63303136 </i>
    <i name="hartreedc">  -2267.03692424 </i>
    <i name="XCdc">    537.52541683 </i>
    <i name="pawpsdc">   9832.67048297 </i>
    <i name="pawaedc">  -9976.81492392 </i>
    <i name="eentropy">     -0.00000000 </i>
    <i name="bandstr">  -2659.18995780 </i>
    <i name="atom">  12703.13999606 </i>
    <i name="e_fr_energy">   -258.67124078 </i>
    <i name="e_wo_entrp">   -258.67124078 </i>
    <i name="e_0_energy">   -258.67124078 </i>
   </energy>
  </scstep>
  <scstep>
   <time name="diag">    0.28    0.28</time>
   <time name="diis">    0.57    0.58</time>
   <time name="orth">    0.05    0.05</time>
   <time name="total">    1.36    1.37</time>
   <energy>
    <i name="alphaZ">    295.66770067 </i>
    <i name="ewald">  -8724.63303136 </i>
    <i name="hartreedc">  -2267.03510225 </i>
    <i name="XCdc">    537.52526646 </i>
    <i name="pawpsdc">   9832.63866934 </i>
    <i name="pawaedc">  -9976.78298226 </i>
    <i name="eentropy">     -0.00000000 </i>
    <i name="bandstr">  -2659.19175733 </i>
    <i name="atom">  12703.13999606 </i>
    <i name="e_fr_energy">   -258.67124067 </i>
    <i name="e_wo_entrp">   -258.67124067 </i>
    <i name="e_0_energy">   -258.67124067 </i>
   </energy>
  </scstep>
  <structure>
   <crystal>
    <varray name="basis" >
     <v>       9.71924782       0.00000000       0.00000000 </v>
     <v>       0.00000000       9.71924782       0.00000000 </v>
     <v>       0.00000000       0.00000000       9.71924782 </v>
    </varray>
    <i name="volume">    918.11686925 </i>
    <varray name="rec_basis" >
     <v>       0.10288862       0.00000000       0.00000000 </v>
     <v>       0.00000000       0.10288862       0.00000000 </v>
     <v>       0.00000000       0.00000000       0.10288862 </v>
    </varray>
   </crystal>
   <varray name="positions" >
    <v>       0.97786100       0.30147064       0.29477967 </v>
    <v>       0.97487033       0.82280949       0.80030850 </v>
    <v>       0.02762694       0.21496853       0.77494135 </v>
    <v>       0.01467404       0.77873929       0.19354057 </v>
    <v>       0.30236141       0.31717902       0.98878940 </v>
    <v>       0.30349111       0.66588906       0.03452925 </v>
    <v>       0.81803520       0.17746588       0.02768689 </v>
    <v>       0.77926996       0.78571344       0.97501123 </v>
    <v>       0.19233545       0.97758476       0.16610340 </v>
    <v>       0.27077952       0.03193974       0.77077949 </v>
    <v>       0.66610343       0.97758476       0.69233542 </v>
    <v>       0.77074684       0.01797216       0.27074681 </v>
    <v>       0.30030853       0.82280949       0.47487030 </v>
    <v>       0.27494138       0.21496853       0.52762691 </v>
    <v>       0.69354060       0.77873929       0.51467401 </v>
    <v>       0.79477970       0.30147064       0.47786097 </v>
    <v>       0.17939104       0.48006357       0.67939101 </v>
    <v>       0.18154735       0.53644774       0.32912822 </v>
    <v>       0.65894241       0.45411541       0.15894238 </v>
    <v>       0.82912825       0.53644774       0.68154731 </v>
    <v>       0.48878943       0.31717902       0.80236138 </v>
    <v>       0.47501126       0.78571344       0.27926993 </v>
    <v>       0.52768692       0.17746588       0.31803517 </v>
    <v>       0.53453208       0.66588992       0.80349548 </v>
    <v>       0.49704696       0.49884497       0.49177403 </v>
    <v>       0.50371355       0.99966365       0.00371352 </v>
    <v>       0.99177406       0.49884497       0.99704693 </v>
    <v>       0.00107760       0.99343803       0.50107757 </v>
    <v>       0.13198854       0.89050747       0.63198851 </v>
    <v>       0.11805746       0.11127956       0.37036032 </v>
    <v>       0.89122590       0.85118498       0.39122587 </v>
    <v>       0.87036035       0.11127956       0.61805743 </v>
    <v>       0.86061705       0.60781742       0.12048143 </v>
    <v>       0.87366741       0.37204014       0.87591579 </v>
    <v>       0.11004029       0.62486702       0.87518331 </v>
    <v>       0.12060273       0.38927321       0.12439085 </v>
    <v>       0.62247410       0.12307775       0.88057635 </v>
    <v>       0.62843758       0.88374390       0.12843755 </v>
    <v>       0.38057638       0.12307775       0.12247407 </v>
    <v>       0.38902853       0.86403340       0.88902850 </v>
    <v>       0.62048146       0.60781742       0.36061702 </v>
    <v>       0.62439088       0.38927321       0.62060270 </v>
    <v>       0.37518334       0.62486702       0.61004025 </v>
    <v>       0.37591582       0.37204014       0.37366738 </v>
    <v>       0.74956572       0.75503597       0.74413282 </v>
    <v>       0.74947351       0.24781609       0.24947348 </v>
    <v>       0.24413285       0.75503597       0.24956569 </v>
    <v>       0.25757834       0.26330442       0.75757831 </v>
    <v>       0.98208091       0.97203888       0.01171093 </v>
    <v>       0.99944575       0.46269039       0.49944572 </v>
    <v>       0.51171096       0.97203888       0.48208088 </v>
    <v>       0.48259777       0.49444043       0.98259774 </v>
   </varray>
  </structure>
  <varray name="forces" >
   <v>      -0.00070904       0.00064625       0.00086004 </v>
   <v>      -0.00022520      -0.00010016       0.00079813 </v>
   <v>       0.00028519      -0.00267264       0.00163007 </v>
   <v>      -0.00104985       0.00055691      -0.00093585 </v>
   <v>       0.00060363      -0.00009905       0.00026243 </v>
   <v>      -0.00049583      -0.00107360      -0.00039340 </v>
   <v>      -0.00021828      -0.00036870       0.00023816 </v>
   <v>       0.00107027       0.00053048       0.00002048 </v>
   <v>      -0.00127471       0.00046162      -0.00021016 </v>
   <v>       0.00113807      -0.00131387       0.00113807 </v>
   <v>      -0.00021016       0.00046162      -0.00127471 </v>
   <v>      -0.00045797       0.00058844      -0.00045797 </v>
   <v>       0.00079813      -0.00010016      -0.00022520 </v>
   <v>       0.00163007      -0.00267264       0.00028519 </v>
   <v>      -0.00093585       0.00055691      -0.00104985 </v>
   <v>       0.00086004       0.00064625      -0.00070904 </v>
   <v>      -0.00124001      -0.00139499      -0.00124001 </v>
   <v>      -0.00028654       0.00002751       0.00124781 </v>
   <v>       0.00005505       0.00119075       0.00005505 </v>
   <v>       0.00124781       0.00002751      -0.00028654 </v>
   <v>       0.00026243      -0.00009905       0.00060363 </v>
   <v>       0.00002048       0.00053048       0.00107027 </v>
   <v>       0.00023816      -0.00036870      -0.00021828 </v>
   <v>      -0.00039340      -0.00107360      -0.00049583 </v>
   <v>      -0.00688771      -0.00259078      -0.00217634 </v>
   <v>       0.00271964       0.00396846       0.00271964 </v>
   <v>      -0.00217634      -0.00259078      -0.00688771 </v>
   <v>       0.00134650      -0.00456958       0.00134650 </v>
   <v>      -0.00104436      -0.00057686      -0.00104436 </v>
   <v>       0.00121358       0.00127518      -0.00141015 </v>
   <v>      -0.00001727      -0.00108597      -0.00001727 </v>
   <v>      -0.00141015       0.00127518       0.00121358 </v>
   <v>      -0.00308219       0.00101685       0.00297985 </v>
   <v>       0.00113667       0.00255279       0.00131599 </v>
   <v>      -0.00021958      -0.00127990       0.00110374 </v>
   <v>       0.00282039      -0.00119107       0.00231429 </v>
   <v>       0.00037849       0.00038452       0.00077430 </v>
   <v>       0.00044962       0.00123540       0.00044962 </v>
   <v>       0.00077430       0.00038452       0.00037849 </v>
   <v>      -0.00120904      -0.00188327      -0.00120904 </v>
   <v>       0.00297985       0.00101685      -0.00308219 </v>
   <v>       0.00231429      -0.00119107       0.00282039 </v>
   <v>       0.00110374      -0.00127990      -0.00021958 </v>
   <v>       0.00131599       0.00255279       0.00113667 </v>
   <v>      -0.00021786       0.00024870      -0.00047975 </v>
   <v>      -0.00007507       0.00101563      -0.00007507 </v>
   <v>      -0.00047975       0.00024870      -0.00021786 </v>
   <v>       0.00055539      -0.00075047       0.00055539 </v>
   <v>       0.00170425       0.00226989      -0.00248922 </v>
   <v>      -0.00179397       0.00197410      -0.00179397 </v>
   <v>      -0.00248922       0.00226989       0.00170425 </v>
   <v>      -0.00042271       0.00041261      -0.00042271 </v>
  </varray>
  <varray name="stress" >
   <v>       0.53910871      -0.66104193      -8.92123008 </v>
   <v>      -0.66104261      -2.06418555      -0.66104261 </v>
   <v>      -8.92123008      -0.66104193       0.53910871 </v>
  </varray>
  <energy>
   <i name="e_fr_energy">   -271.99224781 </i>
   <i name="e_wo_entrp">   -271.99224781 </i>
   <i name="e_0_energy">   -271.99224781 </i>
  </energy>
  <time name="totalsc">    6.37    6.47</time>
 </calculation>
 <calculation>
  <scstep>
   <time name="dav">    1.76    1.78</time>
   <time name="total">    2.33    2.35</time>
   <energy>
    <i name="alphaZ">    295.66770067 </i>
    <i name="ewald">  -8724.71035760 </i>
    <i name="hartreedc">  -2266.97195774 </i>
    <i name="XCdc">    537.52364743 </i>
    <i name="pawpsdc">   9832.61866908 </i>
    <i name="pawaedc">  -9976.76285106 </i>
    <i name="eentropy">     -0.00000000 </i>
    <i name="bandstr">  -2659.17608877 </i>
    <i name="atom">  12703.13999606 </i>
    <i name="e_fr_energy">   -258.67124192 </i>
    <i name="e_wo_entrp">   -258.67124192 </i>
    <i name="e_0_energy">   -258.67124192 </i>
   </energy>
  </scstep>
  <scstep>
   <time name="diag">    0.28    0.28</time>
   <time name="diis">    0.93    0.94</time>
   <time name="orth">    0.05    0.05</time>
   <time name="total">    1.82    1.83</time>
   <energy>
    <i name="e_fr_energy">   -258.67124305 </i>
    <i name="e_wo_entrp">   -258.67124305 </i>
    <i name="e_0_energy">   -258.67124305 </i>
   </energy>
  </scstep>
  <scstep>
   <time name="diag">    0.27    0.27</time>
   <time name="diis">    0.82    0.82</time>
   <time name="orth">    0.05    0.05</time>
   <time name="total">    1.61    1.62</time>
   <energy>
    <i name="alphaZ">    295.66770067 </i>
    <i name="ewald">  -8724.71035760 </i>
    <i name="hartreedc">  -2266.96583159 </i>
    <i name="XCdc">    537.52329464 </i>
    <i name="pawpsdc">   9832.50692334 </i>
    <i name="pawaedc">  -9976.65067032 </i>
    <i name="eentropy">     -0.00000000 </i>
    <i name="bandstr">  -2659.18229863 </i>
    <i name="atom">  12703.13999606 </i>
    <i name="e_fr_energy">   -258.67124343 </i>
    <i name="e_wo_entrp">   -258.67124343 </i>
    <i name="e_0_energy">   -258.67124343 </i>
   </energy>
  </scstep>
  <structure>
   <crystal>
    <varray name="basis" >
     <v>       9.71924782       0.00000000       0.00000000 </v>
     <v>       0.00000000       9.71924782       0.00000000 </v>
     <v>       0.00000000       0.00000000       9.71924782 </v>
    </varray>
    <i name="volume">    918.11686925 </i>
    <varray name="rec_basis" >
     <v>       0.10288862       0.00000000       0.00000000 </v>
     <v>       0.00000000       0.10288862       0.00000000 </v>
     <v>       0.00000000       0.00000000       0.10288862 </v>
    </varray>
   </crystal>
   <varray name="positions" >
    <v>       0.97785907       0.30147229       0.29478197 </v>
    <v>       0.97486969       0.82280917       0.80031065 </v>
    <v>       0.02762757       0.21496134       0.77494564 </v>
    <v>       0.01467099       0.77874068       0.19353811 </v>
    <v>       0.30236284       0.31717872       0.98879036 </v>
    <v>       0.30348975       0.66588620       0.03452817 </v>
    <v>       0.81803457       0.17746486       0.02768762 </v>
    <v>       0.77927284       0.78571478       0.97501148 </v>
    <v>       0.19233204       0.97758604       0.16610289 </v>
    <v>       0.27078262       0.03193589       0.77078258 </v>
    <v>       0.66610293       0.97758604       0.69233201 </v>
    <v>       0.77074548       0.01797366       0.27074544 </v>
    <v>       0.30031068       0.82280917       0.47486966 </v>
    <v>       0.27494567       0.21496134       0.52762754 </v>
    <v>       0.69353814       0.77874068       0.51467096 </v>
    <v>       0.79478200       0.30147229       0.47785903 </v>
    <v>       0.17938773       0.48005986       0.67938770 </v>
    <v>       0.18154651       0.53644780       0.32913145 </v>
    <v>       0.65894268       0.45411875       0.15894265 </v>
    <v>       0.82913148       0.53644780       0.68154648 </v>
    <v>       0.48879039       0.31717872       0.80236281 </v>
    <v>       0.47501151       0.78571478       0.27927281 </v>
    <v>       0.52768765       0.17746486       0.31803454 </v>
    <v>       0.53453100       0.66588706       0.80349412 </v>
    <v>       0.49703146       0.49883866       0.49176882 </v>
    <v>       0.50371987       0.99967300       0.00371984 </v>
    <v>       0.99176885       0.49883866       0.99703142 </v>
    <v>       0.00108048       0.99342733       0.50108045 </v>
    <v>       0.13198839       0.89050380       0.63198836 </v>
    <v>       0.11806201       0.11128425       0.37035518 </v>
    <v>       0.89122441       0.85118007       0.39122438 </v>
    <v>       0.87035521       0.11128425       0.61806198 </v>
    <v>       0.86060752       0.60782117       0.12049040 </v>
[...]
   <v>       0.00066784      -0.00037261      -0.00028839 </v>
   <v>      -0.00035418      -0.00120487      -0.00035418 </v>
   <v>      -0.00071981      -0.00006663      -0.00024876 </v>
   <v>      -0.00011674       0.00047842       0.00040941 </v>
   <v>      -0.00028952      -0.00079114       0.00031238 </v>
   <v>      -0.00055443       0.00048448       0.00005410 </v>
   <v>      -0.00018843       0.00019755      -0.00022668 </v>
   <v>       0.00014649       0.00070944       0.00014649 </v>
   <v>      -0.00022668       0.00019755      -0.00018843 </v>
   <v>       0.00010249      -0.00061281       0.00010249 </v>
   <v>       0.00057334       0.00104007      -0.00137802 </v>
   <v>      -0.00085891       0.00051165      -0.00085891 </v>
   <v>      -0.00137802       0.00104007       0.00057334 </v>
   <v>      -0.00029206       0.00018091      -0.00029206 </v>
  </varray>
  <varray name="stress" >
   <v>       0.48873791      -0.64040103      -8.91416666 </v>
   <v>      -0.64040185      -2.12784839      -0.64040185 </v>
   <v>      -8.91416666      -0.64040103       0.48873791 </v>
  </varray>
  <energy>
   <i name="e_fr_energy">   -271.99231745 </i>
   <i name="e_wo_entrp">   -271.99231745 </i>
   <i name="e_0_energy">   -271.99231745 </i>
  </energy>
  <time name="totalsc">    5.52    5.59</time>
 </calculation>
 <calculation>
  <scstep>
   <time name="dav">    1.02    1.03</time>
   <time name="total">    1.59    1.60</time>
   <energy>
    <i name="alphaZ">    295.66770067 </i>
    <i name="ewald">  -8725.16349858 </i>
    <i name="hartreedc">  -2266.52210032 </i>
    <i name="XCdc">    537.51808196 </i>
    <i name="pawpsdc">   9832.08643011 </i>
    <i name="pawaedc">  -9976.22803459 </i>
    <i name="eentropy">     -0.00000000 </i>
    <i name="bandstr">  -2659.16990476 </i>
    <i name="atom">  12703.13999606 </i>
    <i name="e_fr_energy">   -258.67132944 </i>
    <i name="e_wo_entrp">   -258.67132944 </i>
    <i name="e_0_energy">   -258.67132944 </i>
   </energy>
  </scstep>
  <scstep>
   <time name="diag">    0.27    0.27</time>
   <time name="diis">    0.26    0.26</time>
   <time name="orth">    0.05    0.05</time>
   <time name="total">    1.04    1.05</time>
   <energy>
    <i name="alphaZ">    295.66770067 </i>
    <i name="ewald">  -8725.16349858 </i>
    <i name="hartreedc">  -2266.52210078 </i>
    <i name="XCdc">    537.51808225 </i>
    <i name="pawpsdc">   9832.08647284 </i>
    <i name="pawaedc">  -9976.22807795 </i>
    <i name="eentropy">     -0.00000000 </i>
    <i name="bandstr">  -2659.16990395 </i>
    <i name="atom">  12703.13999606 </i>
    <i name="e_fr_energy">   -258.67132944 </i>
    <i name="e_wo_entrp">   -258.67132944 </i>
    <i name="e_0_energy">   -258.67132944 </i>
   </energy>
  </scstep>
  <structure>
   <crystal>
    <varray name="basis" >
     <v>       9.71924782       0.00000000       0.00000000 </v>
     <v>       0.00000000       9.71924782       0.00000000 </v>
     <v>       0.00000000       0.00000000       9.71924782 </v>
    </varray>
    <i name="volume">    918.11686925 </i>
    <varray name="rec_basis" >
     <v>       0.10288862       0.00000000       0.00000000 </v>
     <v>       0.00000000       0.10288862       0.00000000 </v>
     <v>       0.00000000       0.00000000       0.10288862 </v>
    </varray>
   </crystal>
   <varray name="positions" >
    <v>       0.97784528       0.30151009       0.29481423 </v>
    <v>       0.97485657       0.82278755       0.80032462 </v>
    <v>       0.02763896       0.21471382       0.77514614 </v>
    <v>       0.01462314       0.77876012       0.19347624 </v>
    <v>       0.30237549       0.31718129       0.98880276 </v>
    <v>       0.30345515       0.66583231       0.03453032 </v>
    <v>       0.81803134       0.17747858       0.02769999 </v>
    <v>       0.77927497       0.78574050       0.97500308 </v>
    <v>       0.19228952       0.97764057       0.16608270 </v>
    <v>       0.27082929       0.03184595       0.77082925 </v>
    <v>       0.66608273       0.97764057       0.69228949 </v>
    <v>       0.77078633       0.01804339       0.27078630 </v>
    <v>       0.30032466       0.82278755       0.47485654 </v>
    <v>       0.27514617       0.21471382       0.52763892 </v>
    <v>       0.69347627       0.77876012       0.51462311 </v>
    <v>       0.79481426       0.30151009       0.47784524 </v>
    <v>       0.17929123       0.47993413       0.67929120 </v>
    <v>       0.18150307       0.53649589       0.32918632 </v>
    <v>       0.65892492       0.45417306       0.15892489 </v>
    <v>       0.82918636       0.53649589       0.68150304 </v>
    <v>       0.48880279       0.31718129       0.80237546 </v>
    <v>       0.47500311       0.78574050       0.27927494 </v>
    <v>       0.52770003       0.17747858       0.31803131 </v>
    <v>       0.53453315       0.66583317       0.80345951 </v>
    <v>       0.49702397       0.49881522       0.49175708 </v>
    <v>       0.50377116       0.99972285       0.00377113 </v>
    <v>       0.99175711       0.49881522       0.99702394 </v>
    <v>       0.00112669       0.99336896       0.50112666 </v>
    <v>       0.13200829       0.89039516       0.63200826 </v>
    <v>       0.11806053       0.11126370       0.37038868 </v>
    <v>       0.89122159       0.85116740       0.39122156 </v>
    <v>       0.87038871       0.11126370       0.61806050 </v>
    <v>       0.86058706       0.60781983       0.12047360 </v>
    <v>       0.87368380       0.37202650       0.87588841 </v>
    <v>       0.11002671       0.62482712       0.87516062 </v>
    <v>       0.12060970       0.38927449       0.12441397 </v>
    <v>       0.62251372       0.12311599       0.88059655 </v>
    <v>       0.62851299       0.88382187       0.12851296 </v>
    <v>       0.38059658       0.12311599       0.12251369 </v>
    <v>       0.38910832       0.86402680       0.88910829 </v>
    <v>       0.62047363       0.60781983       0.36058703 </v>
    <v>       0.62441401       0.38927449       0.62060967 </v>
    <v>       0.37516065       0.62482712       0.61002668 </v>
    <v>       0.37588844       0.37202650       0.37368377 </v>
    <v>       0.74954089       0.75506834       0.74410024 </v>
    <v>       0.74946140       0.24786826       0.24946137 </v>
    <v>       0.24410027       0.75506834       0.24954086 </v>
    <v>       0.25757973       0.26322447       0.75757969 </v>
    <v>       0.98219049       0.97221731       0.01149803 </v>
    <v>       0.99930843       0.46282521       0.49930840 </v>
    <v>       0.51149806       0.97221731       0.48219046 </v>
    <v>       0.48259232       0.49444326       0.98259229 </v>
   </varray>
  </structure>
  <varray name="forces" >
   <v>       0.00009297       0.00003244       0.00031227 </v>
   <v>      -0.00030391      -0.00021881      -0.00015990 </v>
   <v>       0.00050956      -0.00261787       0.00246742 </v>
   <v>      -0.00009499       0.00044868      -0.00010866 </v>
   <v>      -0.00018678      -0.00030308      -0.00039178 </v>
   <v>      -0.00034821      -0.00036609      -0.00013777 </v>
   <v>      -0.00015358       0.00023903       0.00016764 </v>
   <v>      -0.00064336       0.00025353      -0.00038263 </v>
   <v>      -0.00002787       0.00033402      -0.00013504 </v>
   <v>       0.00040661      -0.00089350       0.00040661 </v>
   <v>      -0.00013504       0.00033402      -0.00002787 </v>
   <v>       0.00048088       0.00089642       0.00048088 </v>
   <v>      -0.00015990      -0.00021881      -0.00030391 </v>
   <v>       0.00246742      -0.00261787       0.00050956 </v>
   <v>      -0.00010866       0.00044868      -0.00009499 </v>
   <v>       0.00031227       0.00003244       0.00009297 </v>
   <v>      -0.00071120      -0.00111608      -0.00071120 </v>
   <v>      -0.00012949       0.00003669       0.00003814 </v>
   <v>       0.00005773       0.00027045       0.00005773 </v>
   <v>       0.00003814       0.00003669      -0.00012949 </v>
   <v>      -0.00039178      -0.00030308      -0.00018678 </v>
   <v>      -0.00038263       0.00025353      -0.00064336 </v>
   <v>       0.00016764       0.00023903      -0.00015358 </v>
   <v>      -0.00013777      -0.00036609      -0.00034821 </v>
   <v>      -0.00010446       0.00013703      -0.00017380 </v>
   <v>       0.00174518       0.00218387       0.00174518 </v>
   <v>      -0.00017380       0.00013703      -0.00010446 </v>
   <v>       0.00063382      -0.00129748       0.00063382 </v>
   <v>      -0.00063369       0.00028401      -0.00063369 </v>
   <v>       0.00038655       0.00038890       0.00017324 </v>
   <v>       0.00042488       0.00026697       0.00042488 </v>
   <v>       0.00017324       0.00038890       0.00038655 </v>
   <v>      -0.00024772      -0.00006617      -0.00072390 </v>
   <v>       0.00005689       0.00048506      -0.00055452 </v>
   <v>       0.00031265      -0.00079345      -0.00029094 </v>
   <v>       0.00040860       0.00048007      -0.00011851 </v>
   <v>      -0.00028822      -0.00037337       0.00066955 </v>
   <v>       0.00018573       0.00114495       0.00018573 </v>
   <v>       0.00066955      -0.00037337      -0.00028822 </v>
   <v>      -0.00035047      -0.00120433      -0.00035047 </v>
   <v>      -0.00072390      -0.00006617      -0.00024772 </v>
   <v>      -0.00011851       0.00048007       0.00040860 </v>
   <v>      -0.00029094      -0.00079345       0.00031265 </v>
   <v>      -0.00055452       0.00048506       0.00005689 </v>
   <v>      -0.00018904       0.00019831      -0.00022703 </v>
   <v>       0.00014711       0.00071064       0.00014711 </v>
   <v>      -0.00022703       0.00019831      -0.00018904 </v>
   <v>       0.00010187      -0.00061486       0.00010187 </v>
   <v>       0.00057480       0.00104282      -0.00138243 </v>
   <v>      -0.00086162       0.00051295      -0.00086162 </v>
   <v>      -0.00138243       0.00104282       0.00057480 </v>
   <v>      -0.00029259       0.00018058      -0.00029259 </v>
  </varray>
  <varray name="stress" >
   <v>       0.48873916      -0.64040050      -8.91416672 </v>
   <v>      -0.64040107      -2.12784739      -0.64040107 </v>
   <v>      -8.91416672      -0.64040050       0.48873916 </v>
  </varray>
  <energy>
   <i name="e_fr_energy">   -271.99231745 </i>
   <i name="e_wo_entrp">   -271.99231745 </i>
   <i name="e_0_energy">   -271.99231745 </i>
  </energy>
  <time name="totalsc">    5.37    5.43</time>
 </calculation>
 <calculation>
  <scstep>
   <time name="dav">    1.59    1.61</time>
   <time name="total">    2.20    2.22</time>
   <energy>
    <i name="alphaZ">    295.66770067 </i>
    <i name="ewald">  -8725.20827472 </i>
    <i name="hartreedc">  -2266.48892130 </i>
    <i name="XCdc">    537.51678376 </i>
    <i name="pawpsdc">   9832.08651281 </i>
    <i name="pawaedc">  -9976.22811851 </i>
    <i name="eentropy">     -0.00000000 </i>
    <i name="bandstr">  -2659.15699556 </i>
    <i name="atom">  12703.13999606 </i>
    <i name="e_fr_energy">   -258.67131680 </i>
    <i name="e_wo_entrp">   -258.67131680 </i>
    <i name="e_0_energy">   -258.67131680 </i>
   </energy>
  </scstep>
  <scstep>
   <time name="diag">    0.28    0.28</time>
   <time name="diis">    0.97    0.98</time>
   <time name="orth">    0.05    0.05</time>
   <time name="total">    1.86    1.88</time>
   <energy>
    <i name="e_fr_energy">   -258.67131854 </i>
    <i name="e_wo_entrp">   -258.67131854 </i>
    <i name="e_0_energy">   -258.67131854 </i>
   </energy>
  </scstep>
  <scstep>
   <time name="diag">    0.27    0.27</time>
   <time name="diis">    0.77    0.78</time>
   <time name="orth">    0.05    0.05</time>
   <time name="total">    1.56    1.57</time>
   <energy>
    <i name="alphaZ">    295.66770067 </i>
    <i name="ewald">  -8725.20827472 </i>
    <i name="hartreedc">  -2266.48371575 </i>
    <i name="XCdc">    537.51657202 </i>
    <i name="pawpsdc">   9832.01664074 </i>
    <i name="pawaedc">  -9976.15809472 </i>
    <i name="eentropy">     -0.00000000 </i>
    <i name="bandstr">  -2659.16214330 </i>
    <i name="atom">  12703.13999606 </i>
    <i name="e_fr_energy">   -258.67131899 </i>
    <i name="e_wo_entrp">   -258.67131899 </i>
    <i name="e_0_energy">   -258.67131899 </i>
   </energy>
  </scstep>
  <structure>
   <crystal>
    <varray name="basis" >
     <v>       9.71924782       0.00000000       0.00000000 </v>
     <v>       0.00000000       9.71924782       0.00000000 </v>
     <v>       0.00000000       0.00000000       9.71924782 </v>
    </varray>
    <i name="volume">    918.11686925 </i>
    <varray name="rec_basis" >
     <v>       0.10288862       0.00000000       0.00000000 </v>
     <v>       0.00000000       0.10288862       0.00000000 </v>
     <v>       0.00000000       0.00000000       0.10288862 </v>
    </varray>
   </crystal>
   <varray name="positions" >
    <v>       0.97784630       0.30151009       0.29481201 </v>
    <v>       0.97485861       0.82278890       0.80032642 </v>
    <v>       0.02763685       0.21472879       0.77513106 </v>
    <v>       0.01462301       0.77875793       0.19347686 </v>
    <v>       0.30237596       0.31718237       0.98880475 </v>
    <v>       0.30345602       0.66583313       0.03453213 </v>
    <v>       0.81803104       0.17747568       0.02769969 </v>
    <v>       0.77927909       0.78573928       0.97500621 </v>
    <v>       0.19228788       0.97763861       0.16608379 </v>
    <v>       0.27082788       0.03185122       0.77082785 </v>
    <v>       0.66608383       0.97763861       0.69228785 </v>
    <v>       0.77078022       0.01803667       0.27078019 </v>
    <v>       0.30032645       0.82278890       0.47485858 </v>
    <v>       0.27513109       0.21472879       0.52763682 </v>
    <v>       0.69347689       0.77875793       0.51462298 </v>
    <v>       0.79481204       0.30151009       0.47784627 </v>
    <v>       0.17929479       0.47993998       0.67929476 </v>
    <v>       0.18150407       0.53649430       0.32918661 </v>
    <v>       0.65892567       0.45417376       0.15892564 </v>
    <v>       0.82918664       0.53649430       0.68150404 </v>
    <v>       0.48880478       0.31718237       0.80237593 </v>
    <v>       0.47500624       0.78573928       0.27927906 </v>
    <v>       0.52769972       0.17747568       0.31803101 </v>
    <v>       0.53453496       0.66583399       0.80346038 </v>
    <v>       0.49702443       0.49881658       0.49175561 </v>
    <v>       0.50378154       0.99973812       0.00378151 </v>
    <v>       0.99175564       0.49881658       0.99702440 </v>
    <v>       0.00113007       0.99335738       0.50113004 </v>
    <v>       0.13200888       0.89039607       0.63200884 </v>
    <v>       0.11806180       0.11126755       0.37038116 </v>
    <v>       0.89121710       0.85116262       0.39121707 </v>
    <v>       0.87038119       0.11126755       0.61806177 </v>
    <v>       0.86058480       0.60782030       0.12048184 </v>
    <v>       0.87367929       0.37202349       0.87588807 </v>
    <v>       0.11002641       0.62483188       0.87516287 </v>
    <v>       0.12061199       0.38926957       0.12441912 </v>
    <v>       0.62251343       0.12311659       0.88059372 </v>
    <v>       0.62850707       0.88381864       0.12850704 </v>
    <v>       0.38059375       0.12311659       0.12251340 </v>
    <v>       0.38909640       0.86401914       0.88909636 </v>
    <v>       0.62048187       0.60782030       0.36058477 </v>
    <v>       0.62441916       0.38926957       0.62061196 </v>
    <v>       0.37516290       0.62483188       0.61002638 </v>
    <v>       0.37588810       0.37202349       0.37367926 </v>
    <v>       0.74954145       0.75506627       0.74410104 </v>
    <v>       0.74946046       0.24786551       0.24946043 </v>
    <v>       0.24410107       0.75506627       0.24954142 </v>
    <v>       0.25758039       0.26322776       0.75758036 </v>
    <v>       0.98218831       0.97221175       0.01150601 </v>
    <v>       0.99931299       0.46282277       0.49931295 </v>
    <v>       0.51150604       0.97221175       0.48218828 </v>
    <v>       0.48259345       0.49444335       0.98259342 </v>
   </varray>
  </structure>
  <varray name="forces" >
   <v>      -0.00026179      -0.00008601       0.00088635 </v>
   <v>      -0.00079808      -0.00047022      -0.00040737 </v>
   <v>       0.00067730      -0.00369081       0.00349075 </v>
   <v>       0.00008276       0.00086595      -0.00020646 </v>
   <v>      -0.00023969      -0.00043734      -0.00079174 </v>
   <v>      -0.00037176      -0.00038189      -0.00060027 </v>
   <v>       0.00006761       0.00079254       0.00023760 </v>
   <v>      -0.00135857       0.00043211      -0.00107755 </v>
   <v>       0.00031640       0.00054857      -0.00036690 </v>
   <v>       0.00086568      -0.00203901       0.00086568 </v>
   <v>      -0.00036690       0.00054857       0.00031640 </v>
   <v>       0.00179327       0.00221176       0.00179327 </v>
   <v>      -0.00040737      -0.00047022      -0.00079808 </v>
   <v>       0.00349075      -0.00369081       0.00067730 </v>
   <v>      -0.00020646       0.00086595       0.00008276 </v>
   <v>       0.00088635      -0.00008601      -0.00026179 </v>
   <v>      -0.00132751      -0.00221850      -0.00132751 </v>
   <v>      -0.00029702       0.00028470       0.00000066 </v>
   <v>      -0.00007834       0.00000840      -0.00007834 </v>
   <v>       0.00000066       0.00028470      -0.00029702 </v>
   <v>      -0.00079174      -0.00043734      -0.00023969 </v>
   <v>      -0.00107755       0.00043211      -0.00135857 </v>
   <v>       0.00023760       0.00079254       0.00006761 </v>
   <v>      -0.00060027      -0.00038189      -0.00037176 </v>
   <v>       0.00041190      -0.00052551      -0.00000950 </v>
   <v>      -0.00279289      -0.00272761      -0.00279289 </v>
   <v>      -0.00000950      -0.00052551       0.00041190 </v>
   <v>      -0.00089430       0.00200147      -0.00089430 </v>
   <v>      -0.00018757      -0.00028723      -0.00018757 </v>
   <v>      -0.00066459      -0.00119632       0.00223257 </v>
   <v>       0.00129192       0.00094318       0.00129192 </v>
   <v>       0.00223257      -0.00119632      -0.00066459 </v>
   <v>       0.00043364      -0.00058142      -0.00187703 </v>
   <v>       0.00092303       0.00135161      -0.00003197 </v>
   <v>       0.00015419      -0.00162723      -0.00013263 </v>
   <v>      -0.00041344       0.00162222      -0.00135114 </v>
   <v>       0.00027036       0.00000736       0.00083724 </v>
   <v>       0.00139453       0.00106607       0.00139453 </v>
   <v>       0.00083724       0.00000736       0.00027036 </v>
   <v>       0.00337377       0.00258375       0.00337377 </v>
   <v>      -0.00187703      -0.00058142       0.00043364 </v>
   <v>      -0.00135114       0.00162222      -0.00041344 </v>
   <v>      -0.00013263      -0.00162723       0.00015419 </v>
   <v>      -0.00003197       0.00135161       0.00092303 </v>
   <v>      -0.00008753       0.00036128      -0.00022000 </v>
   <v>       0.00023671       0.00089982       0.00023671 </v>
   <v>      -0.00022000       0.00036128      -0.00008753 </v>
   <v>       0.00000390      -0.00077142       0.00000390 </v>
   <v>       0.00073350       0.00147696      -0.00214736 </v>
   <v>      -0.00131799       0.00073401      -0.00131799 </v>
   <v>      -0.00214736       0.00147696       0.00073350 </v>
   <v>      -0.00040464       0.00010222      -0.00040464 </v>
  </varray>
  <varray name="stress" >
   <v>       0.47562102      -0.64736071      -8.91737459 </v>
   <v>      -0.64736132      -2.14218014      -0.64736132 </v>
   <v>      -8.91737459      -0.64736071       0.47562102 </v>
  </varray>
  <energy>
   <i name="e_fr_energy">   -271.99231315 </i>
   <i name="e_wo_entrp">   -271.99231315 </i>
   <i name="e_0_energy">   -271.99231315 </i>
  </energy>
