unknown system                          
           1
     9.719248    0.000000    0.000000
     0.000000    9.719248    0.000000
     0.000000    0.000000    9.719248
   Li   P    S    Cl
    24     4    20     4
Direct configuration=     1
   0.97786551  0.30147002  0.29477573
   0.97487251  0.82281185  0.80030439
   0.02762987  0.21498219  0.77493621
   0.01468659  0.77874000  0.19354378
   0.30236457  0.31718053  0.98878002
   0.30349443  0.66589355  0.03453196
   0.81803787  0.17746862  0.02768281
   0.77926443  0.78571372  0.97500498
   0.19234142  0.97758124  0.16610259
   0.27077267  0.03195648  0.77077264
   0.66610262  0.97758124  0.69234139
   0.77075335  0.01797158  0.27075332
   0.30030442  0.82281185  0.47487248
   0.27493624  0.21498219  0.52762984
   0.69354381  0.77874000  0.51468656
   0.79477576  0.30147002  0.47786548
   0.17939657  0.48006931  0.67939654
   0.18155082  0.53644806  0.32912582
   0.65893837  0.45410518  0.15893834
   0.82912585  0.53644806  0.68155079
   0.48878005  0.31718053  0.80236454
   0.47500501  0.78571372  0.27926440
   0.52768284  0.17746862  0.31803784
   0.53453479  0.66589441  0.80349879
   0.49698643  0.49883704  0.49176462
   0.50373122  0.99968554  0.00373119
   0.99176465  0.49883704  0.99698640
   0.00109420  0.99341081  0.50109417
   0.13190962  0.89057761  0.63190959
   0.11801041  0.11123329  0.37041023
   0.89127180  0.85125368  0.39127177
   0.87041026  0.11123329  0.61801038
   0.86067218  0.60777996  0.12043593
   0.87373463  0.37210922  0.87599131
   0.10998406  0.62481572  0.87524157
   0.12055570  0.38930553  0.12436259
   0.62241511  0.12301469  0.88063258
   0.62837874  0.88378632  0.12837871
   0.38063261  0.12301469  0.12241508
   0.38905770  0.86406097  0.88905767
   0.62043596  0.60777996  0.36067215
   0.62436262  0.38930553  0.62055567
   0.37524160  0.62481572  0.60998403
   0.37599134  0.37210922  0.37373460
   0.74956444  0.75503611  0.74413520
   0.74947675  0.24781094  0.24947672
   0.24413523  0.75503611  0.24956441
   0.25757591  0.26330481  0.75757588
   0.98207120  0.97202390  0.01172654
   0.99945310  0.46267605  0.49945307
   0.51172657  0.97202390  0.48207117
   0.48259556  0.49443942  0.98259553
Direct configuration=     2
   0.97786361  0.30147028  0.29477739
   0.97487159  0.82281085  0.80030613
   0.02762863  0.21497642  0.77493838
   0.01468129  0.77873970  0.19354243
   0.30236324  0.31717989  0.98878398
   0.30349303  0.66589166  0.03453082
   0.81803674  0.17746746  0.02768453
   0.77926677  0.78571360  0.97500762
   0.19233890  0.97758272  0.16610293
   0.27077556  0.03194942  0.77077553
   0.66610296  0.97758272  0.69233887
   0.77075060  0.01797183  0.27075057
   0.30030616  0.82281085  0.47487156
   0.27493841  0.21497642  0.52762860
   0.69354246  0.77873970  0.51468126
   0.79477742  0.30147028  0.47786358
   0.17939423  0.48006688  0.67939420
   0.18154935  0.53644793  0.32912683
   0.65894007  0.45410950  0.15894004
   0.82912686  0.53644793  0.68154932
   0.48878401  0.31717989  0.80236321
   0.47500765  0.78571360  0.27926673
   0.52768456  0.17746746  0.31803671
   0.53453365  0.66589251  0.80349739
   0.49701198  0.49884038  0.49176859
   0.50372376  0.99967630  0.00372373
   0.99176863  0.49884038  0.99701195
   0.00108719  0.99342230  0.50108716
   0.13194294  0.89054800  0.63194291
   0.11803027  0.11125283  0.37038916
   0.89125242  0.85122468  0.39125239
   0.87038919  0.11125283  0.61803024
   0.86064891  0.60779577  0.12045514
   0.87370625  0.37208005  0.87595943
   0.11000780  0.62483737  0.87521698
   0.12057555  0.38929188  0.12437452
   0.62244001  0.12304131  0.88060884
   0.62840358  0.88376841  0.12840355
   0.38060887  0.12304131  0.12243998
   0.38904539  0.86404933  0.88904536
   0.62045517  0.60779577  0.36064888
   0.62437455  0.38929188  0.62057552
   0.37521701  0.62483737  0.61000777
   0.37595946  0.37208005  0.37370622
   0.74956498  0.75503605  0.74413419
   0.74947538  0.24781311  0.24947535
   0.24413422  0.75503605  0.24956495
   0.25757693  0.26330464  0.75757690
   0.98207530  0.97203022  0.01171995
   0.99945000  0.46268210  0.49944997
   0.51171998  0.97203022  0.48207527
   0.48259649  0.49443985  0.98259646
Direct configuration=     3
   0.97786109  0.30147062  0.29477959
   0.97487037  0.82280954  0.80030842
   0.02762700  0.21496880  0.77494125
   0.01467429  0.77873931  0.19354064
   0.30236147  0.31717905  0.98878921
   0.30349118  0.66588915  0.03452930
   0.81803526  0.17746593  0.02768681
   0.77926985  0.78571345  0.97501111
   0.19233557  0.97758469  0.16610338
   0.27077939  0.03194007  0.77077936
   0.66610342  0.97758469  0.69233554
   0.77074697  0.01797215  0.27074694
   0.30030845  0.82280954  0.47487034
   0.27494128  0.21496880  0.52762697
   0.69354067  0.77873931  0.51467426
   0.79477962  0.30147062  0.47786106
   0.17939115  0.48006368  0.67939111
   0.18154741  0.53644775  0.32912817
   0.65894233  0.45411521  0.15894230
   0.82912820  0.53644775  0.68154738
   0.48878924  0.31717905  0.80236144
   0.47501114  0.78571345  0.27926982
   0.52768684  0.17746593  0.31803523
   0.53453213  0.66589001  0.80349554
   0.49704577  0.49884481  0.49177384
   0.50371390  0.99966408  0.00371387
   0.99177388  0.49884481  0.99704574
   0.00107793  0.99343749  0.50107789
   0.13198698  0.89050885  0.63198695
   0.11805653  0.11127865  0.37036130
   0.89122680  0.85118634  0.39122677
   0.87036133  0.11127865  0.61805650
   0.86061814  0.60781668  0.12048054
   0.87366873  0.37204150  0.87591728
   0.11003918  0.62486601  0.87518446
   0.12060180  0.38927385  0.12439029
   0.62247293  0.12307651  0.88057746
   0.62843642  0.88374474  0.12843639
   0.38057749  0.12307651  0.12247290
   0.38902911  0.86403394  0.88902908
   0.62048057  0.60781668  0.36061811
   0.62439032  0.38927385  0.62060177
   0.37518449  0.62486601  0.61003914
   0.37591731  0.37204150  0.37366870
   0.74956569  0.75503597  0.74413287
   0.74947357  0.24781599  0.24947354
   0.24413290  0.75503597  0.24956566
   0.25757829  0.26330443  0.75757826
   0.98208072  0.97203858  0.01171124
   0.99944590  0.46269010  0.49944587
   0.51171127  0.97203858  0.48208069
   0.48259773  0.49444041  0.98259770
Direct configuration=     4
   0.97786100  0.30147064  0.29477967
   0.97487033  0.82280949  0.80030850
   0.02762694  0.21496853  0.77494135
   0.01467404  0.77873929  0.19354057
   0.30236141  0.31717902  0.98878940
   0.30349111  0.66588906  0.03452925
   0.81803520  0.17746588  0.02768689
   0.77926996  0.78571344  0.97501123
   0.19233545  0.97758476  0.16610340
   0.27077952  0.03193974  0.77077949
   0.66610343  0.97758476  0.69233542
   0.77074684  0.01797216  0.27074681
   0.30030853  0.82280949  0.47487030
   0.27494138  0.21496853  0.52762691
   0.69354060  0.77873929  0.51467401
   0.79477970  0.30147064  0.47786097
   0.17939104  0.48006357  0.67939101
   0.18154735  0.53644774  0.32912822
   0.65894241  0.45411541  0.15894238
   0.82912825  0.53644774  0.68154731
   0.48878943  0.31717902  0.80236138
   0.47501126  0.78571344  0.27926993
   0.52768692  0.17746588  0.31803517
   0.53453208  0.66588992  0.80349548
   0.49704696  0.49884497  0.49177403
   0.50371355  0.99966365  0.00371352
   0.99177406  0.49884497  0.99704693
   0.00107760  0.99343803  0.50107757
   0.13198854  0.89050747  0.63198851
   0.11805746  0.11127956  0.37036032
   0.89122590  0.85118498  0.39122587
   0.87036035  0.11127956  0.61805743
   0.86061705  0.60781742  0.12048143
   0.87366741  0.37204014  0.87591579
   0.11004029  0.62486702  0.87518331
   0.12060273  0.38927321  0.12439085
   0.62247410  0.12307775  0.88057635
   0.62843758  0.88374390  0.12843755
   0.38057638  0.12307775  0.12247407
   0.38902853  0.86403340  0.88902850
   0.62048146  0.60781742  0.36061702
   0.62439088  0.38927321  0.62060270
   0.37518334  0.62486702  0.61004025
   0.37591582  0.37204014  0.37366738
   0.74956572  0.75503597  0.74413282
   0.74947351  0.24781609  0.24947348
   0.24413285  0.75503597  0.24956569
   0.25757834  0.26330442  0.75757831
   0.98208091  0.97203888  0.01171093
   0.99944575  0.46269039  0.49944572
   0.51171096  0.97203888  0.48208088
   0.48259777  0.49444043  0.98259774
Direct configuration=     5
   0.97785907  0.30147229  0.29478197
   0.97486969  0.82280917  0.80031065
   0.02762757  0.21496134  0.77494564
   0.01467099  0.77874068  0.19353811
   0.30236284  0.31717872  0.98879036
   0.30348975  0.66588620  0.03452817
   0.81803457  0.17746486  0.02768762
   0.77927284  0.78571478  0.97501148
   0.19233204  0.97758604  0.16610289
   0.27078262  0.03193589  0.77078258
   0.66610293  0.97758604  0.69233201
   0.77074548  0.01797366  0.27074544
   0.30031068  0.82280917  0.47486966
   0.27494567  0.21496134  0.52762754
   0.69353814  0.77874068  0.51467096
   0.79478200  0.30147229  0.47785903
   0.17938773  0.48005986  0.67938770
   0.18154651  0.53644780  0.32913145
   0.65894268  0.45411875  0.15894265
   0.82913148  0.53644780  0.68154648
   0.48879039  0.31717872  0.80236281
   0.47501151  0.78571478  0.27927281
   0.52768765  0.17746486  0.31803454
   0.53453100  0.66588706  0.80349412
   0.49703146  0.49883866  0.49176882
   0.50371987  0.99967300  0.00371984
   0.99176885  0.49883866  0.99703142
   0.00108048  0.99342733  0.50108045
   0.13198839  0.89050380  0.63198836
   0.11806201  0.11128425  0.37035518
   0.89122441  0.85118007  0.39122438
   0.87035521  0.11128425  0.61806198
   0.86060752  0.60782117  0.12049040
   0.87366816  0.37204441  0.87591674
   0.11004150  0.62486540  0.87518426
   0.12061135  0.38926918  0.12439759
   0.62247692  0.12308072  0.88057653
   0.62844058  0.88374569  0.12844055
   0.38057656  0.12308072  0.12247689
   0.38902456  0.86402777  0.88902453
   0.62049044  0.60782117  0.36060749
   0.62439762  0.38926918  0.62061132
   0.37518429  0.62486540  0.61004147
   0.37591677  0.37204441  0.37366813
   0.74956521  0.75503659  0.74413153
   0.74947322  0.24781882  0.24947319
   0.24413157  0.75503659  0.24956518
   0.25757982  0.26330251  0.75757979
   0.98208552  0.97204509  0.01170414
   0.99944098  0.46269583  0.49944095
   0.51170417  0.97204509  0.48208549
   0.48259677  0.49444151  0.98259674
Direct configuration=     6
   0.97785831  0.30147294  0.29478287
   0.97486944  0.82280904  0.80031149
   0.02762782  0.21495852  0.77494732
   0.01466979  0.77874122  0.19353714
   0.30236340  0.31717860  0.98879074
   0.30348922  0.66588508  0.03452774
   0.81803432  0.17746446  0.02768791
   0.77927397  0.78571530  0.97501158
   0.19233070  0.97758654  0.16610270
   0.27078383  0.03193438  0.77078380
   0.66610273  0.97758654  0.69233067
   0.77074494  0.01797425  0.27074491
   0.30031153  0.82280904  0.47486941
   0.27494735  0.21495852  0.52762779
   0.69353717  0.77874122  0.51466976
   0.79478290  0.30147294  0.47785828
   0.17938643  0.48005840  0.67938640
   0.18154618  0.53644782  0.32913272
   0.65894278  0.45412006  0.15894275
   0.82913275  0.53644782  0.68154615
   0.48879077  0.31717860  0.80236337
   0.47501161  0.78571530  0.27927394
   0.52768794  0.17746446  0.31803429
   0.53453057  0.66588594  0.80349358
   0.49702537  0.49883619  0.49176678
   0.50372235  0.99967666  0.00372232
   0.99176681  0.49883619  0.99702534
   0.00108161  0.99342313  0.50108158
   0.13198833  0.89050236  0.63198830
   0.11806380  0.11128609  0.37035316
   0.89122382  0.85117814  0.39122379
   0.87035319  0.11128609  0.61806377
   0.86060378  0.60782264  0.12049392
   0.87366846  0.37204609  0.87591711
   0.11004198  0.62486477  0.87518464
   0.12061473  0.38926759  0.12440024
   0.62247802  0.12308188  0.88057660
   0.62844175  0.88374639  0.12844172
   0.38057663  0.12308188  0.12247799
   0.38902300  0.86402556  0.88902297
   0.62049396  0.60782264  0.36060375
   0.62440027  0.38926759  0.62061470
   0.37518467  0.62486477  0.61004195
   0.37591714  0.37204609  0.37366843
   0.74956501  0.75503683  0.74413103
   0.74947310  0.24781989  0.24947307
   0.24413106  0.75503683  0.24956497
   0.25758040  0.26330176  0.75758037
   0.98208734  0.97204753  0.01170148
   0.99943911  0.46269797  0.49943908
   0.51170151  0.97204753  0.48208730
   0.48259638  0.49444193  0.98259635
Direct configuration=     7
   0.97785679  0.30147424  0.29478468
   0.97486894  0.82280878  0.80031318
   0.02762831  0.21495288  0.77495068
   0.01466740  0.77874231  0.19353520
   0.30236452  0.31717837  0.98879149
   0.30348815  0.66588284  0.03452690
   0.81803382  0.17746366  0.02768848
   0.77927623  0.78571634  0.97501177
   0.19232802  0.97758754  0.16610230
   0.27078626  0.03193136  0.77078623
   0.66610233  0.97758754  0.69232799
   0.77074387  0.01797544  0.27074384
   0.30031321  0.82280878  0.47486891
   0.27495071  0.21495288  0.52762828
   0.69353523  0.77874231  0.51466737
   0.79478471  0.30147424  0.47785676
   0.17938383  0.48005549  0.67938380
   0.18154553  0.53644787  0.32913525
   0.65894299  0.45412267  0.15894296
   0.82913529  0.53644787  0.68154550
   0.48879152  0.31717837  0.80236449
   0.47501180  0.78571634  0.27927620
   0.52768851  0.17746366  0.31803379
   0.53452972  0.66588370  0.80349252
   0.49701320  0.49883125  0.49176269
   0.50372731  0.99968400  0.00372728
   0.99176272  0.49883125  0.99701317
   0.00108387  0.99341474  0.50108384
   0.13198821  0.89049948  0.63198818
   0.11806737  0.11128976  0.37034912
   0.89122265  0.85117428  0.39122262
   0.87034915  0.11128976  0.61806734
   0.86059629  0.60782559  0.12050097
   0.87366905  0.37204945  0.87591785
   0.11004294  0.62486350  0.87518539
   0.12062149  0.38926443  0.12440553
   0.62248023  0.12308420  0.88057675
   0.62844410  0.88374779  0.12844407
   0.38057678  0.12308420  0.12248020
   0.38901987  0.86402114  0.88901984
   0.62050100  0.60782559  0.36059626
   0.62440556  0.38926443  0.62062146
   0.37518542  0.62486350  0.61004291
   0.37591788  0.37204945  0.37366902
   0.74956460  0.75503732  0.74413002
   0.74947287  0.24782203  0.24947284
   0.24413005  0.75503732  0.24956457
   0.25758156  0.26330026  0.75758153
   0.98209096  0.97205240  0.01169615
   0.99943537  0.46270224  0.49943534
   0.51169618  0.97205240  0.48209093
   0.48259559  0.49444277  0.98259556
Direct configuration=     8
   0.97785790  0.30147329  0.29478336
   0.97486930  0.82280897  0.80031195
   0.02762795  0.21495699  0.77494823
   0.01466914  0.77874152  0.19353661
   0.30236370  0.31717854  0.98879094
   0.30348893  0.66588448  0.03452751
   0.81803418  0.17746425  0.02768806
   0.77927458  0.78571558  0.97501163
   0.19232998  0.97758681  0.16610259
   0.27078449  0.03193356  0.77078445
   0.66610262  0.97758681  0.69232995
   0.77074465  0.01797457  0.27074462
   0.30031198  0.82280897  0.47486927
   0.27494826  0.21495699  0.52762792
   0.69353664  0.77874152  0.51466911
   0.79478339  0.30147329  0.47785786
   0.17938573  0.48005762  0.67938569
   0.18154601  0.53644784  0.32913340
   0.65894284  0.45412076  0.15894281
   0.82913343  0.53644784  0.68154598
   0.48879097  0.31717854  0.80236367
   0.47501166  0.78571558  0.27927455
   0.52768809  0.17746425  0.31803415
   0.53453034  0.66588533  0.80349330
   0.49702208  0.49883486  0.49176568
   0.50372369  0.99967865  0.00372366
   0.99176571  0.49883486  0.99702205
   0.00108222  0.99342086  0.50108219
   0.13198830  0.89050158  0.63198827
   0.11806476  0.11128708  0.37035207
   0.89122351  0.85117710  0.39122347
   0.87035210  0.11128708  0.61806473
   0.86060175  0.60782344  0.12049583
   0.87366862  0.37204700  0.87591731
   0.11004224  0.62486442  0.87518484
   0.12061656  0.38926674  0.12440167
   0.62247862  0.12308251  0.88057664
   0.62844239  0.88374676  0.12844236
   0.38057667  0.12308251  0.12247859
   0.38902215  0.86402436  0.88902212
   0.62049586  0.60782344  0.36060172
   0.62440170  0.38926674  0.62061653
   0.37518487  0.62486442  0.61004221
   0.37591734  0.37204700  0.37366859
   0.74956490  0.75503697  0.74413076
   0.74947304  0.24782047  0.24947301
   0.24413079  0.75503697  0.24956487
   0.25758072  0.26330136  0.75758068
   0.98208831  0.97204884  0.01170004
   0.99943810  0.46269912  0.49943807
   0.51170007  0.97204884  0.48208828
   0.48259617  0.49444216  0.98259614
Direct configuration=     9
   0.97785728  0.30147382  0.29478410
   0.97486910  0.82280886  0.80031264
   0.02762815  0.21495470  0.77494960
   0.01466817  0.77874196  0.19353583
   0.30236416  0.31717844  0.98879125
   0.30348850  0.66588357  0.03452717
   0.81803398  0.17746392  0.02768829
   0.77927550  0.78571601  0.97501171
   0.19232889  0.97758722  0.16610243
   0.27078547  0.03193234  0.77078544
   0.66610246  0.97758722  0.69232886
   0.77074422  0.01797505  0.27074419
   0.30031267  0.82280886  0.47486907
   0.27494963  0.21495470  0.52762812
   0.69353586  0.77874196  0.51466814
   0.79478413  0.30147382  0.47785725
   0.17938467  0.48005643  0.67938464
   0.18154574  0.53644786  0.32913443
   0.65894292  0.45412183  0.15894289
   0.82913447  0.53644786  0.68154571
   0.48879128  0.31717844  0.80236413
   0.47501174  0.78571601  0.27927547
   0.52768832  0.17746392  0.31803395
   0.53453000  0.66588442  0.80349286
   0.49701713  0.49883284  0.49176401
   0.50372571  0.99968163  0.00372568
   0.99176405  0.49883284  0.99701710
   0.00108314  0.99341745  0.50108311
   0.13198825  0.89050041  0.63198822
   0.11806621  0.11128857  0.37035043
   0.89122303  0.85117553  0.39122300
   0.87035046  0.11128857  0.61806618
   0.86059871  0.60782463  0.12049869
   0.87366886  0.37204836  0.87591761
   0.11004263  0.62486391  0.87518514
   0.12061931  0.38926545  0.12440382
   0.62247952  0.12308345  0.88057670
   0.62844334  0.88374733  0.12844331
   0.38057673  0.12308345  0.12247949
   0.38902088  0.86402257  0.88902085
   0.62049872  0.60782463  0.36059868
   0.62440385  0.38926545  0.62061928
   0.37518517  0.62486391  0.61004260
   0.37591764  0.37204836  0.37366883
   0.74956473  0.75503717  0.74413035
   0.74947295  0.24782134  0.24947292
   0.24413038  0.75503717  0.24956470
   0.25758119  0.26330075  0.75758116
   0.98208979  0.97205083  0.01169787
   0.99943658  0.46270086  0.49943655
   0.51169790  0.97205083  0.48208976
   0.48259585  0.49444250  0.98259582
Direct configuration=    10
   0.97785759  0.30147355  0.29478373
   0.97486920  0.82280892  0.80031229
   0.02762805  0.21495585  0.77494891
   0.01466866  0.77874174  0.19353622
   0.30236393  0.31717849  0.98879109
   0.30348871  0.66588402  0.03452734
   0.81803408  0.17746408  0.02768818
   0.77927504  0.78571579  0.97501167
   0.19232943  0.97758701  0.16610251
   0.27078498  0.03193295  0.77078495
   0.66610254  0.97758701  0.69232940
   0.77074443  0.01797481  0.27074440
   0.30031232  0.82280892  0.47486917
   0.27494894  0.21495585  0.52762802
   0.69353625  0.77874174  0.51466863
   0.79478376  0.30147355  0.47785756
   0.17938520  0.48005702  0.67938517
   0.18154587  0.53644785  0.32913392
   0.65894288  0.45412130  0.15894285
   0.82913395  0.53644785  0.68154584
   0.48879112  0.31717849  0.80236390
   0.47501170  0.78571579  0.27927501
   0.52768821  0.17746408  0.31803405
   0.53453017  0.66588488  0.80349308
   0.49701961  0.49883385  0.49176485
   0.50372470  0.99968014  0.00372467
   0.99176488  0.49883385  0.99701958
   0.00108268  0.99341916  0.50108265
   0.13198828  0.89050099  0.63198824
   0.11806549  0.11128783  0.37035125
   0.89122327  0.85117631  0.39122324
   0.87035128  0.11128783  0.61806546
   0.86060023  0.60782404  0.12049726
   0.87366874  0.37204768  0.87591746
   0.11004243  0.62486416  0.87518499
   0.12061793  0.38926610  0.12440275
   0.62247907  0.12308298  0.88057667
   0.62844286  0.88374705  0.12844283
   0.38057670  0.12308298  0.12247904
   0.38902152  0.86402346  0.88902149
   0.62049729  0.60782404  0.36060020
   0.62440278  0.38926610  0.62061790
   0.37518502  0.62486416  0.61004240
   0.37591749  0.37204768  0.37366871
   0.74956482  0.75503707  0.74413055
   0.74947299  0.24782091  0.24947296
   0.24413058  0.75503707  0.24956479
   0.25758095  0.26330105  0.75758092
   0.98208905  0.97204984  0.01169895
   0.99943734  0.46269999  0.49943731
   0.51169898  0.97204984  0.48208902
   0.48259601  0.49444233  0.98259598
Direct configuration=    11
   0.97785745  0.30147367  0.29478389
   0.97486916  0.82280889  0.80031244
   0.02762810  0.21495535  0.77494921
   0.01466845  0.77874183  0.19353605
   0.30236403  0.31717847  0.98879116
   0.30348862  0.66588382  0.03452727
   0.81803404  0.17746401  0.02768823
   0.77927524  0.78571589  0.97501169
   0.19232920  0.97758710  0.16610247
   0.27078519  0.03193268  0.77078516
   0.66610250  0.97758710  0.69232917
   0.77074434  0.01797492  0.27074431
   0.30031247  0.82280889  0.47486912
   0.27494924  0.21495535  0.52762806
   0.69353608  0.77874183  0.51466841
   0.79478392  0.30147367  0.47785742
   0.17938497  0.48005677  0.67938494
   0.18154582  0.53644785  0.32913414
   0.65894290  0.45412153  0.15894287
   0.82913418  0.53644785  0.68154579
   0.48879119  0.31717847  0.80236400
   0.47501172  0.78571589  0.27927521
   0.52768826  0.17746401  0.31803401
   0.53453010  0.66588468  0.80349298
   0.49701853  0.49883341  0.49176448
   0.50372514  0.99968079  0.00372511
   0.99176451  0.49883341  0.99701850
   0.00108288  0.99341841  0.50108285
   0.13198827  0.89050074  0.63198823
   0.11806581  0.11128815  0.37035089
   0.89122316  0.85117597  0.39122313
   0.87035092  0.11128815  0.61806577
   0.86059957  0.60782430  0.12049788
   0.87366879  0.37204798  0.87591753
   0.11004252  0.62486405  0.87518506
   0.12061853  0.38926582  0.12440321
   0.62247927  0.12308319  0.88057668
   0.62844307  0.88374717  0.12844304
   0.38057671  0.12308319  0.12247924
   0.38902124  0.86402307  0.88902121
   0.62049791  0.60782430  0.36059954
   0.62440325  0.38926582  0.62061850
   0.37518509  0.62486405  0.61004249
   0.37591756  0.37204798  0.37366876
   0.74956478  0.75503711  0.74413046
   0.74947297  0.24782110  0.24947294
   0.24413049  0.75503711  0.24956475
   0.25758105  0.26330092  0.75758102
   0.98208937  0.97205027  0.01169848
   0.99943701  0.46270037  0.49943698
   0.51169851  0.97205027  0.48208934
   0.48259594  0.49444240  0.98259591
Direct configuration=    12
   0.97785479  0.30147651  0.29478676
   0.97486773  0.82280838  0.80031563
   0.02762933  0.21494330  0.77495622
   0.01466329  0.77874308  0.19353168
   0.30236599  0.31717830  0.98879269
   0.30348662  0.66587943  0.03452606
   0.81803324  0.17746235  0.02768996
   0.77927921  0.78571753  0.97501251
   0.19232400  0.97758925  0.16610145
   0.27078986  0.03192713  0.77078983
   0.66610148  0.97758925  0.69232397
   0.77074275  0.01797758  0.27074272
   0.30031566  0.82280838  0.47486770
   0.27495625  0.21494330  0.52762930
   0.69353171  0.77874308  0.51466326
   0.79478679  0.30147651  0.47785476
   0.17937942  0.48005073  0.67937939
   0.18154329  0.53644880  0.32913841
   0.65894314  0.45412740  0.15894311
   0.82913844  0.53644880  0.68154326
   0.48879272  0.31717830  0.80236596
   0.47501254  0.78571753  0.27927918
   0.52768999  0.17746235  0.31803321
   0.53452889  0.66588029  0.80349098
   0.49702266  0.49883260  0.49176190
   0.50372918  0.99969027  0.00372915
   0.99176193  0.49883260  0.99702263
   0.00108610  0.99340980  0.50108607
   0.13198804  0.89049485  0.63198801
   0.11806555  0.11128772  0.37035106
   0.89122279  0.85117175  0.39122276
   0.87035109  0.11128772  0.61806552
   0.86059692  0.60782030  0.12049949
   0.87366572  0.37204915  0.87591412
   0.11004257  0.62486040  0.87518596
   0.12062067  0.38926751  0.12440388
   0.62248223  0.12308642  0.88057812
   0.62844523  0.88375209  0.12844520
   0.38057815  0.12308642  0.12248219
   0.38902426  0.86402422  0.88902423
   0.62049952  0.60782030  0.36059689
   0.62440391  0.38926751  0.62062064
   0.37518599  0.62486040  0.61004254
   0.37591415  0.37204915  0.37366569
   0.74956408  0.75503825  0.74412844
   0.74947191  0.24782458  0.24947188
   0.24412847  0.75503825  0.24956405
   0.25758257  0.26329748  0.75758254
   0.98209598  0.97206004  0.01168796
   0.99943005  0.46270892  0.49943001
   0.51168799  0.97206004  0.48209595
   0.48259518  0.49444365  0.98259515
Direct configuration=    13
   0.97785274  0.30147870  0.29478897
   0.97486663  0.82280798  0.80031809
   0.02763028  0.21493402  0.77496161
   0.01465932  0.77874405  0.19352831
   0.30236750  0.31717817  0.98879387
   0.30348507  0.66587605  0.03452513
   0.81803263  0.17746107  0.02769129
   0.77928226  0.78571879  0.97501314
   0.19231999  0.97759090  0.16610065
   0.27079346  0.03192285  0.77079343
   0.66610069  0.97759090  0.69231996
   0.77074153  0.01797963  0.27074150
   0.30031812  0.82280798  0.47486660
   0.27496164  0.21493402  0.52763025
   0.69352834  0.77874405  0.51465929
   0.79478900  0.30147870  0.47785271
   0.17937515  0.48004608  0.67937512
   0.18154134  0.53644953  0.32914169
   0.65894333  0.45413193  0.15894330
   0.82914172  0.53644953  0.68154131
   0.48879390  0.31717817  0.80236747
   0.47501318  0.78571879  0.27928223
   0.52769132  0.17746107  0.31803260
   0.53452796  0.66587691  0.80348943
   0.49702585  0.49883197  0.49175991
   0.50373229  0.99969758  0.00373226
   0.99175994  0.49883197  0.99702582
   0.00108858  0.99340317  0.50108855
   0.13198787  0.89049032  0.63198784
   0.11806536  0.11128738  0.37035118
   0.89122250  0.85116849  0.39122247
   0.87035121  0.11128738  0.61806533
   0.86059487  0.60781722  0.12050073
   0.87366335  0.37205006  0.87591150
   0.11004260  0.62485759  0.87518665
   0.12062232  0.38926882  0.12440440
   0.62248451  0.12308891  0.88057923
   0.62844690  0.88375588  0.12844687
   0.38057926  0.12308891  0.12248447
   0.38902659  0.86402511  0.88902656
   0.62050076  0.60781722  0.36059484
   0.62440443  0.38926882  0.62062229
   0.37518669  0.62485759  0.61004257
   0.37591153  0.37205006  0.37366332
   0.74956354  0.75503913  0.74412687
   0.74947109  0.24782727  0.24947106
   0.24412691  0.75503913  0.24956351
   0.25758374  0.26329483  0.75758371
   0.98210107  0.97206756  0.01167986
   0.99942468  0.46271551  0.49942465
   0.51167989  0.97206756  0.48210104
   0.48259460  0.49444462  0.98259457
Direct configuration=    14
   0.97784863  0.30148309  0.29479339
   0.97486444  0.82280719  0.80032300
   0.02763218  0.21491546  0.77497241
   0.01465138  0.77874597  0.19352158
   0.30237052  0.31717792  0.98879623
   0.30348198  0.66586929  0.03452327
   0.81803140  0.17745852  0.02769395
   0.77928837  0.78572132  0.97501441
   0.19231198  0.97759421  0.16609907
   0.27080065  0.03191428  0.77080062
   0.66609910  0.97759421  0.69231195
   0.77073909  0.01798373  0.27073906
   0.30032303  0.82280719  0.47486441
   0.27497244  0.21491546  0.52763215
   0.69352161  0.77874597  0.51465135
   0.79479342  0.30148309  0.47784860
   0.17936661  0.48003678  0.67936658
   0.18153744  0.53645100  0.32914826
   0.65894370  0.45414099  0.15894367
   0.82914829  0.53645100  0.68153741
   0.48879626  0.31717792  0.80237049
   0.47501444  0.78572132  0.27928834
   0.52769398  0.17745852  0.31803137
   0.53452610  0.66587015  0.80348634
   0.49703222  0.49883072  0.49175592
   0.50373851  0.99971220  0.00373848
   0.99175595  0.49883072  0.99703219
   0.00109353  0.99338991  0.50109350
   0.13198753  0.89048125  0.63198750
   0.11806497  0.11128671  0.37035144
   0.89122192  0.85116198  0.39122189
   0.87035147  0.11128671  0.61806494
   0.86059078  0.60781107  0.12050321
   0.87365862  0.37205187  0.87590625
   0.11004267  0.62485196  0.87518804
   0.12062562  0.38927144  0.12440542
   0.62248907  0.12309390  0.88058144
   0.62845023  0.88376347  0.12845019
   0.38058148  0.12309390  0.12248903
   0.38903125  0.86402688  0.88903122
   0.62050324  0.60781107  0.36059075
   0.62440545  0.38927144  0.62062559
   0.37518808  0.62485196  0.61004264
   0.37590628  0.37205187  0.37365859
   0.74956245  0.75504088  0.74412375
   0.74946945  0.24783264  0.24946942
   0.24412378  0.75504088  0.24956242
   0.25758608  0.26328953  0.75758605
   0.98211125  0.97208261  0.01166365
   0.99941396  0.46272868  0.49941393
   0.51166368  0.97208261  0.48211122
   0.48259343  0.49444655  0.98259340
Direct configuration=    15
   0.97784042  0.30149185  0.29480223
   0.97486005  0.82280560  0.80033283
   0.02763599  0.21487834  0.77499400
   0.01463550  0.77874982  0.19350811
   0.30237655  0.31717740  0.98880095
   0.30347580  0.66585577  0.03451955
   0.81802895  0.17745340  0.02769927
   0.77930060  0.78572637  0.97501695
   0.19229596  0.97760083  0.16609591
   0.27081503  0.03189716  0.77081500
   0.66609594  0.97760083  0.69229593
   0.77073421  0.01799193  0.27073417
   0.30033286  0.82280560  0.47486002
   0.27499403  0.21487834  0.52763596
   0.69350814  0.77874982  0.51463547
   0.79480226  0.30149185  0.47784039
   0.17934952  0.48001819  0.67934949
   0.18152965  0.53645393  0.32916139
   0.65894444  0.45415909  0.15894441
   0.82916142  0.53645393  0.68152962
   0.48880098  0.31717740  0.80237652
   0.47501698  0.78572637  0.27930056
   0.52769931  0.17745340  0.31802891
   0.53452238  0.66585662  0.80348017
   0.49704496  0.49882822  0.49174795
   0.50375095  0.99974144  0.00375092
   0.99174799  0.49882822  0.99704492
   0.00110345  0.99336339  0.50110342
   0.13198685  0.89046312  0.63198682
   0.11806419  0.11128538  0.37035195
   0.89122077  0.85114897  0.39122074
   0.87035198  0.11128538  0.61806416
   0.86058261  0.60779876  0.12050816
   0.87364917  0.37205550  0.87589576
   0.11004282  0.62484072  0.87519082
   0.12063221  0.38927667  0.12440748
   0.62249819  0.12310387  0.88058587
   0.62845688  0.88377863  0.12845685
   0.38058591  0.12310387  0.12249816
   0.38904057  0.86403043  0.88904054
   0.62050819  0.60779876  0.36058258
   0.62440751  0.38927667  0.62063218
   0.37519086  0.62484072  0.61004278
   0.37589579  0.37205550  0.37364913