  52  52   0  16
  0.1726224E+02  0.9646435E-09  0.9646435E-09  0.9646435E-09  0.2000000E-15
  1.000000000000000E-004
  CAR 
 unknown system                          
     12.68113350    -45.16011684  301      2.10100479      1.00000000
    -45.160  0.0000E+00  0.0000E+00  0.0000E+00  0.0000E+00
    -44.967  0.0000E+00  0.0000E+00  0.0000E+00  0.0000E+00
    -44.775  0.0000E+00  0.0000E+00  0.0000E+00  0.0000E+00
    -44.582  0.0000E+00  0.0000E+00  0.0000E+00  0.0000E+00
    -44.389  0.0000E+00  0.0000E+00  0.0000E+00  0.0000E+00
    -44.196  0.0000E+00  0.0000E+00  0.0000E+00  0.0000E+00
    -44.003  0.0000E+00  0.0000E+00  0.0000E+00  0.0000E+00
    -43.810  0.0000E+00  0.0000E+00  0.0000E+00  0.0000E+00
    -43.618  0.0000E+00  0.0000E+00  0.0000E+00  0.0000E+00
    -43.425  0.0000E+00  0.0000E+00  0.0000E+00  0.0000E+00
    -43.232  0.0000E+00  0.0000E+00  0.0000E+00  0.0000E+00
    -43.039  0.0000E+00  0.0000E+00  0.0000E+00  0.0000E+00
    -42.846  0.0000E+00  0.0000E+00  0.0000E+00  0.0000E+00
    -42.654  0.1893E-10  0.1893E-10  0.3650E-11  0.3650E-11
    -42.461  0.1360E-01  0.1360E-01  0.2623E-02  0.2623E-02
    -42.268  0.9309E-01  0.9309E-01  0.2057E-01  0.2057E-01
    -42.075  0.1770E-01  0.1770E-01  0.2400E-01  0.2400E-01
    -41.882  0.0000E+00  0.0000E+00  0.2400E-01  0.2400E-01
    -41.690  0.0000E+00  0.0000E+00  0.2400E-01  0.2400E-01
    -41.497  0.0000E+00  0.0000E+00  0.2400E-01  0.2400E-01
    -41.304  0.0000E+00  0.0000E+00  0.2400E-01  0.2400E-01
    -41.111  0.0000E+00  0.0000E+00  0.2400E-01  0.2400E-01
    -40.918  0.0000E+00  0.0000E+00  0.2400E-01  0.2400E-01
    -40.726  0.0000E+00  0.0000E+00  0.2400E-01  0.2400E-01
    -40.533  0.0000E+00  0.0000E+00  0.2400E-01  0.2400E-01
    -40.340  0.0000E+00  0.0000E+00  0.2400E-01  0.2400E-01
    -40.147  0.0000E+00  0.0000E+00  0.2400E-01  0.2400E-01
    -39.954  0.0000E+00  0.0000E+00  0.2400E-01  0.2400E-01
    -39.762  0.0000E+00  0.0000E+00  0.2400E-01  0.2400E-01
    -39.569  0.0000E+00  0.0000E+00  0.2400E-01  0.2400E-01
    -39.376  0.0000E+00  0.0000E+00  0.2400E-01  0.2400E-01
    -39.183  0.0000E+00  0.0000E+00  0.2400E-01  0.2400E-01
    -38.990  0.0000E+00  0.0000E+00  0.2400E-01  0.2400E-01
    -38.798  0.0000E+00  0.0000E+00  0.2400E-01  0.2400E-01
    -38.605  0.0000E+00  0.0000E+00  0.2400E-01  0.2400E-01
    -38.412  0.0000E+00  0.0000E+00  0.2400E-01  0.2400E-01
    -38.219  0.0000E+00  0.0000E+00  0.2400E-01  0.2400E-01
    -38.026  0.0000E+00  0.0000E+00  0.2400E-01  0.2400E-01
    -37.834  0.0000E+00  0.0000E+00  0.2400E-01  0.2400E-01
    -37.641  0.0000E+00  0.0000E+00  0.2400E-01  0.2400E-01
    -37.448  0.0000E+00  0.0000E+00  0.2400E-01  0.2400E-01
    -37.255  0.0000E+00  0.0000E+00  0.2400E-01  0.2400E-01
    -37.062  0.0000E+00  0.0000E+00  0.2400E-01  0.2400E-01
    -36.870  0.0000E+00  0.0000E+00  0.2400E-01  0.2400E-01
    -36.677  0.0000E+00  0.0000E+00  0.2400E-01  0.2400E-01
    -36.484  0.0000E+00  0.0000E+00  0.2400E-01  0.2400E-01
    -36.291  0.0000E+00  0.0000E+00  0.2400E-01  0.2400E-01
    -36.098  0.0000E+00  0.0000E+00  0.2400E-01  0.2400E-01
    -35.906  0.0000E+00  0.0000E+00  0.2400E-01  0.2400E-01
    -35.713  0.0000E+00  0.0000E+00  0.2400E-01  0.2400E-01
    -35.520  0.0000E+00  0.0000E+00  0.2400E-01  0.2400E-01
    -35.327  0.0000E+00  0.0000E+00  0.2400E-01  0.2400E-01
    -35.134  0.0000E+00  0.0000E+00  0.2400E-01  0.2400E-01
    -34.941  0.0000E+00  0.0000E+00  0.2400E-01  0.2400E-01
    -34.749  0.0000E+00  0.0000E+00  0.2400E-01  0.2400E-01
    -34.556  0.0000E+00  0.0000E+00  0.2400E-01  0.2400E-01
    -34.363  0.0000E+00  0.0000E+00  0.2400E-01  0.2400E-01
    -34.170  0.0000E+00  0.0000E+00  0.2400E-01  0.2400E-01
    -33.977  0.0000E+00  0.0000E+00  0.2400E-01  0.2400E-01
    -33.785  0.0000E+00  0.0000E+00  0.2400E-01  0.2400E-01
    -33.592  0.0000E+00  0.0000E+00  0.2400E-01  0.2400E-01
    -33.399  0.0000E+00  0.0000E+00  0.2400E-01  0.2400E-01
    -33.206  0.0000E+00  0.0000E+00  0.2400E-01  0.2400E-01
    -33.013  0.0000E+00  0.0000E+00  0.2400E-01  0.2400E-01
    -32.821  0.0000E+00  0.0000E+00  0.2400E-01  0.2400E-01
    -32.628  0.0000E+00  0.0000E+00  0.2400E-01  0.2400E-01
    -32.435  0.0000E+00  0.0000E+00  0.2400E-01  0.2400E-01
    -32.242  0.0000E+00  0.0000E+00  0.2400E-01  0.2400E-01
    -32.049  0.0000E+00  0.0000E+00  0.2400E-01  0.2400E-01
    -31.857  0.0000E+00  0.0000E+00  0.2400E-01  0.2400E-01
    -31.664  0.0000E+00  0.0000E+00  0.2400E-01  0.2400E-01
    -31.471  0.0000E+00  0.0000E+00  0.2400E-01  0.2400E-01
    -31.278  0.0000E+00  0.0000E+00  0.2400E-01  0.2400E-01
    -31.085  0.0000E+00  0.0000E+00  0.2400E-01  0.2400E-01
    -30.893  0.0000E+00  0.0000E+00  0.2400E-01  0.2400E-01
    -30.700  0.0000E+00  0.0000E+00  0.2400E-01  0.2400E-01
    -30.507  0.0000E+00  0.0000E+00  0.2400E-01  0.2400E-01
    -30.314  0.0000E+00  0.0000E+00  0.2400E-01  0.2400E-01
    -30.121  0.0000E+00  0.0000E+00  0.2400E-01  0.2400E-01
    -29.929  0.0000E+00  0.0000E+00  0.2400E-01  0.2400E-01
    -29.736  0.0000E+00  0.0000E+00  0.2400E-01  0.2400E-01
    -29.543  0.0000E+00  0.0000E+00  0.2400E-01  0.2400E-01
    -29.350  0.0000E+00  0.0000E+00  0.2400E-01  0.2400E-01
    -29.157  0.0000E+00  0.0000E+00  0.2400E-01  0.2400E-01
    -28.965  0.0000E+00  0.0000E+00  0.2400E-01  0.2400E-01
    -28.772  0.0000E+00  0.0000E+00  0.2400E-01  0.2400E-01
    -28.579  0.0000E+00  0.0000E+00  0.2400E-01  0.2400E-01
    -28.386  0.0000E+00  0.0000E+00  0.2400E-01  0.2400E-01
    -28.193  0.0000E+00  0.0000E+00  0.2400E-01  0.2400E-01
    -28.001  0.0000E+00  0.0000E+00  0.2400E-01  0.2400E-01
    -27.808  0.0000E+00  0.0000E+00  0.2400E-01  0.2400E-01
    -27.615  0.0000E+00  0.0000E+00  0.2400E-01  0.2400E-01
    -27.422  0.0000E+00  0.0000E+00  0.2400E-01  0.2400E-01
    -27.229  0.0000E+00  0.0000E+00  0.2400E-01  0.2400E-01
    -27.037  0.0000E+00  0.0000E+00  0.2400E-01  0.2400E-01
    -26.844  0.0000E+00  0.0000E+00  0.2400E-01  0.2400E-01
    -26.651  0.0000E+00  0.0000E+00  0.2400E-01  0.2400E-01
    -26.458  0.0000E+00  0.0000E+00  0.2400E-01  0.2400E-01
    -26.265  0.0000E+00  0.0000E+00  0.2400E-01  0.2400E-01
    -26.073  0.0000E+00  0.0000E+00  0.2400E-01  0.2400E-01
    -25.880  0.0000E+00  0.0000E+00  0.2400E-01  0.2400E-01
    -25.687  0.0000E+00  0.0000E+00  0.2400E-01  0.2400E-01
    -25.494  0.0000E+00  0.0000E+00  0.2400E-01  0.2400E-01
    -25.301  0.0000E+00  0.0000E+00  0.2400E-01  0.2400E-01
    -25.108  0.0000E+00  0.0000E+00  0.2400E-01  0.2400E-01
    -24.916  0.0000E+00  0.0000E+00  0.2400E-01  0.2400E-01
    -24.723  0.0000E+00  0.0000E+00  0.2400E-01  0.2400E-01
    -24.530  0.0000E+00  0.0000E+00  0.2400E-01  0.2400E-01
    -24.337  0.0000E+00  0.0000E+00  0.2400E-01  0.2400E-01
    -24.144  0.0000E+00  0.0000E+00  0.2400E-01  0.2400E-01
    -23.952  0.0000E+00  0.0000E+00  0.2400E-01  0.2400E-01
    -23.759  0.0000E+00  0.0000E+00  0.2400E-01  0.2400E-01
    -23.566  0.0000E+00  0.0000E+00  0.2400E-01  0.2400E-01
    -23.373  0.0000E+00  0.0000E+00  0.2400E-01  0.2400E-01
    -23.180  0.0000E+00  0.0000E+00  0.2400E-01  0.2400E-01
    -22.988  0.0000E+00  0.0000E+00  0.2400E-01  0.2400E-01
    -22.795  0.0000E+00  0.0000E+00  0.2400E-01  0.2400E-01
    -22.602  0.0000E+00  0.0000E+00  0.2400E-01  0.2400E-01
    -22.409  0.0000E+00  0.0000E+00  0.2400E-01  0.2400E-01
    -22.216  0.0000E+00  0.0000E+00  0.2400E-01  0.2400E-01
    -22.024  0.0000E+00  0.0000E+00  0.2400E-01  0.2400E-01
    -21.831  0.0000E+00  0.0000E+00  0.2400E-01  0.2400E-01
    -21.638  0.0000E+00  0.0000E+00  0.2400E-01  0.2400E-01
    -21.445  0.0000E+00  0.0000E+00  0.2400E-01  0.2400E-01
    -21.252  0.0000E+00  0.0000E+00  0.2400E-01  0.2400E-01
    -21.060  0.0000E+00  0.0000E+00  0.2400E-01  0.2400E-01
    -20.867  0.0000E+00  0.0000E+00  0.2400E-01  0.2400E-01
    -20.674  0.0000E+00  0.0000E+00  0.2400E-01  0.2400E-01
    -20.481  0.0000E+00  0.0000E+00  0.2400E-01  0.2400E-01
    -20.288  0.0000E+00  0.0000E+00  0.2400E-01  0.2400E-01
    -20.096  0.0000E+00  0.0000E+00  0.2400E-01  0.2400E-01
    -19.903  0.0000E+00  0.0000E+00  0.2400E-01  0.2400E-01
    -19.710  0.0000E+00  0.0000E+00  0.2400E-01  0.2400E-01
    -19.517  0.0000E+00  0.0000E+00  0.2400E-01  0.2400E-01
    -19.324  0.0000E+00  0.0000E+00  0.2400E-01  0.2400E-01
    -19.132  0.0000E+00  0.0000E+00  0.2400E-01  0.2400E-01
    -18.939  0.0000E+00  0.0000E+00  0.2400E-01  0.2400E-01
    -18.746  0.0000E+00  0.0000E+00  0.2400E-01  0.2400E-01
    -18.553  0.0000E+00  0.0000E+00  0.2400E-01  0.2400E-01
    -18.360  0.0000E+00  0.0000E+00  0.2400E-01  0.2400E-01
    -18.168  0.0000E+00  0.0000E+00  0.2400E-01  0.2400E-01
    -17.975  0.0000E+00  0.0000E+00  0.2400E-01  0.2400E-01
    -17.782  0.0000E+00  0.0000E+00  0.2400E-01  0.2400E-01
    -17.589  0.0000E+00  0.0000E+00  0.2400E-01  0.2400E-01
    -17.396  0.0000E+00  0.0000E+00  0.2400E-01  0.2400E-01
    -17.204  0.0000E+00  0.0000E+00  0.2400E-01  0.2400E-01
    -17.011  0.0000E+00  0.0000E+00  0.2400E-01  0.2400E-01
    -16.818  0.0000E+00  0.0000E+00  0.2400E-01  0.2400E-01
    -16.625  0.0000E+00  0.0000E+00  0.2400E-01  0.2400E-01
    -16.432  0.0000E+00  0.0000E+00  0.2400E-01  0.2400E-01
    -16.239  0.0000E+00  0.0000E+00  0.2400E-01  0.2400E-01
    -16.047  0.0000E+00  0.0000E+00  0.2400E-01  0.2400E-01
    -15.854  0.0000E+00  0.0000E+00  0.2400E-01  0.2400E-01
    -15.661  0.0000E+00  0.0000E+00  0.2400E-01  0.2400E-01
    -15.468  0.0000E+00  0.0000E+00  0.2400E-01  0.2400E-01
    -15.275  0.0000E+00  0.0000E+00  0.2400E-01  0.2400E-01
    -15.083  0.0000E+00  0.0000E+00  0.2400E-01  0.2400E-01
    -14.890  0.0000E+00  0.0000E+00  0.2400E-01  0.2400E-01
    -14.697  0.0000E+00  0.0000E+00  0.2400E-01  0.2400E-01
    -14.504  0.0000E+00  0.0000E+00  0.2400E-01  0.2400E-01
    -14.311  0.0000E+00  0.0000E+00  0.2400E-01  0.2400E-01
    -14.119  0.0000E+00  0.0000E+00  0.2400E-01  0.2400E-01
    -13.926  0.0000E+00  0.0000E+00  0.2400E-01  0.2400E-01
    -13.733  0.0000E+00  0.0000E+00  0.2400E-01  0.2400E-01
    -13.540  0.0000E+00  0.0000E+00  0.2400E-01  0.2400E-01
    -13.347  0.0000E+00  0.0000E+00  0.2400E-01  0.2400E-01
    -13.155  0.2753E-14  0.2753E-14  0.2400E-01  0.2400E-01
    -12.962  0.9776E-02  0.9777E-02  0.2588E-01  0.2588E-01
    -12.769  0.1097E-01  0.1097E-01  0.2800E-01  0.2800E-01
    -12.576  0.9255E-02  0.9255E-02  0.2978E-01  0.2978E-01
    -12.383  0.1149E-01  0.1149E-01  0.3200E-01  0.3200E-01
    -12.191  0.0000E+00  0.0000E+00  0.3200E-01  0.3200E-01
    -11.998  0.0000E+00  0.0000E+00  0.3200E-01  0.3200E-01
    -11.805  0.0000E+00  0.0000E+00  0.3200E-01  0.3200E-01
    -11.612  0.0000E+00  0.0000E+00  0.3200E-01  0.3200E-01
    -11.419  0.0000E+00  0.0000E+00  0.3200E-01  0.3200E-01
    -11.227  0.0000E+00  0.0000E+00  0.3200E-01  0.3200E-01
    -11.034  0.0000E+00  0.0000E+00  0.3200E-01  0.3200E-01
    -10.841  0.0000E+00  0.0000E+00  0.3200E-01  0.3200E-01
    -10.648  0.0000E+00  0.0000E+00  0.3200E-01  0.3200E-01
    -10.455  0.0000E+00  0.0000E+00  0.3200E-01  0.3200E-01
    -10.263  0.4869E-03  0.4869E-03  0.3209E-01  0.3209E-01
    -10.070  0.1791E-01  0.1791E-01  0.3555E-01  0.3555E-01
     -9.877  0.3198E-01  0.3198E-01  0.4171E-01  0.4171E-01
     -9.684  0.1184E-01  0.1184E-01  0.4400E-01  0.4400E-01
     -9.491  0.0000E+00  0.0000E+00  0.4400E-01  0.4400E-01
     -9.299  0.0000E+00  0.0000E+00  0.4400E-01  0.4400E-01
     -9.106  0.0000E+00  0.0000E+00  0.4400E-01  0.4400E-01
     -8.913  0.0000E+00  0.0000E+00  0.4400E-01  0.4400E-01
     -8.720  0.0000E+00  0.0000E+00  0.4400E-01  0.4400E-01
     -8.527  0.0000E+00  0.0000E+00  0.4400E-01  0.4400E-01
     -8.335  0.1354E-02  0.1354E-02  0.4426E-01  0.4426E-01
     -8.142  0.1939E-01  0.1939E-01  0.4800E-01  0.4800E-01
     -7.949  0.0000E+00  0.0000E+00  0.4800E-01  0.4800E-01
     -7.756  0.0000E+00  0.0000E+00  0.4800E-01  0.4800E-01
     -7.563  0.0000E+00  0.0000E+00  0.4800E-01  0.4800E-01
     -7.370  0.0000E+00  0.0000E+00  0.4800E-01  0.4800E-01
     -7.178  0.0000E+00  0.0000E+00  0.4800E-01  0.4800E-01
     -6.985  0.0000E+00  0.0000E+00  0.4800E-01  0.4800E-01
     -6.792  0.0000E+00  0.0000E+00  0.4800E-01  0.4800E-01
     -6.599  0.0000E+00  0.0000E+00  0.4800E-01  0.4800E-01
     -6.406  0.0000E+00  0.0000E+00  0.4800E-01  0.4800E-01
     -6.214  0.6468E-12  0.6468E-12  0.4800E-01  0.4800E-01
     -6.021  0.5171E-02  0.5171E-02  0.4900E-01  0.4900E-01
     -5.828  0.7929E-14  0.7929E-14  0.4900E-01  0.4900E-01
     -5.635  0.5264E-02  0.5264E-02  0.5001E-01  0.5001E-01
     -5.442  0.1028E-01  0.1028E-01  0.5200E-01  0.5200E-01
     -5.250  0.0000E+00  0.0000E+00  0.5200E-01  0.5200E-01
     -5.057  0.0000E+00  0.0000E+00  0.5200E-01  0.5200E-01
     -4.864  0.0000E+00  0.0000E+00  0.5200E-01  0.5200E-01
     -4.671  0.0000E+00  0.0000E+00  0.5200E-01  0.5200E-01
     -4.478  0.0000E+00  0.0000E+00  0.5200E-01  0.5200E-01
     -4.286  0.0000E+00  0.0000E+00  0.5200E-01  0.5200E-01
     -4.093  0.0000E+00  0.0000E+00  0.5200E-01  0.5200E-01
     -3.900  0.0000E+00  0.0000E+00  0.5200E-01  0.5200E-01
     -3.707  0.0000E+00  0.0000E+00  0.5200E-01  0.5200E-01
     -3.514  0.0000E+00  0.0000E+00  0.5200E-01  0.5200E-01
     -3.322  0.9348E-13  0.9348E-13  0.5200E-01  0.5200E-01
     -3.129  0.1348E-01  0.1348E-01  0.5460E-01  0.5460E-01
     -2.936  0.2058E-02  0.2058E-02  0.5500E-01  0.5500E-01
     -2.743  0.5183E-02  0.5183E-02  0.5600E-01  0.5600E-01
     -2.550  0.1040E-01  0.1040E-01  0.5801E-01  0.5801E-01
     -2.358  0.1640E-01  0.1640E-01  0.6117E-01  0.6117E-01
     -2.165  0.1467E-01  0.1467E-01  0.6400E-01  0.6400E-01
     -1.972  0.0000E+00  0.0000E+00  0.6400E-01  0.6400E-01
     -1.779  0.0000E+00  0.0000E+00  0.6400E-01  0.6400E-01
     -1.586  0.3263E-05  0.3263E-05  0.6400E-01  0.6400E-01
     -1.394  0.2124E-01  0.2124E-01  0.6810E-01  0.6810E-01
     -1.201  0.1636E-01  0.1636E-01  0.7125E-01  0.7125E-01
     -1.008  0.2159E-01  0.2159E-01  0.7542E-01  0.7542E-01
     -0.815  0.3005E-02  0.3005E-02  0.7600E-01  0.7600E-01
     -0.622  0.4151E-08  0.4151E-08  0.7600E-01  0.7600E-01
     -0.430  0.1436E-01  0.1436E-01  0.7877E-01  0.7877E-01
     -0.237  0.1027E-01  0.1027E-01  0.8076E-01  0.8076E-01
     -0.044  0.1269E-01  0.1269E-01  0.8320E-01  0.8320E-01
      0.149  0.3050E-01  0.3050E-01  0.8909E-01  0.8909E-01
      0.342  0.2173E-01  0.2173E-01  0.9328E-01  0.9328E-01
      0.534  0.1408E-01  0.1408E-01  0.9600E-01  0.9600E-01
      0.727  0.8915E-03  0.8915E-03  0.9617E-01  0.9617E-01
      0.920  0.1366E-01  0.1366E-01  0.9881E-01  0.9881E-01
      1.113  0.2311E-01  0.2311E-01  0.1033E+00  0.1033E+00
      1.306  0.2278E-01  0.2278E-01  0.1077E+00  0.1077E+00
      1.498  0.2698E-01  0.2698E-01  0.1129E+00  0.1129E+00
      1.691  0.2660E-01  0.2660E-01  0.1180E+00  0.1180E+00
      1.884  0.1043E-01  0.1043E-01  0.1200E+00  0.1200E+00
      2.077  0.0000E+00  0.0000E+00  0.1200E+00  0.1200E+00
      2.270  0.0000E+00  0.0000E+00  0.1200E+00  0.1200E+00
      2.463  0.0000E+00  0.0000E+00  0.1200E+00  0.1200E+00
      2.655  0.0000E+00  0.0000E+00  0.1200E+00  0.1200E+00
      2.848  0.0000E+00  0.0000E+00  0.1200E+00  0.1200E+00
      3.041  0.0000E+00  0.0000E+00  0.1200E+00  0.1200E+00
      3.234  0.0000E+00  0.0000E+00  0.1200E+00  0.1200E+00
      3.427  0.0000E+00  0.0000E+00  0.1200E+00  0.1200E+00
      3.619  0.0000E+00  0.0000E+00  0.1200E+00  0.1200E+00
      3.812  0.0000E+00  0.0000E+00  0.1200E+00  0.1200E+00
      4.005  0.0000E+00  0.0000E+00  0.1200E+00  0.1200E+00
      4.198  0.0000E+00  0.0000E+00  0.1200E+00  0.1200E+00
      4.391  0.1052E-06  0.1052E-06  0.1200E+00  0.1200E+00
      4.583  0.5186E-02  0.5186E-02  0.1210E+00  0.1210E+00
      4.776  0.0000E+00  0.0000E+00  0.1210E+00  0.1210E+00
      4.969  0.0000E+00  0.0000E+00  0.1210E+00  0.1210E+00
      5.162  0.2166E-11  0.2166E-11  0.1210E+00  0.1210E+00
      5.355  0.8366E-02  0.8366E-02  0.1226E+00  0.1226E+00
      5.547  0.7180E-02  0.7180E-02  0.1240E+00  0.1240E+00
      5.740  0.0000E+00  0.0000E+00  0.1240E+00  0.1240E+00
      5.933  0.1138E-02  0.1138E-02  0.1242E+00  0.1242E+00
      6.126  0.1565E-01  0.1565E-01  0.1272E+00  0.1272E+00
      6.319  0.1406E-01  0.1406E-01  0.1299E+00  0.1299E+00
      6.511  0.1317E-02  0.1317E-02  0.1302E+00  0.1302E+00
      6.704  0.1448E-01  0.1448E-01  0.1330E+00  0.1330E+00
      6.897  0.8966E-02  0.8966E-02  0.1347E+00  0.1347E+00
      7.090  0.6590E-02  0.6590E-02  0.1360E+00  0.1360E+00
      7.283  0.5184E-02  0.5184E-02  0.1370E+00  0.1370E+00
      7.475  0.5561E-02  0.5561E-02  0.1381E+00  0.1381E+00
      7.668  0.1067E-01  0.1067E-01  0.1401E+00  0.1401E+00
      7.861  0.1181E-01  0.1181E-01  0.1424E+00  0.1424E+00
      8.054  0.1013E-01  0.1013E-01  0.1444E+00  0.1444E+00
      8.247  0.1552E-01  0.1552E-01  0.1474E+00  0.1474E+00
      8.439  0.1371E-01  0.1371E-01  0.1500E+00  0.1500E+00
      8.632  0.1669E-01  0.1669E-01  0.1532E+00  0.1532E+00
      8.825  0.1451E-01  0.1451E-01  0.1560E+00  0.1560E+00
      9.018  0.1920E-01  0.1920E-01  0.1597E+00  0.1597E+00
      9.211  0.1758E-01  0.1758E-01  0.1631E+00  0.1631E+00
      9.403  0.1702E-01  0.1702E-01  0.1664E+00  0.1664E+00
      9.596  0.1633E-01  0.1636E-01  0.1696E+00  0.1696E+00
      9.789  0.1565E-01  0.1561E-01  0.1726E+00  0.1726E+00
      9.982  0.1643E-01  0.1621E-01  0.1757E+00  0.1757E+00
     10.175  0.1334E-02  0.1553E-02  0.1760E+00  0.1760E+00
     10.367  0.0000E+00  0.0000E+00  0.1760E+00  0.1760E+00
     10.560  0.0000E+00  0.0000E+00  0.1760E+00  0.1760E+00
     10.753  0.0000E+00  0.0000E+00  0.1760E+00  0.1760E+00
     10.946  0.0000E+00  0.0000E+00  0.1760E+00  0.1760E+00
     11.139  0.0000E+00  0.0000E+00  0.1760E+00  0.1760E+00
     11.332  0.0000E+00  0.0000E+00  0.1760E+00  0.1760E+00
     11.524  0.0000E+00  0.0000E+00  0.1760E+00  0.1760E+00
     11.717  0.0000E+00  0.0000E+00  0.1760E+00  0.1760E+00
     11.910  0.0000E+00  0.0000E+00  0.1760E+00  0.1760E+00
     12.103  0.0000E+00  0.0000E+00  0.1760E+00  0.1760E+00
     12.296  0.0000E+00  0.0000E+00  0.1760E+00  0.1760E+00
     12.488  0.0000E+00  0.0000E+00  0.1760E+00  0.1760E+00
     12.681  0.0000E+00  0.0000E+00  0.1760E+00  0.1760E+00
