 vasp.6.4.1 05Apr23 (build Jun 07 2023 15:38:11) complex                        
  
 executed on             LinuxIFC date 2023.10.19  05:08:07
 running  128 mpi-ranks, with    1 threads/rank, on    1 nodes
 distrk:  each k-point on  128 cores,    1 groups
 distr:  one band on NCORE=  32 cores,    4 groups


--------------------------------------------------------------------------------------------------------


 INCAR:
   GGA = PE
   PREC = Accu
   EDIFF = 1.e-6
   EDIFFG = -1.e-3
   ENCUT = 520.
   NELM = 100
   NELMDL = -10
   LASPH = .TRUE.
   LREAL = Auto
   LMAXMIX = 4
   ISPIN = 2
   LDIAG = .TRUE.
   LPLANE = .TRUE.
   IVDW = 12
   SIGMA = 0.03
   ISMEAR = 0
   NSW = 1000    number of steps for IOM
   IBRION = 2    ionic relax: 0-MD 1-quasi-New 2-CG
   ISIF = 2    ionic relaxation + stress tensor calcn.
   LCHARG = .FALSE.
   LWAVE = .FALSE.
   ALGO = F
   KPAR = 1
   NPAR = 4
   POTIM = 0.2

 POTCAR:    PAW_PBE Li_sv_GW 25Mar2010            
 POTCAR:    PAW_PBE P_GW 19Mar2012                
 POTCAR:    PAW_PBE S_GW 19Mar2012                
 POTCAR:    PAW_PBE Cl_GW 19Mar2012               
 -----------------------------------------------------------------------------
|                                                                             |
|           W    W    AA    RRRRR   N    N  II  N    N   GGGG   !!!           |
|           W    W   A  A   R    R  NN   N  II  NN   N  G    G  !!!           |
|           W    W  A    A  R    R  N N  N  II  N N  N  G       !!!           |
|           W WW W  AAAAAA  RRRRR   N  N N  II  N  N N  G  GGG   !            |
|           WW  WW  A    A  R   R   N   NN  II  N   NN  G    G                |
|           W    W  A    A  R    R  N    N  II  N    N   GGGG   !!!           |
|                                                                             |
|     You use a magnetic or noncollinear calculation, but did not specify     |
|     the initial magnetic moment with the MAGMOM tag. Note that a            |
|     default of 1 will be used for all atoms. This ferromagnetic setup       |
|     may break the symmetry of the crystal, in particular it may rule        |
|     out finding an antiferromagnetic solution. Thence, we recommend         |
|     setting the initial magnetic moment manually or verifying carefully     |
|     that this magnetic setup is desired.                                    |
|                                                                             |
 -----------------------------------------------------------------------------

 POTCAR:    PAW_PBE Li_sv_GW 25Mar2010            
   SHA256 =  24a6ace15a582615486b36ce4dc781b048409f4015b7684ed1273ae395fa2fdc Li_sv_GW/POTCAR       
   COPYR  = (c) Copyright 25Mar2010 Georg Kresse                                                    
   COPYR  = This file is part of the software VASP. Any use, copying, and all other rights are regul
   COPYR  = If you do not have a valid VASP license, you may not use, copy or distribute this file. 
   VRHFIN =Li: 1s2s                                                                                 
   LEXCH  = PE                                                                                      
   EATOM  =   200.9989 eV,   14.7730 Ry                                                             
                                                                                                    
   TITEL  = PAW_PBE Li_sv_GW 25Mar2010                                                              
   LULTRA =        F    use ultrasoft PP ?                                                          
   IUNSCR =        0    unscreen: 0-lin 1-nonlin 2-no                                               
   RPACOR =    0.000    partial core radius                                                         
   POMASS =    7.010; ZVAL   =    3.000    mass and valenz                                          
   RCORE  =    1.500    outmost cutoff radius                                                       
   RWIGS  =    1.600; RWIGS  =    0.847    wigner-seitz radius (au A)                               
   ENMAX  =  433.699; ENMIN  =  325.274 eV                                                          
   RCLOC  =    1.003    cutoff for local pot                                                        
   LCOR   =        T    correct aug charges                                                         
   LPAW   =        T    paw PP                                                                      
   EAUG   = 1041.699                                                                                
   RMAX   =    1.536    core radius for proj-oper                                                   
   RAUG   =    1.300    factor for augmentation sphere                                              
   RDEP   =    1.520    radius for radial grids                                                     
   RDEPT  =    1.300    core radius for aug-charge                                                  
                                                                                                    
   Atomic configuration                                                                             
    4 entries                                                                                       
     n  l   j            E        occ.                                                              
     1  0  0.50       -53.3604   2.0000                                                             
     1  0  0.50       -52.0001   0.0000                                                             
     2  1  0.50        -1.5636   1.0000                                                             
     3  2  1.50        -1.3606   0.0000                                                             
   Description                                                                                      
     l       E           TYP  RCUT    TYP  RCUT                                                     
     0    -53.3603633     23  1.200                                                                 
     0    -52.0001064     23  1.200                                                                 
     0    176.8757380     23  1.300                                                                 
     1     -1.5635925     23  1.500                                                                 
     1    108.8466080     23  1.500                                                                 
     2     81.6349560     23  1.500                                                                 
  local pseudopotential read in
  kinetic energy density of atom read in
  atomic valenz-charges read in
  non local Contribution for L=           0  read in
    real space projection operators read in
  non local Contribution for L=           0  read in
    real space projection operators read in
  non local Contribution for L=           0  read in
    real space projection operators read in
  non local Contribution for L=           1  read in
    real space projection operators read in
  non local Contribution for L=           1  read in
    real space projection operators read in
  non local Contribution for L=           2  read in
    real space projection operators read in
    PAW grid and wavefunctions read in
 
   number of l-projection  operators is LMAX  =           6
   number of lm-projection operators is LMMAX =          14
 
 POTCAR:    PAW_PBE P_GW 19Mar2012                
   SHA256 =  715c28f2291d37b61637ce89646c59f66f71c8b8d8bfba631e5feb9f7b42defe P_GW/POTCAR           
   COPYR  = (c) Copyright 19Mar2012 Georg Kresse                                                    
   COPYR  = This file is part of the software VASP. Any use, copying, and all other rights are regul
   COPYR  = If you do not have a valid VASP license, you may not use, copy or distribute this file. 
   VRHFIN =P : s2p3                                                                                 
   LEXCH  = PE                                                                                      
   EATOM  =   176.0430 eV,   12.9388 Ry                                                             
                                                                                                    
   TITEL  = PAW_PBE P_GW 19Mar2012                                                                  
   LULTRA =        F    use ultrasoft PP ?                                                          
   IUNSCR =        1    unscreen: 0-lin 1-nonlin 2-no                                               
   RPACOR =    1.400    partial core radius                                                         
   POMASS =   30.974; ZVAL   =    5.000    mass and valenz                                          
   RCORE  =    2.000    outmost cutoff radius                                                       
   RWIGS  =    1.900; RWIGS  =    1.005    wigner-seitz radius (au A)                               
   ENMAX  =  255.040; ENMIN  =  191.280 eV                                                          
   ICORE  =        3    local potential                                                             
   LCOR   =        T    correct aug charges                                                         
   LPAW   =        T    paw PP                                                                      
   EAUG   =  499.732                                                                                
   DEXC   =    0.000                                                                                
   RMAX   =    2.047    core radius for proj-oper                                                   
   RAUG   =    1.300    factor for augmentation sphere                                              
   RDEP   =    2.059    radius for radial grids                                                     
   RDEPT  =    1.900    core radius for aug-charge                                                  
                                                                                                    
   Atomic configuration                                                                             
    7 entries                                                                                       
     n  l   j            E        occ.                                                              
     1  0  0.50     -2084.0982   2.0000                                                             
     2  0  0.50      -173.9859   2.0000                                                             
     2  1  1.50      -124.4865   6.0000                                                             
     3  0  0.50       -13.9692   2.0000                                                             
     3  1  0.50        -5.5067   3.0000                                                             
     3  2  1.50        -6.8029   0.0000                                                             
     4  3  2.50        -1.3606   0.0000                                                             
   Description                                                                                      
     l       E           TYP  RCUT    TYP  RCUT                                                     
     0    -13.9691528     23  1.900                                                                 
     0    102.0436950     23  1.900                                                                 
     1     -5.5066939     23  1.900                                                                 
     1    102.0436950     23  1.900                                                                 
     2     -8.1634956     23  2.000                                                                 
     2     81.6349560     23  2.000                                                                 
     3     27.2116520     23  2.000                                                                 
  local pseudopotential read in
  partial core-charges read in
  partial kinetic energy density read in
  kinetic energy density of atom read in
  atomic valenz-charges read in
  non local Contribution for L=           0  read in
    real space projection operators read in
  non local Contribution for L=           0  read in
    real space projection operators read in
  non local Contribution for L=           1  read in
    real space projection operators read in
  non local Contribution for L=           1  read in
    real space projection operators read in
  non local Contribution for L=           2  read in
    real space projection operators read in
  non local Contribution for L=           2  read in
    real space projection operators read in
    PAW grid and wavefunctions read in
 
   number of l-projection  operators is LMAX  =           6
   number of lm-projection operators is LMMAX =          18
 
 POTCAR:    PAW_PBE S_GW 19Mar2012                
   SHA256 =  357db9cfb0783579b2eebe03197c2d807131fea8ea663b1fcfb6ce2fa75af011 S_GW/POTCAR           
   COPYR  = (c) Copyright 19Mar2012 Georg Kresse                                                    
   COPYR  = This file is part of the software VASP. Any use, copying, and all other rights are regul
   COPYR  = If you do not have a valid VASP license, you may not use, copy or distribute this file. 
   VRHFIN =S : s2p4                                                                                 
   LEXCH  = PE                                                                                      
   EATOM  =   276.8230 eV,   20.3459 Ry                                                             
                                                                                                    
   TITEL  = PAW_PBE S_GW 19Mar2012                                                                  
   LULTRA =        F    use ultrasoft PP ?                                                          
   IUNSCR =        1    unscreen: 0-lin 1-nonlin 2-no                                               
   RPACOR =    1.400    partial core radius                                                         
   POMASS =   32.066; ZVAL   =    6.000    mass and valenz                                          
   RCORE  =    1.900    outmost cutoff radius                                                       
   RWIGS  =    1.900; RWIGS  =    1.005    wigner-seitz radius (au A)                               
   ENMAX  =  258.689; ENMIN  =  194.016 eV                                                          
   ICORE  =        3    local potential                                                             
   LCOR   =        T    correct aug charges                                                         
   LPAW   =        T    paw PP                                                                      
   EAUG   =  488.319                                                                                
   DEXC   =    0.000                                                                                
   RMAX   =    1.942    core radius for proj-oper                                                   
   RAUG   =    1.300    factor for augmentation sphere                                              
   RDEP   =    1.954    radius for radial grids                                                     
   RDEPT  =    1.900    core radius for aug-charge                                                  
                                                                                                    
   Atomic configuration                                                                             
    7 entries                                                                                       
     n  l   j            E        occ.                                                              
     1  0  0.50     -2405.8406   2.0000                                                             
     2  0  0.50      -211.7007   2.0000                                                             
     2  1  1.50      -156.4958   6.0000                                                             
     3  0  0.50       -17.2562   2.0000                                                             
     3  1  0.50        -7.0085   4.0000                                                             
     3  2  1.50        -8.1635   0.0000                                                             
     4  3  2.50        -1.3606   0.0000                                                             
   Description                                                                                      
     l       E           TYP  RCUT    TYP  RCUT                                                     
     0    -17.2561639     23  1.700                                                                 
     0     88.4378690     23  1.900                                                                 
     1     -7.0085399     23  1.900                                                                 
     1     88.4378690     23  1.900                                                                 
     2    -10.8846608     23  1.900                                                                 
     2     54.4233040     23  1.900                                                                 
     3     27.2116520     23  1.800                                                                 
  local pseudopotential read in
  partial core-charges read in
  partial kinetic energy density read in
  kinetic energy density of atom read in
  atomic valenz-charges read in
  non local Contribution for L=           0  read in
    real space projection operators read in
  non local Contribution for L=           0  read in
    real space projection operators read in
  non local Contribution for L=           1  read in
    real space projection operators read in
  non local Contribution for L=           1  read in
    real space projection operators read in
  non local Contribution for L=           2  read in
    real space projection operators read in
  non local Contribution for L=           2  read in
    real space projection operators read in
    PAW grid and wavefunctions read in
 
   number of l-projection  operators is LMAX  =           6
   number of lm-projection operators is LMMAX =          18
 
 POTCAR:    PAW_PBE Cl_GW 19Mar2012               
   SHA256 =  3ef3b3169d6a9a89979f58b4cf17d927a58518fc660d8883d88cacaee8175441 Cl_GW/POTCAR          
   COPYR  = (c) Copyright 19Mar2012 Georg Kresse                                                    
   COPYR  = This file is part of the software VASP. Any use, copying, and all other rights are regul
   COPYR  = If you do not have a valid VASP license, you may not use, copy or distribute this file. 
   VRHFIN =Cl: s2p5                                                                                 
   LEXCH  = PE                                                                                      
   EATOM  =   409.7259 eV,   30.1140 Ry                                                             
                                                                                                    
   TITEL  = PAW_PBE Cl_GW 19Mar2012                                                                 
   LULTRA =        F    use ultrasoft PP ?                                                          
   IUNSCR =        1    unscreen: 0-lin 1-nonlin 2-no                                               
   RPACOR =    1.400    partial core radius                                                         
   POMASS =   35.453; ZVAL   =    7.000    mass and valenz                                          
   RCORE  =    1.900    outmost cutoff radius                                                       
   RWIGS  =    1.900; RWIGS  =    1.005    wigner-seitz radius (au A)                               
   ENMAX  =  262.472; ENMIN  =  196.854 eV                                                          
   ICORE  =        3    local potential                                                             
   LCOR   =        T    correct aug charges                                                         
   LPAW   =        T    paw PP                                                                      
   EAUG   =  456.703                                                                                
   DEXC   =    0.000                                                                                
   RMAX   =    1.945    core radius for proj-oper                                                   
   RAUG   =    1.300    factor for augmentation sphere                                              
   RDEP   =    2.020    radius for radial grids                                                     
   RDEPT  =    1.900    core radius for aug-charge                                                  
                                                                                                    
   Atomic configuration                                                                             
    7 entries                                                                                       
     n  l   j            E        occ.                                                              
     1  0  0.50     -2751.1850   2.0000                                                             
     2  0  0.50      -252.6861   2.0000                                                             
     2  1  1.50      -191.6157   6.0000                                                             
     3  0  0.50       -20.6916   2.0000                                                             
     3  1  0.50        -8.5949   5.0000                                                             
     3  2  1.50        -9.5241   0.0000                                                             
     4  3  2.50        -9.5241   0.0000                                                             
   Description                                                                                      
     l       E           TYP  RCUT    TYP  RCUT                                                     
     0    -20.6915657     23  1.700                                                                 
     0     95.2407820     23  1.800                                                                 
     1     -8.5948577     23  1.900                                                                 
     1     95.2407820     23  1.900                                                                 
     2    -10.8846608     23  1.900                                                                 
     2     54.4233040     23  1.900                                                                 
     3     27.2116520     23  1.900                                                                 
  local pseudopotential read in
  partial core-charges read in
  partial kinetic energy density read in
  kinetic energy density of atom read in
  atomic valenz-charges read in
  non local Contribution for L=           0  read in
    real space projection operators read in
  non local Contribution for L=           0  read in
    real space projection operators read in
  non local Contribution for L=           1  read in
    real space projection operators read in
  non local Contribution for L=           1  read in
    real space projection operators read in
  non local Contribution for L=           2  read in
    real space projection operators read in
  non local Contribution for L=           2  read in
    real space projection operators read in
    PAW grid and wavefunctions read in
 
   number of l-projection  operators is LMAX  =           6
   number of lm-projection operators is LMMAX =          18
 
 Optimization of the real space projectors (new method)

 maximal supplied QI-value         = 25.13
 optimisation between [QCUT,QGAM] = [ 11.56, 23.12] = [ 37.43,149.72] Ry 
 Optimized for a Real-space Cutoff    1.28 Angstroem

   l    n(q)    QCUT    max X(q) W(low)/X(q) W(high)/X(q)  e(spline) 
   0      9    11.561    87.733    0.11E-03    0.32E-04    0.56E-06
   0      9    11.561    82.800    0.11E-03    0.35E-04    0.56E-06
   0      9    11.561     2.509    0.22E-03    0.42E-04    0.79E-06
   1      8    11.561    12.580    0.94E-04    0.26E-03    0.21E-06
   1      8    11.561     1.319    0.33E-04    0.15E-03    0.19E-06
   2      8    11.561     1.993    0.36E-04    0.89E-04    0.26E-06
 Optimization of the real space projectors (new method)

 maximal supplied QI-value         = 18.90
 optimisation between [QCUT,QGAM] = [ 11.53, 23.24] = [ 37.21,151.29] Ry 
 Optimized for a Real-space Cutoff    1.21 Angstroem

   l    n(q)    QCUT    max X(q) W(low)/X(q) W(high)/X(q)  e(spline) 
   0      8    11.527     8.355    0.73E-04    0.70E-04    0.26E-07
   0      8    11.527     1.401    0.17E-03    0.17E-03    0.63E-07
   1      8    11.527     4.747    0.13E-03    0.17E-03    0.11E-06
   1      8    11.527     2.025    0.16E-03    0.18E-03    0.12E-06
   2      7    11.527     3.169    0.51E-04    0.25E-03    0.60E-07
   2      7    11.527     3.441    0.82E-04    0.22E-03    0.14E-06
 Optimization of the real space projectors (new method)

 maximal supplied QI-value         = 19.84
 optimisation between [QCUT,QGAM] = [ 11.51, 23.22] = [ 37.09,150.92] Ry 
 Optimized for a Real-space Cutoff    1.49 Angstroem

   l    n(q)    QCUT    max X(q) W(low)/X(q) W(high)/X(q)  e(spline) 
   0     10    11.508     7.541    0.34E-04    0.13E-04    0.69E-07
   0     10    11.508     1.809    0.49E-04    0.27E-04    0.14E-06
   1     10    11.508     4.107    0.27E-05    0.41E-05    0.14E-06
   1     10    11.508     2.196    0.26E-05    0.25E-05    0.22E-06
   2      9    11.508     4.265    0.18E-03    0.11E-03    0.81E-06
   2      9    11.508     1.925    0.97E-04    0.76E-04    0.47E-06
 Optimization of the real space projectors (new method)

 maximal supplied QI-value         = 19.84
 optimisation between [QCUT,QGAM] = [ 11.51, 23.22] = [ 37.09,150.92] Ry 
 Optimized for a Real-space Cutoff    1.21 Angstroem

   l    n(q)    QCUT    max X(q) W(low)/X(q) W(high)/X(q)  e(spline) 
   0      8    11.508     6.761    0.57E-04    0.57E-04    0.35E-07
   0      8    11.508     1.642    0.14E-03    0.14E-03    0.91E-07
   1      8    11.508     3.519    0.20E-04    0.72E-04    0.47E-07
   1      8    11.508     2.150    0.27E-04    0.11E-03    0.89E-07
   2      7    11.508     2.976    0.19E-03    0.33E-03    0.16E-06
   2      7    11.508     1.494    0.14E-03    0.29E-03    0.14E-06
  PAW_PBE Li_sv_GW 25Mar2010            :
 energy of atom  1       EATOM= -200.9989
 kinetic energy error for atom=    0.0127 (will be added to EATOM!!)
  PAW_PBE P_GW 19Mar2012                :
 energy of atom  2       EATOM= -176.0430
 kinetic energy error for atom=    0.0011 (will be added to EATOM!!)
  PAW_PBE S_GW 19Mar2012                :
 energy of atom  3       EATOM= -276.8230
 kinetic energy error for atom=    0.0024 (will be added to EATOM!!)
  PAW_PBE Cl_GW 19Mar2012               :
 energy of atom  4       EATOM= -409.7259
 kinetic energy error for atom=    0.0030 (will be added to EATOM!!)
 
 
 POSCAR: Li24 P4 S20 Cl4
  positions in direct lattice
  velocities in cartesian coordinates
 exchange correlation table for  LEXCH =        8
   RHO(1)=    0.500       N(1)  =     2000
   RHO(2)=  100.500       N(2)  =     4000

 VTST: version 4.1, (05/19/21)

 CHAIN: initializing optimizer
 
 OPT: Using VASP Conjugate-Gradient optimizer
 CHAIN: Read ICHAIN            0
 
 POSCAR: Li24 P4 S20 Cl4
  positions in direct lattice
  velocities in cartesian coordinates
 


--------------------------------------------------------------------------------------------------------


 ion  position               nearest neighbor table
   1  0.965  0.199  0.163-
   2  0.986  0.705  0.668-
   3  0.024  0.219  0.782-
   4  0.019  0.809  0.175-
   5  0.338  0.327  0.961-
   6  0.314  0.669  0.042-
   7  0.674  0.285  0.014-
   8  0.730  0.685  0.987-
   9  0.223  0.989  0.188-
  10  0.215  0.024  0.840-
  11  0.835  0.956  0.829-
  12  0.727  0.020  0.304-
  13  0.307  0.828  0.481-
  14  0.203  0.287  0.517-
  15  0.688  0.829  0.549-
  16  0.823  0.314  0.461-
  17  0.198  0.478  0.717-
  18  0.156  0.545  0.319-
  19  0.678  0.478  0.213-
  20  0.794  0.507  0.698-
  21  0.472  0.160  0.667-
  22  0.484  0.788  0.272-
  23  0.516  0.202  0.318-
  24  0.532  0.673  0.796-
  25  0.494  0.503  0.499-  44 2.05  43 2.05  41 2.05  42 2.06
  26  0.518  0.991  0.992-  37 2.04  40 2.05  38 2.06  39 2.06
  27  0.006  0.496  0.008-  36 2.04  35 2.05  33 2.06  34 2.06
  28  0.003  1.000  0.501-  31 2.05  32 2.05  29 2.05  30 2.06
  29  0.133  0.898  0.635-  28 2.05
  30  0.110  0.125  0.365-  28 2.06
  31  0.891  0.856  0.393-  28 2.05
  32  0.869  0.116  0.618-  28 2.05
  33  0.890  0.602  0.152-  27 2.06
  34  0.876  0.374  0.891-  27 2.06
  35  0.115  0.634  0.888-  27 2.05
  36  0.143  0.377  0.117-  27 2.04
  37  0.633  0.104  0.854-  26 2.04
  38  0.649  0.879  0.117-  26 2.06
  39  0.401  0.130  0.105-  26 2.06
  40  0.390  0.859  0.887-  26 2.05
  41  0.629  0.630  0.395-  25 2.05
  42  0.613  0.365  0.612-  25 2.06
  43  0.371  0.626  0.621-  25 2.05
  44  0.370  0.396  0.365-  25 2.05
  45  0.761  0.736  0.757-
  46  0.742  0.250  0.244-
  47  0.248  0.762  0.254-
  48  0.258  0.247  0.747-
  49  0.021  0.008  0.004-
  50  0.011  0.483  0.534-
  51  0.511  0.992  0.467-
  52  0.523  0.510  0.003-
 
  LATTYP: Found a simple cubic cell.
 ALAT       =     9.6464353596
  
  Lattice vectors:
  
 A1 = (   9.6464353596,   0.0000000000,   0.0000000000)
 A2 = (   0.0000000000,   9.6464353596,   0.0000000000)
 A3 = (   0.0000000000,   0.0000000000,   9.6464353596)


Analysis of symmetry for initial positions (statically):
=====================================================================
 Subroutine PRICEL returns:
 Original cell was already a primitive cell.
 

 Routine SETGRP: Setting up the symmetry group for a 
 simple cubic supercell.


 Subroutine GETGRP returns: Found  1 space group operations
 (whereof  1 operations were pure point group operations)
 out of a pool of 48 trial point group operations.


The static configuration has the point symmetry C_1 .


Analysis of symmetry for dynamics (positions and initial velocities):
=====================================================================
 Subroutine PRICEL returns:
 Original cell was already a primitive cell.
 

 Routine SETGRP: Setting up the symmetry group for a 
 simple cubic supercell.


 Subroutine GETGRP returns: Found  1 space group operations
 (whereof  1 operations were pure point group operations)
 out of a pool of 48 trial point group operations.


The dynamic configuration has the point symmetry C_1 .


Analysis of structural, dynamic, and magnetic symmetry:
=====================================================================
 Subroutine PRICEL returns:
 Original cell was already a primitive cell.
 

 Routine SETGRP: Setting up the symmetry group for a 
 simple cubic supercell.


 Subroutine GETGRP returns: Found  1 space group operations
 (whereof  1 operations were pure point group operations)
 out of a pool of 48 trial point group operations.


The overall configuration has the point symmetry C_1 .


 Subroutine INISYM returns: Found  1 space group operations
 (whereof  1 operations are pure point group operations),
 and found     1 'primitive' translations


----------------------------------------------------------------------------------------

                                     Primitive cell                                     

  volume of cell :     897.6366

  direct lattice vectors                    reciprocal lattice vectors
     9.646435360  0.000000000  0.000000000     0.103665236  0.000000000  0.000000000
     0.000000000  9.646435360  0.000000000     0.000000000  0.103665236  0.000000000
     0.000000000  0.000000000  9.646435360     0.000000000  0.000000000  0.103665236

  length of vectors
     9.646435360  9.646435360  9.646435360     0.103665236  0.103665236  0.103665236

  position of ions in fractional coordinates (direct lattice)
     0.964960874  0.198799180  0.162627006
     0.985635448  0.705013904  0.668325563
     0.023922082  0.218501395  0.781567339
     0.018575868  0.808702654  0.174841554
     0.338353072  0.327084952  0.960689993
     0.313808390  0.668664613  0.042481000
     0.674295204  0.285055719  0.013915346
     0.730487248  0.685049791  0.986571618
     0.222778232  0.989303919  0.187989280
     0.214702337  0.024371053  0.839650992
     0.835165820  0.955785409  0.828752076
     0.727289971  0.020101450  0.304315041
     0.307014535  0.827514817  0.481206658
     0.203455467  0.287118247  0.516718045
     0.688027755  0.828515621  0.548857807
     0.822592340  0.313943984  0.461443137
     0.198112200  0.478016702  0.716903203
     0.155928001  0.544665378  0.318922733
     0.678348352  0.478396356  0.213476855
     0.793605339  0.507310654  0.698237432
     0.472471428  0.160267996  0.666986459
     0.484487088  0.788272966  0.272093995
     0.515826872  0.201844861  0.317586651
     0.531900569  0.673062204  0.795894165
     0.494418707  0.502687044  0.499290956
     0.518394036  0.991407344  0.991794475
     0.005871928  0.496286688  0.007684026
     0.003279543  0.999891351  0.500887720
     0.133263623  0.897950981  0.635311165
     0.109605278  0.124798261  0.364921387
     0.890511716  0.856054908  0.392540600
     0.868849956  0.115680834  0.618049450
     0.889584038  0.602014376  0.151713221
     0.875819021  0.374026753  0.890598321
     0.115297648  0.633504727  0.887634481
     0.142666145  0.377433762  0.117463456
     0.633008902  0.103716072  0.853825572
     0.649299925  0.878941256  0.116748939
     0.400698958  0.129546975  0.105034953
     0.390043980  0.858828316  0.887176170
     0.629280335  0.630484584  0.395348332
     0.612632268  0.365480616  0.611716626
     0.371064932  0.625624223  0.621472425
     0.369654272  0.395811512  0.364580394
     0.761332221  0.736109629  0.756808284
     0.742434967  0.249833415  0.244032564
     0.247765976  0.761612380  0.254433063
     0.257742161  0.247066730  0.747086319
     0.021312498  0.008463358  0.003512270
     0.011467722  0.483027402  0.534392862
     0.510658188  0.992308157  0.467099694
     0.523383248  0.510176592  0.002798282

  ion indices of the primitive-cell ions
   primitive index   ion index
                 1           1
                 2           2
                 3           3
                 4           4
                 5           5
                 6           6
                 7           7
                 8           8
                 9           9
                10          10
                11          11
                12          12
                13          13
                14          14
                15          15
                16          16
                17          17
                18          18
                19          19
                20          20
                21          21
                22          22
                23          23
                24          24
                25          25
                26          26
                27          27
                28          28
                29          29
                30          30
                31          31
                32          32
                33          33
                34          34
                35          35
                36          36
                37          37
                38          38
                39          39
                40          40
                41          41
                42          42
                43          43
                44          44
                45          45
                46          46
                47          47
                48          48
                49          49
                50          50
                51          51
                52          52

----------------------------------------------------------------------------------------

 
 
 KPOINTS: Automatic mesh                          

Automatic generation of k-mesh.
 Grid dimensions read from file:
 generate k-points for:    2    2    2

 Generating k-lattice:

  Cartesian coordinates                     Fractional coordinates (reciprocal lattice)
     0.051832618  0.000000000  0.000000000     0.500000000  0.000000000  0.000000000
     0.000000000  0.051832618  0.000000000     0.000000000  0.500000000  0.000000000
     0.000000000  0.000000000  0.051832618     0.000000000  0.000000000  0.500000000

  Length of vectors
     0.051832618  0.051832618  0.051832618

  Shift w.r.t. Gamma in fractional coordinates (k-lattice)
     0.500000000  0.500000000  0.500000000

 
 Subroutine IBZKPT returns following result:
 ===========================================
 
 Found      4 irreducible k-points:
 
 Following reciprocal coordinates:
            Coordinates               Weight
  0.250000  0.250000  0.250000      2.000000
 -0.250000  0.250000  0.250000      2.000000
 -0.250000 -0.250000  0.250000      2.000000
  0.250000 -0.250000  0.250000      2.000000
 
 Following cartesian coordinates:
            Coordinates               Weight
  0.025916  0.025916  0.025916      2.000000
 -0.025916  0.025916  0.025916      2.000000
 -0.025916 -0.025916  0.025916      2.000000
  0.025916 -0.025916  0.025916      2.000000
 


--------------------------------------------------------------------------------------------------------




 Dimension of arrays:
   k-points           NKPTS =      4   k-points in BZ     NKDIM =      4   number of bands    NBANDS=    176
   number of dos      NEDOS =    301   number of ions     NIONS =     52
   non local maximal  LDIM  =      6   non local SUM 2l+1 LMDIM =     18
   total plane-waves  NPLWV = 373248
   max r-space proj   IRMAX =   5801   max aug-charges    IRDMAX=  17747
   dimension x,y,z NGX =    72 NGY =   72 NGZ =   72
   dimension x,y,z NGXF=   144 NGYF=  144 NGZF=  144
   support grid    NGXF=   144 NGYF=  144 NGZF=  144
   ions per type =              24   4  20   4
   NGX,Y,Z   is equivalent  to a cutoff of  12.41, 12.41, 12.41 a.u.
   NGXF,Y,Z  is equivalent  to a cutoff of  24.82, 24.82, 24.82 a.u.

 SYSTEM =  unknown system                          
 POSCAR =  Li24 P4 S20 Cl4                         

 Startparameter for this run:
   NWRITE =      2    write-flag & timer
   PREC   = accu      normal or accurate (medium, high low for compatibility)
   ISTART =      0    job   : 0-new  1-cont  2-samecut
   ICHARG =      2    charge: 1-file 2-atom 10-const
   ISPIN  =      2    spin polarized calculation?
   LNONCOLLINEAR =      F non collinear calculations
   LSORBIT =      F    spin-orbit coupling
   INIWAV =      1    electr: 0-lowe 1-rand  2-diag
   LASPH  =      T    aspherical Exc in radial PAW
 Electronic Relaxation 1
   ENCUT  =  520.0 eV  38.22 Ry    6.18 a.u.  17.94 17.94 17.94*2*pi/ulx,y,z
   ENINI  =  520.0     initial cutoff
   ENAUG  = 1041.7 eV  augmentation charge cutoff
   NELM   =    100;   NELMIN=  2; NELMDL=-10     # of ELM steps 
   EDIFF  = 0.1E-05   stopping-criterion for ELM
   LREAL  =      T    real-space projection
   NLSPLINE    = F    spline interpolate recip. space projectors
   LCOMPAT=      F    compatible to vasp.4.4
   GGA_COMPAT  = T    GGA compatible to vasp.4.4-vasp.4.6
   LMAXPAW     = -100 max onsite density
   LMAXMIX     =    4 max onsite mixed and CHGCAR
   VOSKOWN=      0    Vosko Wilk Nusair interpolation
   ROPT   =   -0.00025  -0.00025  -0.00025  -0.00025
 Ionic relaxation
   EDIFFG = -.1E-02   stopping-criterion for IOM
   NSW    =   1000    number of steps for IOM
   NBLOCK =      1;   KBLOCK =   1000    inner block; outer block 
   IBRION =      2    ionic relax: 0-MD 1-quasi-New 2-CG
   NFREE  =      1    steps in history (QN), initial steepest desc. (CG)
   ISIF   =      2    stress and relaxation
   IWAVPR =     11    prediction:  0-non 1-charg 2-wave 3-comb
   ISYM   =      2    0-nonsym 1-usesym 2-fastsym
   LCORR  =      T    Harris-Foulkes like correction to forces

   POTIM  = 0.2000    time-step for ionic-motion
   TEIN   =    0.0    initial temperature
   TEBEG  =    0.0;   TEEND  =   0.0 temperature during run
   SMASS  =  -3.00    Nose mass-parameter (am)
   estimated Nose-frequenzy (Omega)   =  0.10E-29 period in steps = 0.31E+47 mass=  -0.213E-26a.u.
   SCALEE = 1.0000    scale energy and forces
   NPACO  =    256;   APACO  = 10.0  distance and # of slots for P.C.
   PSTRESS=    0.0 pullay stress

  Mass of Ions in am
   POMASS =   7.01 30.97 32.07 35.45
  Ionic Valenz
   ZVAL   =   3.00  5.00  6.00  7.00
  Atomic Wigner-Seitz radii
   RWIGS  =  -1.00 -1.00 -1.00 -1.00
  virtual crystal weights 
   VCA    =   1.00  1.00  1.00  1.00
   NELECT =     240.0000    total number of electrons
   NUPDOWN=      -1.0000    fix difference up-down

 DOS related values:
   EMIN   =  10.00;   EMAX   =-10.00  energy-range for DOS
   EFERMI =   0.00;   METHOD = LEGACY      
   ISMEAR =     0;   SIGMA  =   0.03  broadening in eV -4-tet -1-fermi 0-gaus

 Electronic relaxation 2 (details)
   IALGO  =     68    algorithm
   LDIAG  =      T    sub-space diagonalisation (order eigenvalues)
   LSUBROT=      F    optimize rotation matrix (better conditioning)
   TURBO    =      0    0=normal 1=particle mesh
   IRESTART =      0    0=no restart 2=restart with 2 vectors
   NREBOOT  =      0    no. of reboots
   NMIN     =      0    reboot dimension
   EREF     =   0.00    reference energy to select bands
   IMIX   =      4    mixing-type and parameters
     AMIX     =   0.40;   BMIX     =  1.00
     AMIX_MAG =   1.60;   BMIX_MAG =  1.00
     AMIN     =   0.10
     WC   =   100.;   INIMIX=   1;  MIXPRE=   1;  MAXMIX= -45

 Intra band minimization:
   WEIMIN = 0.0010     energy-eigenvalue tresh-hold
   EBREAK =  0.14E-08  absolut break condition
   DEPER  =   0.30     relativ break condition  

   TIME   =   0.40     timestep for ELM

  volume/ion in A,a.u.               =      17.26       116.49
  Fermi-wavevector in a.u.,A,eV,Ry     =   1.054658  1.993015 15.133813  1.112304
  Thomas-Fermi vector in A             =   2.189827
 
 Write flags
   LWAVE        =      F    write WAVECAR
   LDOWNSAMPLE  =      F    k-point downsampling of WAVECAR
   LCHARG       =      F    write CHGCAR
   LVTOT        =      F    write LOCPOT, total local potential
   LVHAR        =      F    write LOCPOT, Hartree potential only
   LELF         =      F    write electronic localiz. function (ELF)
   LORBIT       =      0    0 simple, 1 ext, 2 COOP (PROOUT), +10 PAW based schemes


 Dipole corrections
   LMONO  =      F    monopole corrections only (constant potential shift)
   LDIPOL =      F    correct potential (dipole corrections)
   IDIPOL =      0    1-x, 2-y, 3-z, 4-all directions 
   EPSILON=  1.0000000 bulk dielectric constant

 Exchange correlation treatment:
   GGA     =    PE    GGA type
   LEXCH   =     8    internal setting for exchange type
   LIBXC   =     F    Libxc                    
   VOSKOWN =     0    Vosko Wilk Nusair interpolation
   LHFCALC =     F    Hartree Fock is set to
   LHFONE  =     F    Hartree Fock one center treatment
   AEXX    =    0.0000 exact exchange contribution

 Linear response parameters
   LEPSILON=     F    determine dielectric tensor
   LRPA    =     F    only Hartree local field effects (RPA)
   LNABLA  =     F    use nabla operator in PAW spheres
   LVEL    =     F    velocity operator in full k-point grid
   CSHIFT  =0.1000    complex shift for real part using Kramers Kronig
   OMEGAMAX=  -1.0    maximum frequency
   DEG_THRESHOLD= 0.2000000E-02 threshold for treating states as degnerate
   RTIME   =   -0.100 relaxation time in fs
  (WPLASMAI=    0.000 imaginary part of plasma frequency in eV, 0.658/RTIME)
   DFIELD  = 0.0000000 0.0000000 0.0000000 field for delta impulse in time
 
  Optional k-point grid parameters
   LKPOINTS_OPT  =     F    use optional k-point grid
   KPOINTS_OPT_MODE=     1    mode for optional k-point grid
 
 Orbital magnetization related:
   ORBITALMAG=     F  switch on orbital magnetization
   LCHIMAG   =     F  perturbation theory with respect to B field
   DQ        =  0.001000  dq finite difference perturbation B field
   LLRAUG    =     F  two centre corrections for induced B field
   LBONE     =     F  B-component reconstruction in AE one-centre
   LVGVCALC  =     T  calculate vGv susceptibility
   LVGVAPPL  =     F  apply vGv susceptibility instead of pGv for G=0

 Random number generation:
   RANDOM_GENERATOR = DEFAULT
   PCG_SEED         = not used


--------------------------------------------------------------------------------------------------------


 conjugate gradient relaxation of ions
 charge density and potential will be updated during run
 spin polarized calculation
 RMM-DIIS sequential band-by-band and
  variant of blocked Davidson during initial phase
 perform sub-space diagonalisation
    before iterative eigenvector-optimisation
 modified Broyden-mixing scheme, WC =      100.0
 initial mixing is a Kerker type mixing with AMIX =  0.4000 and BMIX =      1.0000
 Hartree-type preconditioning will be used
 using additional bands           56
 real space projection scheme for non local part
 use partial core corrections
 calculate Harris-corrections to forces 
   (improved forces if not selfconsistent)
 use gradient corrections 
 use of overlap-Matrix (Vanderbilt PP)
 Gauss-broadening in eV      SIGMA  =   0.03


--------------------------------------------------------------------------------------------------------


  energy-cutoff  :      520.00
  volume of cell :      897.64
      direct lattice vectors                 reciprocal lattice vectors
     9.646435360  0.000000000  0.000000000     0.103665236  0.000000000  0.000000000
     0.000000000  9.646435360  0.000000000     0.000000000  0.103665236  0.000000000
     0.000000000  0.000000000  9.646435360     0.000000000  0.000000000  0.103665236

  length of vectors
     9.646435360  9.646435360  9.646435360     0.103665236  0.103665236  0.103665236


 
 k-points in units of 2pi/SCALE and weight: Automatic mesh                          
   0.02591631  0.02591631  0.02591631       0.250
  -0.02591631  0.02591631  0.02591631       0.250
  -0.02591631 -0.02591631  0.02591631       0.250
   0.02591631 -0.02591631  0.02591631       0.250
 
 k-points in reciprocal lattice and weights: Automatic mesh                          
   0.25000000  0.25000000  0.25000000       0.250
  -0.25000000  0.25000000  0.25000000       0.250
  -0.25000000 -0.25000000  0.25000000       0.250
   0.25000000 -0.25000000  0.25000000       0.250
 
 position of ions in fractional coordinates (direct lattice) 
   0.96496087  0.19879918  0.16262701
   0.98563545  0.70501390  0.66832556
   0.02392208  0.21850139  0.78156734
   0.01857587  0.80870265  0.17484155
   0.33835307  0.32708495  0.96068999
   0.31380839  0.66866461  0.04248100
   0.67429520  0.28505572  0.01391535
   0.73048725  0.68504979  0.98657162
   0.22277823  0.98930392  0.18798928
   0.21470234  0.02437105  0.83965099
   0.83516582  0.95578541  0.82875208
   0.72728997  0.02010145  0.30431504
   0.30701453  0.82751482  0.48120666
   0.20345547  0.28711825  0.51671805
   0.68802775  0.82851562  0.54885781
   0.82259234  0.31394398  0.46144314
   0.19811220  0.47801670  0.71690320
   0.15592800  0.54466538  0.31892273
   0.67834835  0.47839636  0.21347686
   0.79360534  0.50731065  0.69823743
   0.47247143  0.16026800  0.66698646
   0.48448709  0.78827297  0.27209400
   0.51582687  0.20184486  0.31758665
   0.53190057  0.67306220  0.79589417
   0.49441871  0.50268704  0.49929096
   0.51839404  0.99140734  0.99179447
   0.00587193  0.49628669  0.00768403
   0.00327954  0.99989135  0.50088772
   0.13326362  0.89795098  0.63531117
   0.10960528  0.12479826  0.36492139
   0.89051172  0.85605491  0.39254060
   0.86884996  0.11568083  0.61804945
   0.88958404  0.60201438  0.15171322
   0.87581902  0.37402675  0.89059832
   0.11529765  0.63350473  0.88763448
   0.14266614  0.37743376  0.11746346
   0.63300890  0.10371607  0.85382557
   0.64929993  0.87894126  0.11674894
   0.40069896  0.12954697  0.10503495
   0.39004398  0.85882832  0.88717617
   0.62928033  0.63048458  0.39534833
   0.61263227  0.36548062  0.61171663
   0.37106493  0.62562422  0.62147242
   0.36965427  0.39581151  0.36458039
   0.76133222  0.73610963  0.75680828
   0.74243497  0.24983341  0.24403256
   0.24776598  0.76161238  0.25443306
   0.25774216  0.24706673  0.74708632
   0.02131250  0.00846336  0.00351227
   0.01146772  0.48302740  0.53439286
   0.51065819  0.99230816  0.46709969
   0.52338325  0.51017659  0.00279828
 
 position of ions in cartesian coordinates  (Angst):
   9.30843270  1.91770344  1.56877090
   9.50786863  6.80087105  6.44695935
   0.23076281  2.10775958  7.53933881
   0.17919091  7.80109788  1.68659775
   3.26390104  3.15520385  9.26723392
   3.02713235  6.45022997  0.40979022
   6.50454510  2.74977157  0.13423348
   7.04659802  6.60828852  9.51689934
   2.14901581  9.54325630  1.81342644
   2.07111222  0.23509379  8.09963902
   8.05637310  9.21992216  7.99450333
   7.01575570  0.19390733  2.93555538
   2.96159586  7.98256819  4.64192892
   1.96262001  2.76966761  4.98448722
   6.63701526  7.99222238  5.29452136
   7.93508384  3.02844035  4.45128139
   1.91107653  4.61115721  6.91556040
   1.50414939  5.25407936  3.07646752
   6.54364353  4.61481953  2.05929069
   7.65546261  4.89373943  6.73550226
   4.55766509  1.54601487  6.43404176
   4.67357337  7.60402421  2.62473714
   4.97589058  1.94708340  3.06357910
   5.13094446  6.49265104  7.67754162
   4.76937810  4.84913808  4.81637794
   5.00065456  9.56354686  9.56728129
   0.05664317  4.78739746  0.07412346
   0.03163590  9.64538728  4.83178101
   1.28551892  8.66202609  6.12848809
   1.05730023  1.20385836  3.52019057
   8.59026371  8.25787833  3.78661752
   8.38130494  1.11590769  5.96197407
   8.58131492  5.80729276  1.46349178
   8.44853157  3.60802490  8.59109914
   1.11221131  6.11106240  8.56250864
   1.37621974  3.64089038  1.13310364
   6.10627945  1.00049039  8.23637319
   6.26342976  8.47865001  1.12621109
   3.86531659  1.24966652  1.01321288
   3.76253404  8.28463184  8.55808757
   6.07031207  6.08192879  3.81370213
   5.90971757  3.52558514  5.90088489
   3.57945388  6.03504363  5.99499357
   3.56584604  3.81817016  3.51690120
   7.34414206  7.10083395  7.30050219
   7.16185092  2.41000189  2.35404436
   2.39005847  7.34684459  2.45437210
   2.48629310  2.38331324  7.20671989
   0.20558963  0.08164123  0.03388089
   0.11062264  4.65949261  5.15498620
   4.92603120  9.57223650  4.50584700
   5.04878267  4.92138552  0.02699344
 


--------------------------------------------------------------------------------------------------------


 k-point   1 :   0.2500 0.2500 0.2500  plane waves:   24216
 k-point   2 :  -0.2500 0.2500 0.2500  plane waves:   24216
 k-point   3 :  -0.2500-0.2500 0.2500  plane waves:   24216
 k-point   4 :   0.2500-0.2500 0.2500  plane waves:   24216

 maximum and minimum number of plane-waves per node :       777      739

 maximum number of plane-waves:     24216
 maximum index in each direction: 
   IXMAX=   18   IYMAX=   18   IZMAX=   17
   IXMIN=  -18   IYMIN=  -18   IZMIN=  -18


 real space projection operators:
  total allocation   :      28481.39 KBytes
  max/ min on nodes  :       1189.80        722.77


 parallel 3D FFT for wavefunctions:
    minimum data exchange during FFTs selected (reduces bandwidth)
 parallel 3D FFT for charge:
    minimum data exchange during FFTs selected (reduces bandwidth)


 total amount of memory used by VASP MPI-rank0    48199. kBytes
=======================================================================

   base      :      30000. kBytes
   nonlr-proj:       6539. kBytes
   fftplans  :       1747. kBytes
   grid      :       5278. kBytes
   one-center:         62. kBytes
   wavefun   :       4573. kBytes
 
     INWAV:  cpu time      0.0000: real time      0.0000
 Broyden mixing: mesh for mixing (old mesh)
   NGX = 35   NGY = 35   NGZ = 35
  (NGX  =144   NGY  =144   NGZ  =144)
  gives a total of  42875 points

 initial charge density was supplied:
 charge density of overlapping atoms calculated
 number of electron     240.0000000 magnetization      52.0000000
 keeping initial charge density in first step


--------------------------------------------------------------------------------------------------------


 Maximum index for non-local projection operator          569
 Maximum index for augmentation-charges          788 (set IRDMAX)


--------------------------------------------------------------------------------------------------------


 First call to EWALD:  gamma=   0.184
 Maximum number of real-space cells 3x 3x 3
 Maximum number of reciprocal cells 3x 3x 3

    FEWALD:  cpu time      0.0029: real time      0.0032


--------------------------------------- Ionic step        1  -------------------------------------------




--------------------------------------- Iteration      1(   1)  ---------------------------------------


    POTLOK:  cpu time      0.0571: real time      0.0904
    SETDIJ:  cpu time      0.4337: real time      0.4415
     EDDAV:  cpu time      2.2913: real time      2.3920
       DOS:  cpu time      0.0021: real time      0.0036
    --------------------------------------------
      LOOP:  cpu time      2.7843: real time      2.9274

 eigenvalue-minimisations  :  3088
 total energy-change (2. order) : 0.1586473E+04  (-0.1140982E+05)
 number of electron     240.0000000 magnetization      52.0000000
 augmentation part      240.0000000 magnetization      52.0000000

 Free energy of the ion-electron system (eV)
  ---------------------------------------------------
  alpha Z        PSCENC =       302.41357040
  Ewald energy   TEWEN  =     -8854.81280657
  -Hartree energ DENC   =     -2086.55806472
  -exchange      EXHF   =         0.00000000
  -V(xc)+E(xc)   XCENC  =       534.41785307
  PAW double counting   =      8141.38806575    -8271.61346273
  entropy T*S    EENTRO =        -0.00435680
  eigenvalues    EBANDS =      -881.89773930
  atomic energy  EATOM  =     12703.13999606
  Solvation  Ediel_sol  =         0.00000000
  ---------------------------------------------------
  free energy    TOTEN  =      1586.47305515 eV

  energy without entropy =     1586.47741195  energy(sigma->0) =     1586.47523355


--------------------------------------------------------------------------------------------------------




--------------------------------------- Iteration      1(   2)  ---------------------------------------


     EDDAV:  cpu time      2.6392: real time      2.6643
       DOS:  cpu time      0.0004: real time      0.0004
    --------------------------------------------
      LOOP:  cpu time      2.6397: real time      2.6647

 eigenvalue-minimisations  :  3872
 total energy-change (2. order) :-0.1644509E+04  (-0.1545977E+04)
 number of electron     240.0000000 magnetization      52.0000000
 augmentation part      240.0000000 magnetization      52.0000000

 Free energy of the ion-electron system (eV)
  ---------------------------------------------------
  alpha Z        PSCENC =       302.41357040
  Ewald energy   TEWEN  =     -8854.81280657
  -Hartree energ DENC   =     -2086.55806472
  -exchange      EXHF   =         0.00000000
  -V(xc)+E(xc)   XCENC  =       534.41785307
  PAW double counting   =      8141.38806575    -8271.61346273
  entropy T*S    EENTRO =        -0.00000000
  eigenvalues    EBANDS =     -2526.41128402
  atomic energy  EATOM  =     12703.13999606
  Solvation  Ediel_sol  =         0.00000000
  ---------------------------------------------------
  free energy    TOTEN  =       -58.03613276 eV

  energy without entropy =      -58.03613276  energy(sigma->0) =      -58.03613276


--------------------------------------------------------------------------------------------------------




--------------------------------------- Iteration      1(   3)  ---------------------------------------


     EDDAV:  cpu time      2.5985: real time      2.6229
       DOS:  cpu time      0.0004: real time      0.0004
    --------------------------------------------
      LOOP:  cpu time      2.5989: real time      2.6234

 eigenvalue-minimisations  :  3720
 total energy-change (2. order) :-0.1697481E+03  (-0.1677053E+03)
 number of electron     240.0000000 magnetization      52.0000000
 augmentation part      240.0000000 magnetization      52.0000000

 Free energy of the ion-electron system (eV)
  ---------------------------------------------------
  alpha Z        PSCENC =       302.41357040
  Ewald energy   TEWEN  =     -8854.81280657
  -Hartree energ DENC   =     -2086.55806472
  -exchange      EXHF   =         0.00000000
  -V(xc)+E(xc)   XCENC  =       534.41785307
  PAW double counting   =      8141.38806575    -8271.61346273
  entropy T*S    EENTRO =        -0.00000000
  eigenvalues    EBANDS =     -2696.15942844
  atomic energy  EATOM  =     12703.13999606
  Solvation  Ediel_sol  =         0.00000000
  ---------------------------------------------------
  free energy    TOTEN  =      -227.78427719 eV

  energy without entropy =     -227.78427719  energy(sigma->0) =     -227.78427719


--------------------------------------------------------------------------------------------------------




--------------------------------------- Iteration      1(   4)  ---------------------------------------


     EDDAV:  cpu time      3.1487: real time      3.1755
       DOS:  cpu time      0.0004: real time      0.0004
    --------------------------------------------
      LOOP:  cpu time      3.1491: real time      3.1759

 eigenvalue-minimisations  :  4760
 total energy-change (2. order) :-0.1386133E+02  (-0.1383650E+02)
 number of electron     240.0000000 magnetization      52.0000000
 augmentation part      240.0000000 magnetization      52.0000000

 Free energy of the ion-electron system (eV)
  ---------------------------------------------------
  alpha Z        PSCENC =       302.41357040
  Ewald energy   TEWEN  =     -8854.81280657
  -Hartree energ DENC   =     -2086.55806472
  -exchange      EXHF   =         0.00000000
  -V(xc)+E(xc)   XCENC  =       534.41785307
  PAW double counting   =      8141.38806575    -8271.61346273
  entropy T*S    EENTRO =        -0.00000000
  eigenvalues    EBANDS =     -2710.02076271
  atomic energy  EATOM  =     12703.13999606
  Solvation  Ediel_sol  =         0.00000000
  ---------------------------------------------------
  free energy    TOTEN  =      -241.64561146 eV

  energy without entropy =     -241.64561146  energy(sigma->0) =     -241.64561146


--------------------------------------------------------------------------------------------------------




--------------------------------------- Iteration      1(   5)  ---------------------------------------


     EDDAV:  cpu time      2.9463: real time      2.9692
       DOS:  cpu time      0.0004: real time      0.0004
    --------------------------------------------
      LOOP:  cpu time      2.9467: real time      2.9696

 eigenvalue-minimisations  :  4440
 total energy-change (2. order) :-0.2074805E+00  (-0.2073760E+00)
 number of electron     240.0000000 magnetization      52.0000000
 augmentation part      240.0000000 magnetization      52.0000000

 Free energy of the ion-electron system (eV)
  ---------------------------------------------------
  alpha Z        PSCENC =       302.41357040
  Ewald energy   TEWEN  =     -8854.81280657
  -Hartree energ DENC   =     -2086.55806472
  -exchange      EXHF   =         0.00000000
  -V(xc)+E(xc)   XCENC  =       534.41785307
  PAW double counting   =      8141.38806575    -8271.61346273
  entropy T*S    EENTRO =        -0.00000000
  eigenvalues    EBANDS =     -2710.22824325
  atomic energy  EATOM  =     12703.13999606
  Solvation  Ediel_sol  =         0.00000000
  ---------------------------------------------------
  free energy    TOTEN  =      -241.85309200 eV

  energy without entropy =     -241.85309200  energy(sigma->0) =     -241.85309200


--------------------------------------------------------------------------------------------------------




--------------------------------------- Iteration      1(   6)  ---------------------------------------


     EDDAV:  cpu time      3.0387: real time      3.0629
       DOS:  cpu time      0.0004: real time      0.0004
    --------------------------------------------
      LOOP:  cpu time      3.0392: real time      3.0633

 eigenvalue-minimisations  :  4624
 total energy-change (2. order) :-0.1152625E-01  (-0.1152487E-01)
 number of electron     240.0000000 magnetization      52.0000000
 augmentation part      240.0000000 magnetization      52.0000000

 Free energy of the ion-electron system (eV)
  ---------------------------------------------------
  alpha Z        PSCENC =       302.41357040
  Ewald energy   TEWEN  =     -8854.81280657
  -Hartree energ DENC   =     -2086.55806472
  -exchange      EXHF   =         0.00000000
  -V(xc)+E(xc)   XCENC  =       534.41785307
  PAW double counting   =      8141.38806575    -8271.61346273
  entropy T*S    EENTRO =        -0.00000000
  eigenvalues    EBANDS =     -2710.23976951
  atomic energy  EATOM  =     12703.13999606
  Solvation  Ediel_sol  =         0.00000000
  ---------------------------------------------------
  free energy    TOTEN  =      -241.86461825 eV

  energy without entropy =     -241.86461825  energy(sigma->0) =     -241.86461825


--------------------------------------------------------------------------------------------------------




--------------------------------------- Iteration      1(   7)  ---------------------------------------


     EDDAV:  cpu time      3.0259: real time      3.0608
       DOS:  cpu time      0.0005: real time      0.0005
    --------------------------------------------
      LOOP:  cpu time      3.0263: real time      3.0612

 eigenvalue-minimisations  :  4576
 total energy-change (2. order) :-0.3837682E-03  (-0.3837429E-03)
 number of electron     240.0000000 magnetization      52.0000000
 augmentation part      240.0000000 magnetization      52.0000000

 Free energy of the ion-electron system (eV)
  ---------------------------------------------------
  alpha Z        PSCENC =       302.41357040
  Ewald energy   TEWEN  =     -8854.81280657
  -Hartree energ DENC   =     -2086.55806472
  -exchange      EXHF   =         0.00000000
  -V(xc)+E(xc)   XCENC  =       534.41785307
  PAW double counting   =      8141.38806575    -8271.61346273
  entropy T*S    EENTRO =        -0.00000000
  eigenvalues    EBANDS =     -2710.24015327
  atomic energy  EATOM  =     12703.13999606
  Solvation  Ediel_sol  =         0.00000000
  ---------------------------------------------------
  free energy    TOTEN  =      -241.86500202 eV

  energy without entropy =     -241.86500202  energy(sigma->0) =     -241.86500202


--------------------------------------------------------------------------------------------------------




--------------------------------------- Iteration      1(   8)  ---------------------------------------


     EDDAV:  cpu time      3.0041: real time      3.0289
       DOS:  cpu time      0.0004: real time      0.0004
    --------------------------------------------
      LOOP:  cpu time      3.0045: real time      3.0293

 eigenvalue-minimisations  :  4552
 total energy-change (2. order) :-0.2272958E-04  (-0.2272911E-04)
 number of electron     240.0000000 magnetization      52.0000000
 augmentation part      240.0000000 magnetization      52.0000000

 Free energy of the ion-electron system (eV)
  ---------------------------------------------------
  alpha Z        PSCENC =       302.41357040
  Ewald energy   TEWEN  =     -8854.81280657
  -Hartree energ DENC   =     -2086.55806472
  -exchange      EXHF   =         0.00000000
  -V(xc)+E(xc)   XCENC  =       534.41785307
  PAW double counting   =      8141.38806575    -8271.61346273
  entropy T*S    EENTRO =        -0.00000000
  eigenvalues    EBANDS =     -2710.24017600
  atomic energy  EATOM  =     12703.13999606
  Solvation  Ediel_sol  =         0.00000000
  ---------------------------------------------------
  free energy    TOTEN  =      -241.86502475 eV

  energy without entropy =     -241.86502475  energy(sigma->0) =     -241.86502475


--------------------------------------------------------------------------------------------------------




--------------------------------------- Iteration      1(   9)  ---------------------------------------


     EDDAV:  cpu time      2.9447: real time      2.9672
       DOS:  cpu time      0.0004: real time      0.0004
    --------------------------------------------
      LOOP:  cpu time      2.9451: real time      2.9676

 eigenvalue-minimisations  :  4440
 total energy-change (2. order) :-0.1415521E-05  (-0.1415092E-05)
 number of electron     240.0000000 magnetization      52.0000000
 augmentation part      240.0000000 magnetization      52.0000000

 Free energy of the ion-electron system (eV)
  ---------------------------------------------------
  alpha Z        PSCENC =       302.41357040
  Ewald energy   TEWEN  =     -8854.81280657
  -Hartree energ DENC   =     -2086.55806472
  -exchange      EXHF   =         0.00000000
  -V(xc)+E(xc)   XCENC  =       534.41785307
  PAW double counting   =      8141.38806575    -8271.61346273
  entropy T*S    EENTRO =        -0.00000000
  eigenvalues    EBANDS =     -2710.24017742
  atomic energy  EATOM  =     12703.13999606
  Solvation  Ediel_sol  =         0.00000000
  ---------------------------------------------------
  free energy    TOTEN  =      -241.86502616 eV

  energy without entropy =     -241.86502616  energy(sigma->0) =     -241.86502616


--------------------------------------------------------------------------------------------------------




--------------------------------------- Iteration      1(  10)  ---------------------------------------


     EDDAV:  cpu time      1.9496: real time      1.9653
       DOS:  cpu time      0.0004: real time      0.0004
    CHARGE:  cpu time      0.0674: real time      0.0735
    MIXING:  cpu time      0.0019: real time      0.0038
    --------------------------------------------
      LOOP:  cpu time      2.0194: real time      2.0431

 eigenvalue-minimisations  :  2600
 total energy-change (2. order) :-0.6289702E-07  (-0.6278598E-07)
 number of electron     239.9999995 magnetization      27.2165435
 augmentation part        1.4950153 magnetization      27.6590150

 Broyden mixing:
  rms(total) = 0.64182E+01    rms(broyden)= 0.64176E+01
  rms(prec ) = 0.66569E+01
  weight for this iteration     100.00

 Free energy of the ion-electron system (eV)
  ---------------------------------------------------
  alpha Z        PSCENC =       302.41357040
  Ewald energy   TEWEN  =     -8854.81280657
  -Hartree energ DENC   =     -2086.55806472
  -exchange      EXHF   =         0.00000000
  -V(xc)+E(xc)   XCENC  =       534.41785307
  PAW double counting   =      8141.38806575    -8271.61346273
  entropy T*S    EENTRO =        -0.00000000
  eigenvalues    EBANDS =     -2710.24017748
  atomic energy  EATOM  =     12703.13999606
  Solvation  Ediel_sol  =         0.00000000
  ---------------------------------------------------
  free energy    TOTEN  =      -241.86502623 eV

  energy without entropy =     -241.86502623  energy(sigma->0) =     -241.86502623


--------------------------------------------------------------------------------------------------------




--------------------------------------- Iteration      1(  11)  ---------------------------------------


    POTLOK:  cpu time      0.0544: real time      0.0553
    SETDIJ:  cpu time      0.3967: real time      0.3993
    EDDIAG:  cpu time      0.3644: real time      0.3668
  RMM-DIIS:  cpu time      1.1673: real time      1.1768
    ORTHCH:  cpu time      0.0673: real time      0.0690
       DOS:  cpu time      0.0005: real time      0.0005
    CHARGE:  cpu time      0.0647: real time      0.0672
    MIXING:  cpu time      0.0012: real time      0.0029
    --------------------------------------------
      LOOP:  cpu time      2.1166: real time      2.1379

 eigenvalue-minimisations  :  2816
 total energy-change (2. order) : 0.5476436E+01  (-0.4674054E+01)
 number of electron     239.9999995 magnetization      16.2878907
 augmentation part        1.7059088 magnetization      16.4708454

 Broyden mixing:
  rms(total) = 0.33005E+01    rms(broyden)= 0.33003E+01
  rms(prec ) = 0.34145E+01
  weight for this iteration     100.00

 eigenvalues of (default mixing * dielectric matrix)
  average eigenvalue GAMMA=   0.7251
  0.7251

 Free energy of the ion-electron system (eV)
  ---------------------------------------------------
  alpha Z        PSCENC =       302.41357040
  Ewald energy   TEWEN  =     -8854.81280657
  -Hartree energ DENC   =     -2133.49766573
  -exchange      EXHF   =         0.00000000
  -V(xc)+E(xc)   XCENC  =       542.61289083
  PAW double counting   =      8926.29509706    -9062.58906044
  entropy T*S    EENTRO =        -0.00000000
  eigenvalues    EBANDS =     -2659.95061212
  atomic energy  EATOM  =     12703.13999606
  Solvation  Ediel_sol  =         0.00000000
  ---------------------------------------------------
  free energy    TOTEN  =      -236.38859052 eV

  energy without entropy =     -236.38859052  energy(sigma->0) =     -236.38859052


--------------------------------------------------------------------------------------------------------




--------------------------------------- Iteration      1(  12)  ---------------------------------------


    POTLOK:  cpu time      0.0526: real time      0.0535
    SETDIJ:  cpu time      0.4056: real time      0.4081
    EDDIAG:  cpu time      0.3561: real time      0.3581
  RMM-DIIS:  cpu time      1.2243: real time      1.2346
    ORTHCH:  cpu time      0.0662: real time      0.0666
       DOS:  cpu time      0.0005: real time      0.0005
    CHARGE:  cpu time      0.0655: real time      0.0676
    MIXING:  cpu time      0.0011: real time      0.0011
    --------------------------------------------
      LOOP:  cpu time      2.1718: real time      2.1901

 eigenvalue-minimisations  :  2951
 total energy-change (2. order) :-0.1961152E+02  (-0.2110399E+01)
 number of electron     239.9999995 magnetization       0.5052689
 augmentation part        1.8035411 magnetization       0.8457710

 Broyden mixing:
  rms(total) = 0.20257E+01    rms(broyden)= 0.20257E+01
  rms(prec ) = 0.20862E+01
  weight for this iteration     100.00

 eigenvalues of (default mixing * dielectric matrix)
  average eigenvalue GAMMA=   1.1514
  1.6322  0.6705

 Free energy of the ion-electron system (eV)
  ---------------------------------------------------
  alpha Z        PSCENC =       302.41357040
  Ewald energy   TEWEN  =     -8854.81280657
  -Hartree energ DENC   =     -2156.90137398
  -exchange      EXHF   =         0.00000000
  -V(xc)+E(xc)   XCENC  =       536.26624968
  PAW double counting   =      9278.51920974    -9418.40745754
  entropy T*S    EENTRO =        -0.00000000
  eigenvalues    EBANDS =     -2646.21749425
  atomic energy  EATOM  =     12703.13999606
  Solvation  Ediel_sol  =         0.00000000
  ---------------------------------------------------
  free energy    TOTEN  =      -256.00010647 eV

  energy without entropy =     -256.00010647  energy(sigma->0) =     -256.00010647


--------------------------------------------------------------------------------------------------------




--------------------------------------- Iteration      1(  13)  ---------------------------------------


    POTLOK:  cpu time      0.0528: real time      0.0537
    SETDIJ:  cpu time      0.4038: real time      0.4058
    EDDIAG:  cpu time      0.3556: real time      0.3579
  RMM-DIIS:  cpu time      1.2151: real time      1.2251
    ORTHCH:  cpu time      0.0662: real time      0.0674
       DOS:  cpu time      0.0005: real time      0.0005
    CHARGE:  cpu time      0.0665: real time      0.0681
    MIXING:  cpu time      0.0011: real time      0.0011
    --------------------------------------------
      LOOP:  cpu time      2.1615: real time      2.1796

 eigenvalue-minimisations  :  2908
 total energy-change (2. order) :-0.2495263E+01  (-0.8814995E+00)
 number of electron     239.9999995 magnetization      -1.8917456
 augmentation part        1.9032844 magnetization      -1.7878919

 Broyden mixing:
  rms(total) = 0.67286E+00    rms(broyden)= 0.67285E+00
  rms(prec ) = 0.70491E+00
  weight for this iteration     100.00

 eigenvalues of (default mixing * dielectric matrix)
  average eigenvalue GAMMA=   1.3027
  2.5099  0.7462  0.6522

 Free energy of the ion-electron system (eV)
  ---------------------------------------------------
  alpha Z        PSCENC =       302.41357040
  Ewald energy   TEWEN  =     -8854.81280657
  -Hartree energ DENC   =     -2183.71514883
  -exchange      EXHF   =         0.00000000
  -V(xc)+E(xc)   XCENC  =       537.81314348
  PAW double counting   =      9779.68673782    -9923.52858328
  entropy T*S    EENTRO =        -0.00000000
  eigenvalues    EBANDS =     -2619.49227812
  atomic energy  EATOM  =     12703.13999606
  Solvation  Ediel_sol  =         0.00000000
  ---------------------------------------------------
  free energy    TOTEN  =      -258.49536905 eV

  energy without entropy =     -258.49536905  energy(sigma->0) =     -258.49536905


--------------------------------------------------------------------------------------------------------




--------------------------------------- Iteration      1(  14)  ---------------------------------------


    POTLOK:  cpu time      0.0524: real time      0.0533
    SETDIJ:  cpu time      0.4055: real time      0.4069
    EDDIAG:  cpu time      0.3549: real time      0.3569
  RMM-DIIS:  cpu time      1.5609: real time      1.5742
    ORTHCH:  cpu time      0.0670: real time      0.0675
       DOS:  cpu time      0.0005: real time      0.0005
    CHARGE:  cpu time      0.0653: real time      0.0675
    MIXING:  cpu time      0.0011: real time      0.0011
    --------------------------------------------
      LOOP:  cpu time      2.5074: real time      2.5279

 eigenvalue-minimisations  :  3749
 total energy-change (2. order) :-0.1915586E+00  (-0.1935306E+00)
 number of electron     239.9999995 magnetization      -0.8597377
 augmentation part        1.8733223 magnetization      -0.8335053

 Broyden mixing:
  rms(total) = 0.32051E+00    rms(broyden)= 0.32051E+00
  rms(prec ) = 0.35527E+00
  weight for this iteration     100.00

 eigenvalues of (default mixing * dielectric matrix)
  average eigenvalue GAMMA=   1.2675
  2.6161  1.1719  0.6899  0.5921

 Free energy of the ion-electron system (eV)
  ---------------------------------------------------
  alpha Z        PSCENC =       302.41357040
  Ewald energy   TEWEN  =     -8854.81280657
  -Hartree energ DENC   =     -2185.05886213
  -exchange      EXHF   =         0.00000000
  -V(xc)+E(xc)   XCENC  =       538.26159650
  PAW double counting   =      9857.70056530   -10002.34967674
  entropy T*S    EENTRO =        -0.00000000
  eigenvalues    EBANDS =     -2617.98131044
  atomic energy  EATOM  =     12703.13999606
  Solvation  Ediel_sol  =         0.00000000
  ---------------------------------------------------
  free energy    TOTEN  =      -258.68692763 eV

  energy without entropy =     -258.68692763  energy(sigma->0) =     -258.68692763


--------------------------------------------------------------------------------------------------------




--------------------------------------- Iteration      1(  15)  ---------------------------------------


    POTLOK:  cpu time      0.0523: real time      0.0533
    SETDIJ:  cpu time      0.4045: real time      0.4060
    EDDIAG:  cpu time      0.3548: real time      0.3568
  RMM-DIIS:  cpu time      1.2912: real time      1.3020
    ORTHCH:  cpu time      0.0668: real time      0.0681
       DOS:  cpu time      0.0005: real time      0.0005
    CHARGE:  cpu time      0.0653: real time      0.0660
    MIXING:  cpu time      0.0012: real time      0.0012
    --------------------------------------------
      LOOP:  cpu time      2.2366: real time      2.2539

 eigenvalue-minimisations  :  3084
 total energy-change (2. order) : 0.2570876E-01  (-0.3309456E-01)
 number of electron     239.9999995 magnetization      -0.2316210
 augmentation part        1.8247813 magnetization      -0.2055439

 Broyden mixing:
  rms(total) = 0.67977E-01    rms(broyden)= 0.67974E-01
  rms(prec ) = 0.80160E-01
  weight for this iteration     100.00

 eigenvalues of (default mixing * dielectric matrix)
  average eigenvalue GAMMA=   1.2704
  2.5352  1.5807  0.9490  0.6852  0.6019

 Free energy of the ion-electron system (eV)
  ---------------------------------------------------
  alpha Z        PSCENC =       302.41357040
  Ewald energy   TEWEN  =     -8854.81280657
  -Hartree energ DENC   =     -2180.56168140
  -exchange      EXHF   =         0.00000000
  -V(xc)+E(xc)   XCENC  =       537.90307366
  PAW double counting   =      9829.17414500    -9973.63575313
  entropy T*S    EENTRO =        -0.00000000
  eigenvalues    EBANDS =     -2622.28176288
  atomic energy  EATOM  =     12703.13999606
  Solvation  Ediel_sol  =         0.00000000
  ---------------------------------------------------
  free energy    TOTEN  =      -258.66121887 eV

  energy without entropy =     -258.66121887  energy(sigma->0) =     -258.66121887


--------------------------------------------------------------------------------------------------------




--------------------------------------- Iteration      1(  16)  ---------------------------------------


    POTLOK:  cpu time      0.0523: real time      0.0532
    SETDIJ:  cpu time      0.4045: real time      0.4057
    EDDIAG:  cpu time      0.3548: real time      0.3575
  RMM-DIIS:  cpu time      1.2914: real time      1.3018
    ORTHCH:  cpu time      0.0656: real time      0.0662
       DOS:  cpu time      0.0005: real time      0.0005
    CHARGE:  cpu time      0.0648: real time      0.0658
    MIXING:  cpu time      0.0013: real time      0.0013
    --------------------------------------------
      LOOP:  cpu time      2.2352: real time      2.2520

 eigenvalue-minimisations  :  3079
 total energy-change (2. order) :-0.1933063E-01  (-0.9947885E-02)
 number of electron     239.9999995 magnetization      -0.1077964
 augmentation part        1.8027460 magnetization      -0.0937456

 Broyden mixing:
  rms(total) = 0.30857E-01    rms(broyden)= 0.30855E-01
  rms(prec ) = 0.37102E-01
  weight for this iteration     100.00

 eigenvalues of (default mixing * dielectric matrix)
  average eigenvalue GAMMA=   1.2497
  2.4512  1.9433  1.0404  0.6207  0.6993  0.7432

 Free energy of the ion-electron system (eV)
  ---------------------------------------------------
  alpha Z        PSCENC =       302.41357040
  Ewald energy   TEWEN  =     -8854.81280657
  -Hartree energ DENC   =     -2180.05206418
  -exchange      EXHF   =         0.00000000
  -V(xc)+E(xc)   XCENC  =       537.82115881
  PAW double counting   =      9817.85963593    -9962.09478733
  entropy T*S    EENTRO =        -0.00000000
  eigenvalues    EBANDS =     -2622.95525261
  atomic energy  EATOM  =     12703.13999606
[...]
  0.003  -0.003  -0.000   0.000   0.003  -0.001   0.000   0.000  -0.000  -0.000  -0.000   0.000   0.000   0.000
 -0.002   0.001   0.000  -0.000  -0.001   0.005  -0.000  -0.000   0.000   0.000  -0.000   0.000   0.000  -0.000
 -0.003   0.003   0.000   0.005  -0.002   0.006   0.000  -0.000   0.000   0.000  -0.000  -0.000  -0.000  -0.000
  0.004  -0.004  -0.000  -0.003  -0.004  -0.002  -0.000  -0.000  -0.000  -0.000   0.000  -0.000  -0.000  -0.000
 -0.011   0.011   0.000  -0.004   0.002   0.003  -0.000   0.000   0.000  -0.000  -0.000   0.000   0.000  -0.000
 -0.013   0.013   0.000  -0.003   0.002   0.006  -0.000   0.000   0.000  -0.000  -0.000   0.000   0.000  -0.000
  0.018  -0.018  -0.000   0.003   0.004  -0.007   0.000   0.000  -0.000  -0.000  -0.000  -0.000  -0.000   0.000
 total augmentation occupancy for first ion, spin component:           2
 -0.000   0.000   0.000  -0.000  -0.000   0.000   0.000  -0.000  -0.000  -0.000  -0.000   0.000   0.000   0.000
  0.000  -0.000  -0.000   0.000  -0.000  -0.000  -0.000   0.000   0.000   0.000   0.000  -0.000  -0.000  -0.000
  0.000  -0.000  -0.000   0.000   0.000   0.000  -0.000   0.000   0.000   0.000   0.000   0.000   0.000  -0.000
 -0.000   0.000   0.000  -0.000   0.000  -0.000  -0.000  -0.000  -0.000  -0.000   0.000   0.000   0.000   0.000
 -0.000  -0.000   0.000   0.000  -0.000   0.000   0.000  -0.000   0.000   0.000   0.000  -0.000   0.000  -0.000
  0.000  -0.000   0.000  -0.000   0.000  -0.000  -0.000   0.000  -0.000  -0.000   0.000   0.000   0.000   0.000
  0.000  -0.000  -0.000  -0.000   0.000  -0.000   0.000  -0.000  -0.000  -0.000  -0.000  -0.000  -0.000   0.000
 -0.000   0.000   0.000  -0.000  -0.000   0.000  -0.000  -0.000   0.000   0.000  -0.000   0.000   0.000  -0.000
 -0.000   0.000   0.000  -0.000   0.000  -0.000  -0.000   0.000   0.000  -0.000   0.000   0.000   0.000  -0.000
 -0.000   0.000   0.000  -0.000   0.000  -0.000  -0.000   0.000  -0.000  -0.000   0.000   0.000   0.000   0.000
 -0.000   0.000   0.000   0.000   0.000   0.000  -0.000  -0.000   0.000   0.000   0.000  -0.000  -0.000  -0.000
  0.000  -0.000   0.000   0.000  -0.000   0.000  -0.000   0.000   0.000   0.000  -0.000  -0.000   0.000  -0.000
  0.000  -0.000   0.000   0.000   0.000   0.000  -0.000   0.000   0.000   0.000  -0.000   0.000   0.000  -0.000
  0.000  -0.000  -0.000   0.000  -0.000   0.000   0.000  -0.000  -0.000   0.000  -0.000  -0.000  -0.000   0.000


------------------------ aborting loop because EDIFF is reached ----------------------------------------


    CHARGE:  cpu time      0.0655: real time      0.0662
    FORLOC:  cpu time      0.0038: real time      0.0038
    FORNL :  cpu time      0.3909: real time      0.3934
    STRESS:  cpu time      1.1649: real time      1.1720
    FORCOR:  cpu time      0.0498: real time      0.0501
    FORHAR:  cpu time      0.0086: real time      0.0086
    MIXING:  cpu time      0.0007: real time      0.0007
    OFIELD:  cpu time      0.0000: real time      0.0000

 ---------------------------------------------------------------------------------------------

         DFTD3 V3.0 Rev 1        
 Edisp (eV)  -13.63968

 E6    (eV) :    -8.4043
 E8    (eV) :    -5.2353
 % E8        : 38.38
    FORVDW:  cpu time      0.2922: real time      0.2941

  FORCE on cell =-STRESS in cart. coord.  units (eV):
  Direction    XX          YY          ZZ          XY          YZ          ZX
  --------------------------------------------------------------------------------------
  Alpha Z   302.41357   302.41357   302.41357
  Ewald   -2931.35060 -2927.71414 -2995.79584     7.48063    27.71224     6.33641
  Hartree   736.50630   740.24541   705.81029     0.88406    12.53415     0.90023
  E(xc)    -947.72215  -947.75823  -947.86597     0.02024     0.04763     0.03101
  Local   -1512.29839 -1520.62443 -1423.22638    -6.93901   -39.88180    -6.02906
  n-local  1481.27065  1481.90469  1481.80714     0.21411     0.50547     0.04899
  augment  -356.68417  -356.87222  -357.07924     0.05084    -0.12438     0.09750
  Kinetic  3241.47548  3243.71248  3248.27151    -1.23693     1.15888    -1.79937
  Fock        0.00000     0.00000     0.00000     0.00000     0.00000     0.00000
  vdW       -14.39902   -14.42953   -14.43295    -0.01153    -0.01070     0.00445
  -------------------------------------------------------------------------------------
  Total      -0.78833     0.87760    -0.09788     0.46241     1.94148    -0.40984
  in kB      -1.40707     1.56641    -0.17470     0.82535     3.46532    -0.73151
  external pressure =       -0.01 kB  Pullay stress =        0.00 kB


 VOLUME and BASIS-vectors are now :
 -----------------------------------------------------------------------------
  energy-cutoff  :      520.00
  volume of cell :      897.64
      direct lattice vectors                 reciprocal lattice vectors
     9.646435360  0.000000000  0.000000000     0.103665236  0.000000000  0.000000000
     0.000000000  9.646435360  0.000000000     0.000000000  0.103665236  0.000000000
     0.000000000  0.000000000  9.646435360     0.000000000  0.000000000  0.103665236

  length of vectors
     9.646435360  9.646435360  9.646435360     0.103665236  0.103665236  0.103665236


 FORCES acting on ions
    electron-ion (+dipol)            ewald-force                    non-local-force                 convergence-correction
 -----------------------------------------------------------------------------------------------
   0.248E+01 0.239E+01 0.136E+01   -.326E+01 -.178E+01 -.360E+00   0.783E+00 -.604E+00 -.100E+01   -.227E-05 0.368E-04 -.167E-04
   -.539E+01 0.988E+00 0.938E+01   0.456E+01 0.183E+00 -.827E+01   0.823E+00 -.117E+01 -.111E+01   0.880E-04 -.113E-04 0.975E-04
   0.271E+01 0.573E+01 -.553E+01   -.198E+01 -.469E+01 0.476E+01   -.732E+00 -.104E+01 0.768E+00   -.489E-05 -.170E-03 0.531E-04
   0.698E+01 -.632E+01 0.839E+01   -.624E+01 0.495E+01 -.715E+01   -.730E+00 0.138E+01 -.124E+01   -.107E-04 0.104E-04 0.130E-04
   -.102E+02 -.106E+02 0.223E+01   0.890E+01 0.922E+01 -.305E+01   0.132E+01 0.140E+01 0.817E+00   -.301E-04 -.851E-04 -.396E-04
   -.532E+01 0.123E+02 -.836E+00   0.419E+01 -.107E+02 0.185E+01   0.112E+01 -.167E+01 -.101E+01   0.514E-04 0.259E-04 -.492E-05
   0.767E+01 -.313E+01 0.826E+01   -.632E+01 0.193E+01 -.756E+01   -.135E+01 0.121E+01 -.702E+00   0.877E-04 -.274E-06 -.715E-04
   -.100E+01 -.142E+01 -.190E+01   0.204E+01 0.249E+01 0.111E+01   -.104E+01 -.108E+01 0.790E+00   -.292E-05 -.281E-04 0.672E-05
   0.433E+00 -.589E+01 0.563E+00   0.604E+00 0.493E+01 0.458E+00   -.104E+01 0.953E+00 -.102E+01   0.523E-05 0.395E-04 0.959E-04
   -.133E+01 0.268E+01 -.452E+00   0.197E+01 -.225E+01 -.629E+00   -.641E+00 -.421E+00 0.108E+01   -.589E-04 0.722E-04 -.884E-04
   -.931E+01 0.486E+00 -.873E+01   0.776E+01 -.143E+01 0.782E+01   0.156E+01 0.944E+00 0.902E+00   0.308E-04 0.574E-04 0.578E-05
   -.501E+01 -.121E+01 -.180E+01   0.567E+01 0.201E+01 0.671E+00   -.668E+00 -.804E+00 0.114E+01   0.164E-04 -.304E-04 -.324E-06
   -.268E+01 -.766E+01 -.761E+01   0.127E+01 0.679E+01 0.708E+01   0.142E+01 0.875E+00 0.525E+00   -.307E-04 0.270E-04 0.266E-04
   -.276E+01 0.460E+01 0.618E+01   0.357E+01 -.562E+01 -.566E+01   -.814E+00 0.103E+01 -.516E+00   0.272E-04 0.189E-04 -.576E-04
   0.865E+01 -.834E+01 -.920E+01   -.761E+01 0.697E+01 0.102E+02   -.105E+01 0.137E+01 -.964E+00   -.668E-04 -.262E-04 0.990E-04
   -.807E+01 -.107E+02 0.319E+01   0.677E+01 0.953E+01 -.436E+01   0.130E+01 0.120E+01 0.116E+01   0.389E-04 -.710E-05 0.662E-05
   -.639E+01 -.232E+01 -.262E+01   0.729E+01 0.182E+01 0.331E+01   -.902E+00 0.498E+00 -.692E+00   -.823E-04 0.727E-04 0.238E-04
   0.121E+02 -.608E+00 -.999E+01   -.107E+02 0.165E+01 0.889E+01   -.143E+01 -.104E+01 0.110E+01   0.893E-04 -.515E-04 0.699E-04
   0.531E+01 -.194E+01 -.129E+01   -.418E+01 0.110E+01 0.255E+01   -.114E+01 0.830E+00 -.126E+01   0.557E-04 -.910E-05 -.317E-04
   0.164E+01 0.578E+01 0.852E+01   -.268E+01 -.474E+01 -.729E+01   0.104E+01 -.103E+01 -.124E+01   -.105E-05 -.262E-04 0.534E-04
   0.349E+01 0.118E+02 0.766E+01   -.395E+01 -.104E+02 -.640E+01   0.453E+00 -.132E+01 -.126E+01   -.470E-04 0.846E-05 0.434E-04
   0.289E+01 0.388E+01 0.183E+01   -.351E+01 -.459E+01 -.238E+01   0.620E+00 0.716E+00 0.555E+00   -.714E-04 0.277E-04 -.152E-04
   0.113E+02 0.491E+00 -.103E+02   -.104E+02 0.451E+00 0.904E+01   -.912E+00 -.939E+00 0.125E+01   -.107E-03 -.806E-04 -.153E-04
   0.458E+01 0.536E+01 0.235E+01   -.408E+01 -.427E+01 -.352E+01   -.498E+00 -.110E+01 0.117E+01   0.528E-04 0.675E-05 0.109E-04
   0.218E+01 0.512E+01 -.391E+01   -.232E+01 -.514E+01 0.375E+01   0.149E+00 0.169E-01 0.159E+00   -.910E-04 0.451E-04 0.118E-03
   -.120E+00 -.984E+00 0.484E+01   0.395E+00 0.969E+00 -.550E+01   -.277E+00 0.197E-01 0.656E+00   0.473E-04 -.836E-04 0.353E-04
   -.218E+01 -.270E-01 0.369E+00   0.259E+01 0.631E-01 -.182E-01   -.411E+00 -.346E-01 -.342E+00   -.103E-03 -.160E-03 -.150E-03
   -.101E+02 -.916E+00 0.357E+01   0.975E+01 0.850E+00 -.353E+01   0.310E+00 0.637E-01 -.442E-01   0.202E-03 0.166E-03 0.122E-05
   -.510E+02 0.268E+02 -.413E+02   0.543E+02 -.294E+02 0.446E+02   -.331E+01 0.260E+01 -.333E+01   0.131E-03 0.891E-04 0.155E-03
   -.409E+02 -.399E+02 0.352E+02   0.436E+02 0.436E+02 -.383E+02   -.265E+01 -.376E+01 0.307E+01   0.601E-04 0.624E-06 0.566E-04
   0.182E+02 0.659E+02 0.328E+02   -.202E+02 -.703E+02 -.349E+02   0.204E+01 0.441E+01 0.215E+01   -.206E-04 0.173E-03 -.169E-03
   0.577E+02 -.345E+02 -.304E+02   -.618E+02 0.365E+02 0.327E+02   0.409E+01 -.209E+01 -.235E+01   0.192E-03 0.164E-03 0.204E-03
   0.224E+02 -.265E+02 -.688E+02   -.244E+02 0.286E+02 0.732E+02   0.204E+01 -.211E+01 -.441E+01   -.203E-03 -.375E-04 -.161E-03
   0.439E+02 0.419E+02 0.309E+02   -.473E+02 -.453E+02 -.336E+02   0.344E+01 0.342E+01 0.279E+01   0.401E-04 -.858E-04 0.399E-04
   -.321E+02 -.623E+02 0.289E+02   0.346E+02 0.667E+02 -.311E+02   -.253E+01 -.432E+01 0.223E+01   0.414E-04 -.429E-04 -.271E-03
   -.507E+02 0.406E+02 -.413E+02   0.538E+02 -.431E+02 0.441E+02   -.316E+01 0.251E+01 -.285E+01   -.746E-04 -.173E-03 -.678E-04
   -.313E+02 -.349E+02 0.564E+02   0.341E+02 0.372E+02 -.599E+02   -.286E+01 -.234E+01 0.350E+01   0.637E-04 0.214E-04 -.499E-05
   -.553E+02 0.266E+02 -.256E+02   0.591E+02 -.294E+02 0.284E+02   -.387E+01 0.273E+01 -.286E+01   -.149E-03 0.988E-04 -.147E-03
   0.382E+02 -.494E+02 -.334E+02   -.413E+02 0.531E+02 0.360E+02   0.313E+01 -.368E+01 -.260E+01   -.139E-04 0.413E-05 0.138E-03
   0.406E+02 0.332E+02 0.508E+02   -.439E+02 -.360E+02 -.539E+02   0.325E+01 0.279E+01 0.311E+01   -.136E-05 0.284E-04 -.530E-04
   -.552E+02 -.285E+02 0.237E+02   0.594E+02 0.310E+02 -.257E+02   -.420E+01 -.259E+01 0.201E+01   -.141E-03 0.318E-04 0.435E-04
   -.225E+02 0.485E+02 -.464E+02   0.248E+02 -.523E+02 0.495E+02   -.232E+01 0.384E+01 -.316E+01   0.352E-04 -.497E-04 0.133E-03
   0.402E+02 -.406E+02 -.360E+02   -.432E+02 0.439E+02 0.389E+02   0.297E+01 -.333E+01 -.284E+01   -.173E-04 -.473E-06 -.366E-04
   0.359E+02 0.294E+02 0.555E+02   -.387E+02 -.312E+02 -.597E+02   0.281E+01 0.186E+01 0.425E+01   -.244E-03 -.141E-03 0.121E-03
   -.627E+00 -.141E+02 0.342E+01   0.699E+00 0.145E+02 -.343E+01   -.725E-01 -.319E+00 0.499E-02   -.880E-04 -.477E-04 0.886E-04
   -.144E+02 -.238E+01 -.270E+01   0.148E+02 0.240E+01 0.266E+01   -.356E+00 -.216E-01 0.364E-01   0.139E-03 -.594E-05 -.954E-04
   0.714E+01 0.128E+02 -.868E+01   -.733E+01 -.132E+02 0.895E+01   0.179E+00 0.364E+00 -.271E+00   0.135E-03 0.130E-03 0.694E-04
   -.249E+02 0.721E+01 0.291E+00   0.254E+02 -.737E+01 -.225E+00   -.480E+00 0.153E+00 -.673E-01   -.141E-03 -.197E-03 0.572E-05
   0.171E+02 0.102E+02 0.430E+01   -.175E+02 -.104E+02 -.437E+01   0.419E+00 0.168E+00 0.705E-01   0.108E-03 0.408E-03 -.344E-03
   0.137E+02 -.114E+02 0.376E+02   -.139E+02 0.115E+02 -.383E+02   0.208E+00 -.172E+00 0.701E+00   0.219E-03 -.301E-03 0.389E-03
   0.233E+02 -.147E+02 -.326E+02   -.236E+02 0.149E+02 0.330E+02   0.391E+00 -.162E+00 -.396E+00   -.947E-04 -.882E-04 -.288E-03
   0.213E+02 0.162E+02 0.438E+01   -.216E+02 -.163E+02 -.439E+01   0.232E+00 0.137E+00 0.151E-02   0.162E-03 0.294E-03 -.138E-03
 -----------------------------------------------------------------------------------------------
   0.335E+01 -.333E+00 0.154E+01   0.675E-13 0.110E-12 -.178E-14   -.336E+01 0.319E+00 -.154E+01   0.221E-03 0.120E-03 -.642E-04
 
 
 POSITION                                       TOTAL-FORCE (eV/Angst)
 -----------------------------------------------------------------------------------
      9.30843      1.91771      1.56874        -0.000041      0.000047     -0.000082
      9.50786      6.80092      6.44686        -0.000069      0.000226     -0.000491
      0.23073      2.10780      7.53916        -0.000138      0.000193     -0.000841
      0.17918      7.80105      1.68651        -0.000006     -0.000261     -0.000422
      3.26395      3.15521      9.26720         0.000201     -0.000028     -0.000163
      3.02713      6.45017      0.40982        -0.000035     -0.000224      0.000136
      6.50453      2.74977      0.13422        -0.000050     -0.000037     -0.000023
      7.04661      6.60823      9.51694         0.000079     -0.000260      0.000210
      2.14898      9.54325      1.81342        -0.000114     -0.000018      0.000007
      2.07113      0.23517      8.09976         0.000121      0.000376      0.000564
      8.05641      9.21991      7.99455         0.000188     -0.000066      0.000249
      7.01580      0.19388      2.93559         0.000182     -0.000078      0.000159
      2.96158      7.98259      4.64196        -0.000049      0.000076      0.000106
      1.96270      2.76974      4.98442         0.000407      0.000314     -0.000282
      6.63706      7.99231      5.29459         0.000235      0.000404      0.000306
      7.93508      3.02846      4.45125        -0.000004      0.000048     -0.000131
      1.91106      4.61120      6.91559        -0.000063      0.000166      0.000130
      1.50405      5.25409      3.07644        -0.000460      0.000066     -0.000170
      6.54351      4.61480      2.05932        -0.000638     -0.000119      0.000136
      7.65548      4.89374      6.73547         0.000055     -0.000005     -0.000101
      4.55766      1.54597      6.43403        -0.000049     -0.000150     -0.000011
      4.67359      7.60403      2.62478         0.000086      0.000010      0.000181
      4.97588      1.94706      3.06361        -0.000015     -0.000078      0.000073
      5.13095      6.49264      7.67754         0.000009     -0.000041     -0.000003
      4.76942      4.84919      4.81636        -0.000221     -0.000209      0.000210
      5.00070      9.56340      9.56726        -0.000217      0.000523      0.000297
      0.05667      4.78737      0.07414        -0.000240      0.000037     -0.000164
      0.03163      9.64537      4.83178         0.000226      0.000290     -0.000028
      1.28552      8.66211      6.12853         0.000052      0.000128      0.000180
      1.05729      1.20388      3.52021         0.000061      0.000168     -0.000075
      8.59035      8.25783      3.78664         0.000204     -0.000097      0.000114
      8.38123      1.11585      5.96191        -0.000339     -0.000120     -0.000112
      8.58132      5.80720      1.46355        -0.000014     -0.000252      0.000184
      8.44855      3.60802      8.59109        -0.000032     -0.000164     -0.000132
      1.11215      6.11111      8.56254        -0.000084      0.000164      0.000091
      1.37624      3.64090      1.13305         0.000106     -0.000032     -0.000099
      6.10627      1.00047      8.23638         0.000071     -0.000207     -0.000009
      6.26342      8.47867      1.12621         0.000162     -0.000296      0.000104
      3.86529      1.24967      1.01322         0.000013     -0.000226     -0.000040
      3.76255      8.28464      8.55813         0.000016     -0.000263     -0.000008
      6.07035      6.08193      3.81378         0.000138      0.000075      0.000182
      5.90969      3.52558      5.90088         0.000051     -0.000012      0.000028
      3.57945      6.03504      5.99499        -0.000002      0.000092      0.000050
      3.56590      3.81824      3.51683         0.000133      0.000202     -0.000385
      7.34416      7.10082      7.30054         0.000025     -0.000068      0.000129
      7.16183      2.40999      2.35403        -0.000056     -0.000085     -0.000014
      2.39006      7.34685      2.45439         0.000075     -0.000004      0.000025
      2.48629      2.38335      7.20669        -0.000065      0.000129     -0.000126
      0.20557      0.08162      0.03392        -0.000002     -0.000060      0.000074
      0.11061      4.65951      5.15495         0.000023     -0.000222     -0.000045
      4.92602      9.57225      4.50588         0.000044     -0.000076      0.000010
      5.04877      4.92134      0.02698         0.000039      0.000024      0.000023
 -----------------------------------------------------------------------------------
    total drift:                               -0.004024     -0.013906      0.002326


--------------------------------------------------------------------------------------------------------



  FREE ENERGIE OF THE ION-ELECTRON SYSTEM (eV)
  ---------------------------------------------------
  free  energy   TOTEN  =      -272.32775115 eV

  energy  without entropy=     -272.32775115  energy(sigma->0) =     -272.32775115
 
 d Force = 0.6212572E-06[ 0.408E-06, 0.835E-06]  d Energy = 0.1154042E-05-0.533E-06
 d Force = 0.8359022E-02[ 0.836E-02, 0.836E-02]  d Ewald  = 0.8359022E-02-0.182E-11


--------------------------------------------------------------------------------------------------------


    POTLOK:  cpu time      0.4561: real time      0.4579


--------------------------------------------------------------------------------------------------------


 stress matrix after NEB project (eV)
     -0.78833      0.46241     -0.40984
      0.46241      0.87760      1.94148
     -0.40984      1.94148     -0.09788
  FORCES: max atom, RMS     0.000874    0.000332
  FORCE total and by dimension    0.002396    0.000841
  Stress total and by dimension    3.115048    1.941485
 Conjugate gradient step on ions:
 trial-energy change:   -0.000001  1 .order   -0.000001   -0.000001   -0.000000
  (g-gl).g = 0.668E-06      g.g   = 0.628E-06  gl.gl    = 0.101E-05
 g(Force)  = 0.628E-06   g(Stress)= 0.000E+00 ortho     =-0.400E-07
 gamma     =   0.65871
 trial     =   1.38762
 opt step  =   2.71394  (harmonic =   2.71394) maximal distance =0.00008749
 next E    =  -272.327751   (d E  =  -0.00000)


--------------------------------------------------------------------------------------------------------


  
 reached required accuracy - stopping structural energy minimisation
     LOOP+:  cpu time      7.4269: real time      7.5024
    4ORBIT:  cpu time      0.0000: real time      0.0000

 total amount of memory used by VASP MPI-rank0    48199. kBytes
=======================================================================

   base      :      30000. kBytes
   nonlr-proj:       6539. kBytes
   fftplans  :       1747. kBytes
   grid      :       5278. kBytes
   one-center:         62. kBytes
   wavefun   :       4573. kBytes
 
  
  
 General timing and accounting informations for this job:
 ========================================================
  
                  Total CPU time used (sec):       97.809
                            User time (sec):       96.679
                          System time (sec):        1.130
                         Elapsed time (sec):      102.068
  
                   Maximum memory used (kb):      379772.
                   Average memory used (kb):          N/A
  
                          Minor page faults:        56859
                          Major page faults:          131
                 Voluntary context switches:         5893
