<?xml version="1.0" encoding="ISO-8859-1"?>
<modeling>
 <generator>
  <i name="program" type="string">vasp </i>
  <i name="version" type="string">6.4.1  </i>
  <i name="subversion" type="string">05Apr23 (build Jun 07 2023 15:38:11) complex                          parallel </i>
  <i name="platform" type="string">LinuxIFC </i>
  <i name="date" type="string">2023 10 19 </i>
  <i name="time" type="string">05:08:07 </i>
 </generator>
 <incar>
  <i type="string" name="PREC">Accu</i>
  <i type="string" name="ALGO">F</i>
  <i type="logical" name="LDIAG"> T  </i>
  <i type="int" name="ISPIN">     2</i>
  <i type="int" name="NELM">   100</i>
  <i type="int" name="NELMDL">   -10</i>
  <i type="int" name="IBRION">     2</i>
  <i name="EDIFF">      0.00000100</i>
  <i name="EDIFFG">     -0.00100000</i>
  <i type="int" name="NSW">  1000</i>
  <i type="int" name="ISIF">     2</i>
  <i name="ENCUT">    520.00000000</i>
  <i name="POTIM">      0.20000000</i>
  <i type="string" name="LREAL">Auto</i>
  <i type="logical" name="LPLANE"> T  </i>
  <i type="int" name="ISMEAR">     0</i>
  <i name="SIGMA">      0.03000000</i>
  <i type="int" name="LMAXMIX">     4</i>
  <i type="logical" name="LWAVE"> F  </i>
  <i type="logical" name="LCHARG"> F  </i>
  <i type="logical" name="LASPH"> T  </i>
  <i type="string" name="GGA">PE</i>
  <i type="int" name="IVDW">    12</i>
 </incar>
 <primitive_cell>
  <structure name="primitive_cell" >
   <crystal>
    <varray name="basis" >
     <v>       9.64643536       0.00000000       0.00000000 </v>
     <v>       0.00000000       9.64643536       0.00000000 </v>
     <v>       0.00000000       0.00000000       9.64643536 </v>
    </varray>
    <i name="volume">    897.63664813 </i>
    <varray name="rec_basis" >
     <v>       0.10366524       0.00000000       0.00000000 </v>
     <v>       0.00000000       0.10366524       0.00000000 </v>
     <v>       0.00000000       0.00000000       0.10366524 </v>
    </varray>
   </crystal>
   <varray name="positions" >
    <v>       0.96496087       0.19879918       0.16262701 </v>
    <v>       0.98563545       0.70501390       0.66832556 </v>
    <v>       0.02392208       0.21850139       0.78156734 </v>
    <v>       0.01857587       0.80870265       0.17484155 </v>
    <v>       0.33835307       0.32708495       0.96068999 </v>
    <v>       0.31380839       0.66866461       0.04248100 </v>
    <v>       0.67429520       0.28505572       0.01391535 </v>
    <v>       0.73048725       0.68504979       0.98657162 </v>
    <v>       0.22277823       0.98930392       0.18798928 </v>
    <v>       0.21470234       0.02437105       0.83965099 </v>
    <v>       0.83516582       0.95578541       0.82875208 </v>
    <v>       0.72728997       0.02010145       0.30431504 </v>
    <v>       0.30701453       0.82751482       0.48120666 </v>
    <v>       0.20345547       0.28711825       0.51671805 </v>
    <v>       0.68802775       0.82851562       0.54885781 </v>
    <v>       0.82259234       0.31394398       0.46144314 </v>
    <v>       0.19811220       0.47801670       0.71690320 </v>
    <v>       0.15592800       0.54466538       0.31892273 </v>
    <v>       0.67834835       0.47839636       0.21347686 </v>
    <v>       0.79360534       0.50731065       0.69823743 </v>
    <v>       0.47247143       0.16026800       0.66698646 </v>
    <v>       0.48448709       0.78827297       0.27209400 </v>
    <v>       0.51582687       0.20184486       0.31758665 </v>
    <v>       0.53190057       0.67306220       0.79589417 </v>
    <v>       0.49441871       0.50268704       0.49929096 </v>
    <v>       0.51839404       0.99140734       0.99179447 </v>
    <v>       0.00587193       0.49628669       0.00768403 </v>
    <v>       0.00327954       0.99989135       0.50088772 </v>
    <v>       0.13326362       0.89795098       0.63531117 </v>
    <v>       0.10960528       0.12479826       0.36492139 </v>
    <v>       0.89051172       0.85605491       0.39254060 </v>
    <v>       0.86884996       0.11568083       0.61804945 </v>
    <v>       0.88958404       0.60201438       0.15171322 </v>
    <v>       0.87581902       0.37402675       0.89059832 </v>
    <v>       0.11529765       0.63350473       0.88763448 </v>
    <v>       0.14266614       0.37743376       0.11746346 </v>
    <v>       0.63300890       0.10371607       0.85382557 </v>
    <v>       0.64929993       0.87894126       0.11674894 </v>
    <v>       0.40069896       0.12954697       0.10503495 </v>
    <v>       0.39004398       0.85882832       0.88717617 </v>
    <v>       0.62928033       0.63048458       0.39534833 </v>
    <v>       0.61263227       0.36548062       0.61171663 </v>
    <v>       0.37106493       0.62562422       0.62147242 </v>
    <v>       0.36965427       0.39581151       0.36458039 </v>
    <v>       0.76133222       0.73610963       0.75680828 </v>
    <v>       0.74243497       0.24983341       0.24403256 </v>
    <v>       0.24776598       0.76161238       0.25443306 </v>
    <v>       0.25774216       0.24706673       0.74708632 </v>
    <v>       0.02131250       0.00846336       0.00351227 </v>
    <v>       0.01146772       0.48302740       0.53439286 </v>
    <v>       0.51065819       0.99230816       0.46709969 </v>
    <v>       0.52338325       0.51017659       0.00279828 </v>
   </varray>
  </structure>
  <varray name="primitive_index" >
   <v type="int" >        1 </v>
   <v type="int" >        2 </v>
   <v type="int" >        3 </v>
   <v type="int" >        4 </v>
   <v type="int" >        5 </v>
   <v type="int" >        6 </v>
   <v type="int" >        7 </v>
   <v type="int" >        8 </v>
   <v type="int" >        9 </v>
   <v type="int" >       10 </v>
   <v type="int" >       11 </v>
   <v type="int" >       12 </v>
   <v type="int" >       13 </v>
   <v type="int" >       14 </v>
   <v type="int" >       15 </v>
   <v type="int" >       16 </v>
   <v type="int" >       17 </v>
   <v type="int" >       18 </v>
   <v type="int" >       19 </v>
   <v type="int" >       20 </v>
   <v type="int" >       21 </v>
   <v type="int" >       22 </v>
   <v type="int" >       23 </v>
   <v type="int" >       24 </v>
   <v type="int" >       25 </v>
   <v type="int" >       26 </v>
   <v type="int" >       27 </v>
   <v type="int" >       28 </v>
   <v type="int" >       29 </v>
   <v type="int" >       30 </v>
   <v type="int" >       31 </v>
   <v type="int" >       32 </v>
   <v type="int" >       33 </v>
   <v type="int" >       34 </v>
   <v type="int" >       35 </v>
   <v type="int" >       36 </v>
   <v type="int" >       37 </v>
   <v type="int" >       38 </v>
   <v type="int" >       39 </v>
   <v type="int" >       40 </v>
   <v type="int" >       41 </v>
   <v type="int" >       42 </v>
   <v type="int" >       43 </v>
   <v type="int" >       44 </v>
   <v type="int" >       45 </v>
   <v type="int" >       46 </v>
   <v type="int" >       47 </v>
   <v type="int" >       48 </v>
   <v type="int" >       49 </v>
   <v type="int" >       50 </v>
   <v type="int" >       51 </v>
   <v type="int" >       52 </v>
  </varray>
 </primitive_cell>
 <kpoints>
  <generation param="Monkhorst-Pack">
   <v type="int" name="divisions">       2        2        2 </v>
   <v name="usershift">      0.00000000       0.00000000       0.00000000 </v>
   <v name="genvec1">      0.50000000       0.00000000       0.00000000 </v>
   <v name="genvec2">      0.00000000       0.50000000       0.00000000 </v>
   <v name="genvec3">      0.00000000       0.00000000       0.50000000 </v>
   <v name="shift">      0.50000000       0.50000000       0.50000000 </v>
  </generation>
  <varray name="kpointlist" >
   <v>       0.25000000       0.25000000       0.25000000 </v>
   <v>      -0.25000000       0.25000000       0.25000000 </v>
   <v>      -0.25000000      -0.25000000       0.25000000 </v>
   <v>       0.25000000      -0.25000000       0.25000000 </v>
  </varray>
  <varray name="weights" >
   <v>       0.25000000 </v>
   <v>       0.25000000 </v>
   <v>       0.25000000 </v>
   <v>       0.25000000 </v>
  </varray>
 </kpoints>
 <parameters>
  <separator name="general" >
   <i type="string" name="SYSTEM">unknown system</i>
   <i type="logical" name="LCOMPAT"> F  </i>
  </separator>
  <separator name="electronic" >
   <i type="string" name="PREC">accu</i>
   <i name="ENMAX">    520.00000000</i>
   <i name="ENAUG">   1041.69900000</i>
   <i name="EDIFF">      0.00000100</i>
   <i type="int" name="IALGO">    68</i>
   <i type="int" name="IWAVPR">    11</i>
   <i type="int" name="NBANDS">   176</i>
   <i type="int" name="NBANDSLOW">    -1</i>
   <i type="int" name="NBANDSHIGH">    -1</i>
   <i name="NELECT">    240.00000000</i>
   <i type="int" name="TURBO">     0</i>
   <i type="int" name="IRESTART">     0</i>
   <i type="int" name="NREBOOT">     0</i>
   <i type="int" name="NMIN">     0</i>
   <i name="EREF">      0.00000000</i>
   <separator name="electronic smearing" >
    <i type="int" name="ISMEAR">     0</i>
    <i name="SIGMA">      0.03000000</i>
    <i name="KSPACING">      0.50000000</i>
    <i type="logical" name="KGAMMA"> T  </i>
    <i type="logical" name="KBLOWUP"> T  </i>
   </separator>
   <separator name="electronic projectors" >
    <i type="logical" name="LREAL"> T  </i>
    <v name="ROPT">     -0.00025000     -0.00025000     -0.00025000     -0.00025000</v>
    <i type="int" name="LMAXPAW">  -100</i>
    <i type="int" name="LMAXMIX">     4</i>
    <i type="logical" name="NLSPLINE"> F  </i>
   </separator>
   <separator name="electronic startup" >
    <i type="int" name="ISTART">     0</i>
    <i type="int" name="ICHARG">     2</i>
    <i type="int" name="INIWAV">     1</i>
   </separator>
   <separator name="electronic spin" >
    <i type="int" name="ISPIN">     2</i>
    <i type="logical" name="LNONCOLLINEAR"> F  </i>
    <v name="MAGMOM">      1.00000000      1.00000000      1.00000000      1.00000000      1.00000000      1.00000000      1.00000000      1.00000000      1.00000000      1.00000000      1.00000000      1.00000000      1.00000000      1.00000000      1.00000000      1.00000000      1.00000000      1.00000000      1.00000000      1.00000000
      1.00000000      1.00000000      1.00000000      1.00000000      1.00000000      1.00000000      1.00000000      1.00000000      1.00000000      1.00000000      1.00000000      1.00000000      1.00000000      1.00000000      1.00000000      1.00000000      1.00000000      1.00000000      1.00000000      1.00000000
      1.00000000      1.00000000      1.00000000      1.00000000      1.00000000      1.00000000      1.00000000      1.00000000      1.00000000      1.00000000      1.00000000      1.00000000</v>
    <i name="NUPDOWN">     -1.00000000</i>
    <i type="logical" name="LSORBIT"> F  </i>
    <v name="SAXIS">      0.00000000      0.00000000      1.00000000</v>
    <i type="logical" name="LSPIRAL"> F  </i>
    <v name="QSPIRAL">      0.00000000      0.00000000      0.00000000</v>
    <i type="logical" name="LZEROZ"> F  </i>
   </separator>
   <separator name="electronic exchange-correlation" >
    <i type="logical" name="LASPH"> T  </i>
    <i type="logical" name="LMETAGGA"> F  </i>
   </separator>
   <separator name="electronic convergence" >
    <i type="int" name="NELM">   100</i>
    <i type="int" name="NELMDL">   -10</i>
    <i type="int" name="NELMIN">     2</i>
    <i name="ENINI">    520.00000000</i>
    <separator name="electronic convergence detail" >
     <i type="logical" name="LDIAG"> T  </i>
     <i type="logical" name="LSUBROT"> F  </i>
     <i name="WEIMIN">      0.00100000</i>
     <i name="EBREAK">      0.00000000</i>
     <i name="DEPER">      0.30000000</i>
     <i type="int" name="NRMM">     4</i>
     <i name="TIME">      0.40000000</i>
    </separator>
   </separator>
   <separator name="electronic mixer" >
    <i name="AMIX">      0.40000000</i>
    <i name="BMIX">      1.00000000</i>
    <i name="AMIN">      0.10000000</i>
    <i name="AMIX_MAG">      1.60000000</i>
    <i name="BMIX_MAG">      1.00000000</i>
    <separator name="electronic mixer details" >
     <i type="int" name="IMIX">     4</i>
     <i type="logical" name="MIXFIRST"> F  </i>
     <i type="int" name="MAXMIX">   -45</i>
     <i name="WC">    100.00000000</i>
     <i type="int" name="INIMIX">     1</i>
     <i type="int" name="MIXPRE">     1</i>
     <i type="int" name="MREMOVE">     5</i>
    </separator>
   </separator>
   <separator name="electronic dipolcorrection" >
    <i type="logical" name="LDIPOL"> F  </i>
    <i type="logical" name="LMONO"> F  </i>
    <i type="int" name="IDIPOL">     0</i>
    <i name="EPSILON">      1.00000000</i>
    <v name="DIPOL">   -100.00000000   -100.00000000   -100.00000000</v>
    <i name="EFIELD">      0.00000000</i>
   </separator>
  </separator>
  <separator name="grids" >
   <i type="int" name="NGX">    72</i>
   <i type="int" name="NGY">    72</i>
   <i type="int" name="NGZ">    72</i>
   <i type="int" name="NGXF">   144</i>
   <i type="int" name="NGYF">   144</i>
   <i type="int" name="NGZF">   144</i>
   <i type="logical" name="ADDGRID"> F  </i>
  </separator>
  <separator name="ionic" >
   <i type="int" name="NSW">  1000</i>
   <i type="int" name="IBRION">     2</i>
   <i type="int" name="MDALGO">     0</i>
   <i type="int" name="ISIF">     2</i>
   <i name="PSTRESS">      0.00000000</i>
   <i name="EDIFFG">     -0.00100000</i>
   <i type="int" name="NFREE">     1</i>
   <i name="POTIM">      0.20000000</i>
   <i name="SMASS">     -3.00000000</i>
   <i name="SCALEE">      1.00000000</i>
  </separator>
  <separator name="ionic md" >
   <i name="TEBEG">      0.00010000</i>
   <i name="TEEND">      0.00010000</i>
   <i type="int" name="NBLOCK">     1</i>
   <i type="int" name="KBLOCK">  1000</i>
   <i type="int" name="NPACO">   256</i>
   <i name="APACO">     10.00000000</i>
  </separator>
  <separator name="symmetry" >
   <i type="int" name="ISYM">     2</i>
   <i name="SYMPREC">      0.00001000</i>
  </separator>
  <separator name="dos" >
   <i type="int" name="LORBIT">     0</i>
   <v name="RWIGS">     -1.00000000     -1.00000000     -1.00000000     -1.00000000</v>
   <i type="int" name="NEDOS">   301</i>
   <i name="EMIN">     10.00000000</i>
   <i name="EMAX">    -10.00000000</i>
   <i name="EFERMI">      0.00000000</i>
  </separator>
  <separator name="writing" >
   <i type="int" name="NWRITE">     2</i>
   <i type="logical" name="LWAVE"> F  </i>
   <i type="logical" name="LDOWNSAMPLE"> F  </i>
   <i type="logical" name="LCHARG"> F  </i>
   <i type="logical" name="LPARD"> F  </i>
   <i type="logical" name="LVTOT"> F  </i>
   <i type="logical" name="LVHAR"> F  </i>
   <i type="logical" name="LELF"> F  </i>
   <i type="logical" name="LOPTICS"> F  </i>
   <v name="STM">      0.00000000      0.00000000      0.00000000      0.00000000      0.00000000      0.00000000      0.00000000</v>
  </separator>
  <separator name="performance" >
   <i type="int" name="NPAR">     4</i>
   <i type="int" name="NSIM">     4</i>
   <i type="int" name="NBLK">    -1</i>
   <i type="logical" name="LPLANE"> T  </i>
   <i type="logical" name="LSCALAPACK"> T  </i>
   <i type="logical" name="LSCAAWARE"> F  </i>
   <i type="logical" name="LSCALU"> F  </i>
   <i type="logical" name="LASYNC"> F  </i>
   <i type="logical" name="LORBITALREAL"> F  </i>
  </separator>
  <separator name="miscellaneous" >
   <i type="int" name="IDIOT">     3</i>
   <i type="int" name="PHON_NSTRUCT">    -1</i>
   <i type="logical" name="LMUSIC"> F  </i>
   <v name="POMASS">      7.01000000     30.97400000     32.06600000     35.45300000</v>
   <v name="DARWINR">      0.00000000      0.00000000      0.00000000      0.00000000</v>
   <v name="DARWINV">      1.00000000      1.00000000      1.00000000      1.00000000</v>
   <i type="logical" name="LCORR"> T  </i>
  </separator>
  <i type="logical" name="GGA_COMPAT"> T  </i>
  <i type="logical" name="LBERRY"> F  </i>
  <i type="int" name="ICORELEVEL">     0</i>
  <i type="logical" name="LDAU"> F  </i>
  <i type="int" name="I_CONSTRAINED_M">     0</i>
  <separator name="electronic exchange-correlation" >
   <i type="string" name="GGA">PE</i>
   <i type="int" name="VOSKOWN">     0</i>
   <i type="logical" name="LHFCALC"> F  </i>
   <i type="string" name="PRECFOCK"></i>
   <i type="logical" name="LSYMGRAD"> F  </i>
   <i type="logical" name="LHFONE"> F  </i>
   <i type="logical" name="LRHFCALC"> F  </i>
   <i type="logical" name="LTHOMAS"> F  </i>
   <i type="logical" name="LMODELHF"> F  </i>
   <i type="logical" name="LFOCKACE"> F  </i>
   <i name="ENCUT4O">     -1.00000000</i>
   <i type="int" name="EXXOEP">     0</i>
   <i type="int" name="FOURORBIT">     0</i>
   <i name="AEXX">      0.00000000</i>
   <i name="HFALPHA">      0.00000000</i>
   <i name="MCALPHA">      0.00000000</i>
   <i name="ALDAX">      1.00000000</i>
   <i name="AGGAX">      1.00000000</i>
   <i name="ALDAC">      1.00000000</i>
   <i name="AGGAC">      1.00000000</i>
   <i type="int" name="NKREDX">     1</i>
   <i type="int" name="NKREDY">     1</i>
   <i type="int" name="NKREDZ">     1</i>
   <i type="logical" name="SHIFTRED"> F  </i>
   <i type="logical" name="ODDONLY"> F  </i>
   <i type="logical" name="EVENONLY"> F  </i>
   <i type="int" name="LMAXFOCK">     0</i>
   <i type="int" name="NMAXFOCKAE">     0</i>
   <i type="logical" name="LFOCKAEDFT"> F  </i>
   <i name="HFSCREEN">      0.00000000</i>
   <i name="HFSCREENC">      0.00000000</i>
   <i type="int" name="NBANDSGWLOW">     0</i>
  </separator>
  <separator name="vdW DFT" >
   <i type="logical" name="LUSE_VDW"> F  </i>
   <i type="int" name="IVDW_NL">     1</i>
   <i type="logical" name="LSPIN_VDW"> F  </i>
   <i name="Zab_VDW">     -0.84910000</i>
   <i name="PARAM1">      0.12340000</i>
   <i name="PARAM2">      1.00000000</i>
   <i name="PARAM3">      0.00000000</i>
  </separator>
  <separator name="model GW" >
   <i type="int" name="MODEL_GW">     0</i>
   <i name="MODEL_EPS0">     10.35734594</i>
   <i name="MODEL_ALPHA">      1.00000000</i>
  </separator>
  <separator name="linear response parameters" >
   <i type="logical" name="LEPSILON"> F  </i>
   <i type="logical" name="LRPA"> F  </i>
   <i type="logical" name="LNABLA"> F  </i>
   <i type="logical" name="LVEL"> F  </i>
   <i name="CSHIFT">      0.10000000</i>
   <i name="OMEGAMAX">     -1.00000000</i>
   <i name="DEG_THRESHOLD">      0.00200000</i>
   <i name="RTIME">     -0.10000000</i>
   <i name="WPLASMAI">      0.00000000</i>
   <v name="DFIELD">      0.00000000      0.00000000      0.00000000</v>
   <v name="WPLASMA">      0.00000000      0.00000000      0.00000000      0.00000000      0.00000000      0.00000000      0.00000000      0.00000000      0.00000000</v>
  </separator>
  <separator name="orbital magnetization" >
   <i type="logical" name="NUCIND"> F  </i>
   <v name="MAGPOS">      0.00000000      0.00000000      0.00000000</v>
   <i type="logical" name="LNICSALL"> T  </i>
   <i type="logical" name="ORBITALMAG"> F  </i>
   <i type="logical" name="LMAGBLOCH"> F  </i>
   <i type="logical" name="LCHIMAG"> F  </i>
   <i type="logical" name="LGAUGE"> T  </i>
   <i type="int" name="MAGATOM">     0</i>
   <v name="MAGDIPOL">      0.00000000      0.00000000      0.00000000</v>
   <v name="AVECCONST">      0.00000000      0.00000000      0.00000000</v>
  </separator>
  <separator name="response functions" >
   <i type="logical" name="LALL_IN_ONE"> F  </i>
   <i type="int" name="IALL_IN_ONE">    -1</i>
   <i type="int" name="NBANDS_WAVE">    -1</i>
   <i type="logical" name="LFINITE_TEMPERATURE"> F  </i>
   <i type="logical" name="LADDER"> F  </i>
   <i type="logical" name="LRPAFORCE"> F  </i>
   <i type="logical" name="LFXC"> F  </i>
   <i type="logical" name="LHARTREE"> T  </i>
   <i type="int" name="IBSE">     0</i>
   <v type="int" name="KPOINT">    -1     0     0     0</v>
   <i type="logical" name="LTCTC"> F  </i>
   <i type="logical" name="LTCTE"> F  </i>
   <i type="logical" name="LTETE"> F  </i>
   <i type="logical" name="LTRIPLET"> F  </i>
   <i type="logical" name="LFXCEPS"> F  </i>
   <i type="logical" name="LFXHEG"> F  </i>
   <i type="int" name="NATURALO">     2</i>
   <i type="logical" name="LHOLEGF"> F  </i>
   <i type="logical" name="L2ORDER"> F  </i>
   <i type="logical" name="LDMP1"> F  </i>
   <i type="logical" name="LMP2LT"> F  </i>
   <i type="logical" name="LSMP2LT"> F  </i>
   <i type="logical" name="LGWLF"> F  </i>
   <i name="ENCUTGW">     -1.60000002</i>
   <i name="ENCUTGWSOFT">     -1.60000002</i>
   <i name="ENCUTLF">     -1.00000000</i>
   <i type="logical" name="LESF_SPLINES"> F  </i>
   <i type="int" name="LMAXMP2">    -1</i>
   <i name="SCISSOR">      0.00000000</i>
   <i type="int" name="NOMEGA">     0</i>
   <i type="int" name="NOMEGAR">     0</i>
   <i type="int" name="NBANDSGW">    -1</i>
   <i type="int" name="NBANDSO">    -1</i>
   <i type="int" name="NBANDSV">    -1</i>
   <i type="int" name="NELMGW">     1</i>
   <i type="int" name="NELMHF">     1</i>
   <i type="int" name="DIM">     3</i>
   <i type="int" name="IESPILON">     4</i>
   <i type="int" name="ANTIRES">     0</i>
   <i name="OMEGAMAX">    -30.00000000</i>
   <i name="OMEGAMIN">    -30.00000000</i>
   <i name="OMEGATL">   -200.00000000</i>
   <i type="int" name="OMEGAGRID">     0</i>
   <i name="CSHIFT">     -0.10000000</i>
   <i type="logical" name="LSELFENERGY"> F  </i>
   <i type="logical" name="LSPECTRAL"> F  </i>
   <i type="logical" name="LSPECTRALGW"> F  </i>
   <i type="logical" name="LSINGLES"> F  </i>
   <i type="logical" name="LFERMIGW"> F  </i>
   <i type="logical" name="ODDONLYGW"> F  </i>
   <i type="logical" name="EVENONLYGW"> F  </i>
   <i type="int" name="NKREDLFX">     1</i>
   <i type="int" name="NKREDLFY">     1</i>
   <i type="int" name="NKREDLFZ">     1</i>
   <i type="int" name="MAXMEM">  2800</i>
   <i type="int" name="TELESCOPE">     0</i>
   <i type="int" name="NTAUPAR">    -1</i>
   <i type="int" name="NOMEGAPAR">    -1</i>
   <i name="DAMP_NEWTON">      0.80000001</i>
   <i name="LAMBDA">      1.00000000</i>
  </separator>
  <separator name="External order field" >
   <i name="OFIELD_KAPPA">      0.00000000</i>
   <v name="OFIELD_K">      0.00000000      0.00000000      0.00000000</v>
   <i name="OFIELD_Q6_NEAR">      0.00000000</i>
   <i name="OFIELD_Q6_FAR">      0.00000000</i>
   <i name="OFIELD_A">      0.00000000</i>
  </separator>
  <separator name="optional k-points parameters" >
   <i type="int" name="KPOINTS_OPT_MODE">     1</i>
   <i type="logical" name="LKPOINTS_OPT"> F  </i>
  </separator>
 </parameters>
 <atominfo>
  <atoms>      52 </atoms>
  <types>       4 </types>
  <array name="atoms" >
   <dimension dim="1">ion</dimension>
   <field type="string">element</field>
   <field type="int">atomtype</field>
   <set>
    <rc><c>Li</c><c>   1</c></rc>
    <rc><c>Li</c><c>   1</c></rc>
    <rc><c>Li</c><c>   1</c></rc>
    <rc><c>Li</c><c>   1</c></rc>
    <rc><c>Li</c><c>   1</c></rc>
    <rc><c>Li</c><c>   1</c></rc>
    <rc><c>Li</c><c>   1</c></rc>
    <rc><c>Li</c><c>   1</c></rc>
    <rc><c>Li</c><c>   1</c></rc>
    <rc><c>Li</c><c>   1</c></rc>
    <rc><c>Li</c><c>   1</c></rc>
    <rc><c>Li</c><c>   1</c></rc>
    <rc><c>Li</c><c>   1</c></rc>
    <rc><c>Li</c><c>   1</c></rc>
    <rc><c>Li</c><c>   1</c></rc>
    <rc><c>Li</c><c>   1</c></rc>
    <rc><c>Li</c><c>   1</c></rc>
    <rc><c>Li</c><c>   1</c></rc>
    <rc><c>Li</c><c>   1</c></rc>
    <rc><c>Li</c><c>   1</c></rc>
    <rc><c>Li</c><c>   1</c></rc>
    <rc><c>Li</c><c>   1</c></rc>
    <rc><c>Li</c><c>   1</c></rc>
    <rc><c>Li</c><c>   1</c></rc>
    <rc><c>P </c><c>   2</c></rc>
    <rc><c>P </c><c>   2</c></rc>
    <rc><c>P </c><c>   2</c></rc>
    <rc><c>P </c><c>   2</c></rc>
    <rc><c>S </c><c>   3</c></rc>
    <rc><c>S </c><c>   3</c></rc>
    <rc><c>S </c><c>   3</c></rc>
    <rc><c>S </c><c>   3</c></rc>
    <rc><c>S </c><c>   3</c></rc>
    <rc><c>S </c><c>   3</c></rc>
    <rc><c>S </c><c>   3</c></rc>
    <rc><c>S </c><c>   3</c></rc>
    <rc><c>S </c><c>   3</c></rc>
    <rc><c>S </c><c>   3</c></rc>
    <rc><c>S </c><c>   3</c></rc>
    <rc><c>S </c><c>   3</c></rc>
    <rc><c>S </c><c>   3</c></rc>
    <rc><c>S </c><c>   3</c></rc>
    <rc><c>S </c><c>   3</c></rc>
    <rc><c>S </c><c>   3</c></rc>
    <rc><c>S </c><c>   3</c></rc>
    <rc><c>S </c><c>   3</c></rc>
    <rc><c>S </c><c>   3</c></rc>
    <rc><c>S </c><c>   3</c></rc>
    <rc><c>Cl</c><c>   4</c></rc>
    <rc><c>Cl</c><c>   4</c></rc>
    <rc><c>Cl</c><c>   4</c></rc>
    <rc><c>Cl</c><c>   4</c></rc>
   </set>
  </array>
  <array name="atomtypes" >
   <dimension dim="1">type</dimension>
   <field type="int">atomspertype</field>
   <field type="string">element</field>
   <field>mass</field>
   <field>valence</field>
   <field type="string">pseudopotential</field>
   <set>
    <rc><c>  24</c><c>Li</c><c>      7.01000000</c><c>      3.00000000</c><c>  PAW_PBE Li_sv_GW 25Mar2010            </c></rc>
    <rc><c>   4</c><c>P </c><c>     30.97400000</c><c>      5.00000000</c><c>  PAW_PBE P_GW 19Mar2012                </c></rc>
    <rc><c>  20</c><c>S </c><c>     32.06600000</c><c>      6.00000000</c><c>  PAW_PBE S_GW 19Mar2012                </c></rc>
    <rc><c>   4</c><c>Cl</c><c>     35.45300000</c><c>      7.00000000</c><c>  PAW_PBE Cl_GW 19Mar2012               </c></rc>
   </set>
  </array>
 </atominfo>
 <structure name="initialpos" >
  <crystal>
   <varray name="basis" >
    <v>       9.64643536       0.00000000       0.00000000 </v>
    <v>       0.00000000       9.64643536       0.00000000 </v>
    <v>       0.00000000       0.00000000       9.64643536 </v>
   </varray>
   <i name="volume">    897.63664813 </i>
   <varray name="rec_basis" >
    <v>       0.10366524       0.00000000       0.00000000 </v>
    <v>       0.00000000       0.10366524       0.00000000 </v>
    <v>       0.00000000       0.00000000       0.10366524 </v>
   </varray>
  </crystal>
  <varray name="positions" >
   <v>       0.96496087       0.19879918       0.16262701 </v>
   <v>       0.98563545       0.70501390       0.66832556 </v>
   <v>       0.02392208       0.21850139       0.78156734 </v>
   <v>       0.01857587       0.80870265       0.17484155 </v>
   <v>       0.33835307       0.32708495       0.96068999 </v>
   <v>       0.31380839       0.66866461       0.04248100 </v>
   <v>       0.67429520       0.28505572       0.01391535 </v>
   <v>       0.73048725       0.68504979       0.98657162 </v>
   <v>       0.22277823       0.98930392       0.18798928 </v>
   <v>       0.21470234       0.02437105       0.83965099 </v>
   <v>       0.83516582       0.95578541       0.82875208 </v>
   <v>       0.72728997       0.02010145       0.30431504 </v>
   <v>       0.30701453       0.82751482       0.48120666 </v>
   <v>       0.20345547       0.28711825       0.51671805 </v>
   <v>       0.68802775       0.82851562       0.54885781 </v>
   <v>       0.82259234       0.31394398       0.46144314 </v>
   <v>       0.19811220       0.47801670       0.71690320 </v>
   <v>       0.15592800       0.54466538       0.31892273 </v>
   <v>       0.67834835       0.47839636       0.21347686 </v>
   <v>       0.79360534       0.50731065       0.69823743 </v>
   <v>       0.47247143       0.16026800       0.66698646 </v>
   <v>       0.48448709       0.78827297       0.27209400 </v>
   <v>       0.51582687       0.20184486       0.31758665 </v>
   <v>       0.53190057       0.67306220       0.79589417 </v>
   <v>       0.49441871       0.50268704       0.49929096 </v>
   <v>       0.51839404       0.99140734       0.99179447 </v>
   <v>       0.00587193       0.49628669       0.00768403 </v>
   <v>       0.00327954       0.99989135       0.50088772 </v>
   <v>       0.13326362       0.89795098       0.63531117 </v>
   <v>       0.10960528       0.12479826       0.36492139 </v>
   <v>       0.89051172       0.85605491       0.39254060 </v>
   <v>       0.86884996       0.11568083       0.61804945 </v>
   <v>       0.88958404       0.60201438       0.15171322 </v>
   <v>       0.87581902       0.37402675       0.89059832 </v>
   <v>       0.11529765       0.63350473       0.88763448 </v>
   <v>       0.14266614       0.37743376       0.11746346 </v>
   <v>       0.63300890       0.10371607       0.85382557 </v>
   <v>       0.64929993       0.87894126       0.11674894 </v>
   <v>       0.40069896       0.12954697       0.10503495 </v>
   <v>       0.39004398       0.85882832       0.88717617 </v>
   <v>       0.62928033       0.63048458       0.39534833 </v>
   <v>       0.61263227       0.36548062       0.61171663 </v>
   <v>       0.37106493       0.62562422       0.62147242 </v>
   <v>       0.36965427       0.39581151       0.36458039 </v>
   <v>       0.76133222       0.73610963       0.75680828 </v>
   <v>       0.74243497       0.24983341       0.24403256 </v>
   <v>       0.24776598       0.76161238       0.25443306 </v>
   <v>       0.25774216       0.24706673       0.74708632 </v>
   <v>       0.02131250       0.00846336       0.00351227 </v>
   <v>       0.01146772       0.48302740       0.53439286 </v>
   <v>       0.51065819       0.99230816       0.46709969 </v>
   <v>       0.52338325       0.51017659       0.00279828 </v>
  </varray>
 </structure>
 <calculation>
  <scstep>
   <time name="dav">    2.29    2.39</time>
   <time name="total">    2.78    2.93</time>
   <energy>
    <i name="alphaZ">    302.41357040 </i>
    <i name="ewald">  -8854.81280657 </i>
    <i name="hartreedc">  -2086.55806472 </i>
    <i name="XCdc">    534.41785307 </i>
    <i name="pawpsdc">   8141.38806575 </i>
    <i name="pawaedc">  -8271.61346273 </i>
    <i name="eentropy">     -0.00435680 </i>
    <i name="bandstr">   -881.89773930 </i>
    <i name="atom">  12703.13999606 </i>
    <i name="e_fr_energy">   1586.47305515 </i>
    <i name="e_wo_entrp">   1586.47741195 </i>
    <i name="e_0_energy">   1586.47523355 </i>
   </energy>
  </scstep>
  <scstep>
   <time name="dav">    2.64    2.66</time>
   <time name="total">    2.64    2.66</time>
   <energy>
    <i name="e_fr_energy">    -58.03613276 </i>
    <i name="e_wo_entrp">    -58.03613276 </i>
    <i name="e_0_energy">    -58.03613276 </i>
   </energy>
  </scstep>
  <scstep>
   <time name="dav">    2.60    2.62</time>
   <time name="total">    2.60    2.62</time>
   <energy>
    <i name="e_fr_energy">   -227.78427719 </i>
    <i name="e_wo_entrp">   -227.78427719 </i>
    <i name="e_0_energy">   -227.78427719 </i>
   </energy>
  </scstep>
  <scstep>
   <time name="dav">    3.15    3.18</time>
   <time name="total">    3.15    3.18</time>
   <energy>
    <i name="e_fr_energy">   -241.64561146 </i>
    <i name="e_wo_entrp">   -241.64561146 </i>
    <i name="e_0_energy">   -241.64561146 </i>
   </energy>
  </scstep>
  <scstep>
   <time name="dav">    2.95    2.97</time>
   <time name="total">    2.95    2.97</time>
   <energy>
    <i name="e_fr_energy">   -241.85309200 </i>
    <i name="e_wo_entrp">   -241.85309200 </i>
    <i name="e_0_energy">   -241.85309200 </i>
   </energy>
  </scstep>
  <scstep>
   <time name="dav">    3.04    3.06</time>
   <time name="total">    3.04    3.06</time>
   <energy>
    <i name="e_fr_energy">   -241.86461825 </i>
    <i name="e_wo_entrp">   -241.86461825 </i>
    <i name="e_0_energy">   -241.86461825 </i>
   </energy>
  </scstep>
  <scstep>
   <time name="dav">    3.03    3.06</time>
   <time name="total">    3.03    3.06</time>
   <energy>
    <i name="e_fr_energy">   -241.86500202 </i>
    <i name="e_wo_entrp">   -241.86500202 </i>
    <i name="e_0_energy">   -241.86500202 </i>
   </energy>
  </scstep>
  <scstep>
   <time name="dav">    3.00    3.03</time>
   <time name="total">    3.00    3.03</time>
   <energy>
    <i name="e_fr_energy">   -241.86502475 </i>
    <i name="e_wo_entrp">   -241.86502475 </i>
    <i name="e_0_energy">   -241.86502475 </i>
   </energy>
  </scstep>
  <scstep>
   <time name="dav">    2.94    2.97</time>
   <time name="total">    2.95    2.97</time>
   <energy>
    <i name="e_fr_energy">   -241.86502616 </i>
    <i name="e_wo_entrp">   -241.86502616 </i>
    <i name="e_0_energy">   -241.86502616 </i>
   </energy>
  </scstep>
  <scstep>
   <time name="dav">    1.95    1.97</time>
   <time name="total">    2.02    2.04</time>
   <energy>
    <i name="e_fr_energy">   -241.86502623 </i>
    <i name="e_wo_entrp">   -241.86502623 </i>
    <i name="e_0_energy">   -241.86502623 </i>
   </energy>
  </scstep>
  <scstep>
   <time name="diag">    0.36    0.37</time>
   <time name="diis">    1.17    1.18</time>
   <time name="orth">    0.07    0.07</time>
   <time name="total">    2.12    2.14</time>
   <energy>
    <i name="e_fr_energy">   -236.38859052 </i>
    <i name="e_wo_entrp">   -236.38859052 </i>
    <i name="e_0_energy">   -236.38859052 </i>
   </energy>
  </scstep>
  <scstep>
   <time name="diag">    0.36    0.36</time>
   <time name="diis">    1.22    1.23</time>
   <time name="orth">    0.07    0.07</time>
   <time name="total">    2.17    2.19</time>
   <energy>
    <i name="e_fr_energy">   -256.00010647 </i>
    <i name="e_wo_entrp">   -256.00010647 </i>
    <i name="e_0_energy">   -256.00010647 </i>
   </energy>
  </scstep>
  <scstep>
   <time name="diag">    0.36    0.36</time>
   <time name="diis">    1.22    1.23</time>
   <time name="orth">    0.07    0.07</time>
   <time name="total">    2.16    2.18</time>
   <energy>
    <i name="e_fr_energy">   -258.49536905 </i>
    <i name="e_wo_entrp">   -258.49536905 </i>
    <i name="e_0_energy">   -258.49536905 </i>
   </energy>
  </scstep>
  <scstep>
   <time name="diag">    0.35    0.36</time>
   <time name="diis">    1.56    1.57</time>
   <time name="orth">    0.07    0.07</time>
   <time name="total">    2.51    2.53</time>
   <energy>
    <i name="e_fr_energy">   -258.68692763 </i>
    <i name="e_wo_entrp">   -258.68692763 </i>
    <i name="e_0_energy">   -258.68692763 </i>
   </energy>
  </scstep>
  <scstep>
   <time name="diag">    0.35    0.36</time>
   <time name="diis">    1.29    1.30</time>
   <time name="orth">    0.07    0.07</time>
   <time name="total">    2.24    2.25</time>
   <energy>
    <i name="e_fr_energy">   -258.66121887 </i>
    <i name="e_wo_entrp">   -258.66121887 </i>
    <i name="e_0_energy">   -258.66121887 </i>
   </energy>
  </scstep>
  <scstep>
   <time name="diag">    0.35    0.36</time>
   <time name="diis">    1.29    1.30</time>
   <time name="orth">    0.07    0.07</time>
   <time name="total">    2.24    2.25</time>
   <energy>
    <i name="e_fr_energy">   -258.68054950 </i>
    <i name="e_wo_entrp">   -258.68054950 </i>
    <i name="e_0_energy">   -258.68054950 </i>
   </energy>
  </scstep>
  <scstep>
   <time name="diag">    0.35    0.36</time>
   <time name="diis">    1.44    1.45</time>
   <time name="orth">    0.07    0.07</time>
   <time name="total">    2.39    2.40</time>
   <energy>
    <i name="e_fr_energy">   -258.68631919 </i>
    <i name="e_wo_entrp">   -258.68631919 </i>
    <i name="e_0_energy">   -258.68631919 </i>
   </energy>
  </scstep>
  <scstep>
   <time name="diag">    0.35    0.36</time>
   <time name="diis">    1.42    1.43</time>
   <time name="orth">    0.07    0.07</time>
   <time name="total">    2.36    2.38</time>
   <energy>
    <i name="e_fr_energy">   -258.68752049 </i>
    <i name="e_wo_entrp">   -258.68752049 </i>
    <i name="e_0_energy">   -258.68752049 </i>
   </energy>
  </scstep>
  <scstep>
   <time name="diag">    0.35    0.36</time>
   <time name="diis">    1.65    1.67</time>
   <time name="orth">    0.07    0.07</time>
   <time name="total">    2.60    2.62</time>
   <energy>
    <i name="e_fr_energy">   -258.68795683 </i>
    <i name="e_wo_entrp">   -258.68795683 </i>
    <i name="e_0_energy">   -258.68795683 </i>
   </energy>
  </scstep>
  <scstep>
   <time name="diag">    0.36    0.36</time>
   <time name="diis">    1.59    1.60</time>
   <time name="orth">    0.07    0.07</time>
   <time name="total">    2.54    2.56</time>
   <energy>
    <i name="e_fr_energy">   -258.68804334 </i>
    <i name="e_wo_entrp">   -258.68804334 </i>
    <i name="e_0_energy">   -258.68804334 </i>
   </energy>
  </scstep>
  <scstep>
   <time name="diag">    0.35    0.36</time>
   <time name="diis">    1.43    1.45</time>
   <time name="orth">    0.07    0.07</time>
   <time name="total">    2.38    2.40</time>
   <energy>
    <i name="e_fr_energy">   -258.68805916 </i>
    <i name="e_wo_entrp">   -258.68805916 </i>
    <i name="e_0_energy">   -258.68805916 </i>
   </energy>
  </scstep>
  <scstep>
   <time name="diag">    0.35    0.36</time>
   <time name="diis">    1.60    1.61</time>
   <time name="orth">    0.07    0.07</time>
   <time name="total">    2.54    2.56</time>
   <energy>
    <i name="e_fr_energy">   -258.68806497 </i>
    <i name="e_wo_entrp">   -258.68806497 </i>
    <i name="e_0_energy">   -258.68806497 </i>
   </energy>
  </scstep>
  <scstep>
   <time name="diag">    0.35    0.36</time>
   <time name="diis">    1.23    1.24</time>
   <time name="orth">    0.07    0.07</time>
   <time name="total">    2.18    2.20</time>
   <energy>
    <i name="e_fr_energy">   -258.68806468 </i>
    <i name="e_wo_entrp">   -258.68806468 </i>
    <i name="e_0_energy">   -258.68806468 </i>
   </energy>
  </scstep>
  <scstep>
   <time name="diag">    0.35    0.36</time>
   <time name="diis">    0.95    0.96</time>
   <time name="orth">    0.07    0.07</time>
   <time name="total">    1.83    1.84</time>
   <energy>
    <i name="alphaZ">    302.41357040 </i>
    <i name="ewald">  -8854.81280657 </i>
    <i name="hartreedc">  -2182.55990138 </i>
    <i name="XCdc">    537.91275154 </i>
    <i name="pawpsdc">   9815.43778812 </i>
    <i name="pawaedc">  -9959.43301060 </i>
    <i name="eentropy">     -0.00000000 </i>
    <i name="bandstr">  -2620.78645155 </i>
    <i name="atom">  12703.13999606 </i>
    <i name="e_fr_energy">   -258.68806398 </i>
    <i name="e_wo_entrp">   -258.68806398 </i>
    <i name="e_0_energy">   -258.68806398 </i>
   </energy>
  </scstep>
  <structure>
   <crystal>
    <varray name="basis" >
     <v>       9.64643536       0.00000000       0.00000000 </v>
     <v>       0.00000000       9.64643536       0.00000000 </v>
     <v>       0.00000000       0.00000000       9.64643536 </v>
    </varray>
    <i name="volume">    897.63664813 </i>
    <varray name="rec_basis" >
     <v>       0.10366524       0.00000000       0.00000000 </v>
     <v>       0.00000000       0.10366524       0.00000000 </v>
     <v>       0.00000000       0.00000000       0.10366524 </v>
    </varray>
   </crystal>
   <varray name="positions" >
    <v>       0.96496087       0.19879918       0.16262701 </v>
    <v>       0.98563545       0.70501390       0.66832556 </v>
    <v>       0.02392208       0.21850139       0.78156734 </v>
    <v>       0.01857587       0.80870265       0.17484155 </v>
    <v>       0.33835307       0.32708495       0.96068999 </v>
    <v>       0.31380839       0.66866461       0.04248100 </v>
    <v>       0.67429520       0.28505572       0.01391535 </v>
    <v>       0.73048725       0.68504979       0.98657162 </v>
    <v>       0.22277823       0.98930392       0.18798928 </v>
    <v>       0.21470234       0.02437105       0.83965099 </v>
    <v>       0.83516582       0.95578541       0.82875208 </v>
    <v>       0.72728997       0.02010145       0.30431504 </v>
    <v>       0.30701453       0.82751482       0.48120666 </v>
    <v>       0.20345547       0.28711825       0.51671805 </v>
    <v>       0.68802775       0.82851562       0.54885781 </v>
    <v>       0.82259234       0.31394398       0.46144314 </v>
    <v>       0.19811220       0.47801670       0.71690320 </v>
    <v>       0.15592800       0.54466538       0.31892273 </v>
    <v>       0.67834835       0.47839636       0.21347686 </v>
    <v>       0.79360534       0.50731065       0.69823743 </v>
    <v>       0.47247143       0.16026800       0.66698646 </v>
    <v>       0.48448709       0.78827297       0.27209400 </v>
    <v>       0.51582687       0.20184486       0.31758665 </v>
    <v>       0.53190057       0.67306220       0.79589417 </v>
    <v>       0.49441871       0.50268704       0.49929096 </v>
    <v>       0.51839404       0.99140734       0.99179447 </v>
    <v>       0.00587193       0.49628669       0.00768403 </v>
    <v>       0.00327954       0.99989135       0.50088772 </v>
    <v>       0.13326362       0.89795098       0.63531117 </v>
    <v>       0.10960528       0.12479826       0.36492139 </v>
    <v>       0.89051172       0.85605491       0.39254060 </v>
    <v>       0.86884996       0.11568083       0.61804945 </v>
    <v>       0.88958404       0.60201438       0.15171322 </v>
    <v>       0.87581902       0.37402675       0.89059832 </v>
    <v>       0.11529765       0.63350473       0.88763448 </v>
    <v>       0.14266614       0.37743376       0.11746346 </v>
    <v>       0.63300890       0.10371607       0.85382557 </v>
    <v>       0.64929993       0.87894126       0.11674894 </v>
    <v>       0.40069896       0.12954697       0.10503495 </v>
    <v>       0.39004398       0.85882832       0.88717617 </v>
    <v>       0.62928033       0.63048458       0.39534833 </v>
    <v>       0.61263227       0.36548062       0.61171663 </v>
    <v>       0.37106493       0.62562422       0.62147242 </v>
    <v>       0.36965427       0.39581151       0.36458039 </v>
    <v>       0.76133222       0.73610963       0.75680828 </v>
    <v>       0.74243497       0.24983341       0.24403256 </v>
    <v>       0.24776598       0.76161238       0.25443306 </v>
    <v>       0.25774216       0.24706673       0.74708632 </v>
    <v>       0.02131250       0.00846336       0.00351227 </v>
    <v>       0.01146772       0.48302740       0.53439286 </v>
    <v>       0.51065819       0.99230816       0.46709969 </v>
    <v>       0.52338325       0.51017659       0.00279828 </v>
   </varray>
  </structure>
  <varray name="forces" >
   <v>      -0.00005744       0.00012687      -0.00036416 </v>
   <v>      -0.00010717       0.00053916      -0.00111499 </v>
   <v>      -0.00031770       0.00041865      -0.00200212 </v>
   <v>      -0.00009324      -0.00058945      -0.00100478 </v>
   <v>       0.00054933       0.00010230      -0.00042178 </v>
   <v>      -0.00002961      -0.00064516       0.00036960 </v>
   <v>      -0.00018439       0.00002072      -0.00021277 </v>
   <v>       0.00015280      -0.00064798       0.00049419 </v>
   <v>      -0.00047869      -0.00014281      -0.00003530 </v>
   <v>       0.00025999       0.00078031       0.00135052 </v>
   <v>       0.00048550      -0.00016734       0.00059965 </v>
   <v>       0.00057196      -0.00037962       0.00042764 </v>
   <v>      -0.00013718       0.00027601       0.00032040 </v>
   <v>       0.00095502       0.00085611      -0.00073039 </v>
   <v>       0.00058403       0.00096823       0.00069201 </v>
   <v>       0.00001633       0.00021523      -0.00036099 </v>
   <v>      -0.00022196       0.00051647       0.00039329 </v>
   <v>      -0.00113123       0.00008475      -0.00037886 </v>
   <v>      -0.00154818      -0.00024308       0.00031410 </v>
   <v>       0.00021372       0.00000915      -0.00035996 </v>
   <v>      -0.00007680      -0.00051036      -0.00012064 </v>
   <v>       0.00027975       0.00010619       0.00051593 </v>
   <v>      -0.00006441      -0.00022443       0.00033923 </v>
   <v>       0.00009935      -0.00016526       0.00003271 </v>
   <v>       0.00089119       0.00098367      -0.00044815 </v>
   <v>       0.00082259      -0.00261977      -0.00055253 </v>
   <v>       0.00055566      -0.00045449       0.00046838 </v>
   <v>      -0.00025665      -0.00061842       0.00003034 </v>
   <v>       0.00000725       0.00106177       0.00045269 </v>
   <v>      -0.00010190       0.00035278       0.00013485 </v>
   <v>       0.00121876      -0.00027154       0.00049049 </v>
   <v>      -0.00075153      -0.00067492      -0.00076460 </v>
   <v>       0.00008373      -0.00118812       0.00066261 </v>
   <v>       0.00014267      -0.00012852      -0.00004065 </v>
   <v>      -0.00079711       0.00046695       0.00043641 </v>
   <v>      -0.00006245       0.00032270      -0.00087612 </v>
   <v>      -0.00004520      -0.00014821      -0.00004943 </v>
   <v>      -0.00054707       0.00062155      -0.00047107 </v>
   <v>      -0.00063197       0.00054632       0.00040166 </v>
   <v>       0.00057580       0.00061128       0.00084151 </v>
   <v>       0.00013328      -0.00034256       0.00123830 </v>
   <v>      -0.00033510      -0.00013119      -0.00006824 </v>
   <v>       0.00000164      -0.00015086      -0.00010568 </v>
   <v>       0.00055117       0.00083308      -0.00094154 </v>
   <v>       0.00023206      -0.00011854       0.00041563 </v>
   <v>      -0.00022802      -0.00018760      -0.00012586 </v>
   <v>      -0.00002630      -0.00002257       0.00018568 </v>
   <v>       0.00000905       0.00040342      -0.00034336 </v>
   <v>      -0.00041769      -0.00035118       0.00048779 </v>
   <v>      -0.00023750       0.00031437      -0.00067024 </v>
   <v>      -0.00017869       0.00027029       0.00065331 </v>
   <v>      -0.00032744      -0.00068434      -0.00018472 </v>
  </varray>
  <varray name="stress" >
   <v>      -1.39668417       0.82374840      -0.73604107 </v>
   <v>       0.82374765       1.57371968       3.46795312 </v>
   <v>      -0.73604116       3.46795355      -0.16347817 </v>
  </varray>
  <energy>
   <i name="e_fr_energy">   -272.32774748 </i>
   <i name="e_wo_entrp">   -272.32774748 </i>
   <i name="e_0_energy">   -272.32774748 </i>
  </energy>
  <time name="totalsc">   63.45   64.15</time>
 </calculation>
 <calculation>
  <scstep>
   <time name="dav">    2.26    2.28</time>
   <time name="total">    2.78    2.81</time>
   <energy>
    <i name="alphaZ">    302.41357040 </i>
    <i name="ewald">  -8854.81146236 </i>
    <i name="hartreedc">  -2182.56415469 </i>
    <i name="XCdc">    537.91288202 </i>
    <i name="pawpsdc">   9815.42783625 </i>
    <i name="pawaedc">  -9959.42297973 </i>
    <i name="eentropy">     -0.00000000 </i>
    <i name="bandstr">  -2620.78375353 </i>
    <i name="atom">  12703.13999606 </i>
    <i name="e_fr_energy">   -258.68806559 </i>
    <i name="e_wo_entrp">   -258.68806559 </i>
    <i name="e_0_energy">   -258.68806559 </i>
   </energy>
  </scstep>
  <scstep>
   <time name="diag">    0.36    0.37</time>
   <time name="diis">    0.83    0.84</time>
   <time name="orth">    0.07    0.07</time>
   <time name="total">    1.71    1.73</time>
   <energy>
    <i name="alphaZ">    302.41357040 </i>
    <i name="ewald">  -8854.81146236 </i>
    <i name="hartreedc">  -2182.56649411 </i>
    <i name="XCdc">    537.91275202 </i>
    <i name="pawpsdc">   9815.41038453 </i>
    <i name="pawaedc">  -9959.40510759 </i>
    <i name="eentropy">     -0.00000000 </i>
    <i name="bandstr">  -2620.78170482 </i>
    <i name="atom">  12703.13999606 </i>
    <i name="e_fr_energy">   -258.68806588 </i>
    <i name="e_wo_entrp">   -258.68806588 </i>
    <i name="e_0_energy">   -258.68806588 </i>
   </energy>
  </scstep>
  <structure>
   <crystal>
    <varray name="basis" >
     <v>       9.64643536       0.00000000       0.00000000 </v>
     <v>       0.00000000       9.64643536       0.00000000 </v>
     <v>       0.00000000       0.00000000       9.64643536 </v>
    </varray>
    <i name="volume">    897.63664813 </i>
    <varray name="rec_basis" >
     <v>       0.10366524       0.00000000       0.00000000 </v>
     <v>       0.00000000       0.10366524       0.00000000 </v>
     <v>       0.00000000       0.00000000       0.10366524 </v>
    </varray>
   </crystal>
   <varray name="positions" >
    <v>       0.96496076       0.19879943       0.16262628 </v>
    <v>       0.98563523       0.70501498       0.66832333 </v>
    <v>       0.02392145       0.21850223       0.78156333 </v>
    <v>       0.01857568       0.80870148       0.17483954 </v>
    <v>       0.33835417       0.32708516       0.96068915 </v>
    <v>       0.31380833       0.66866332       0.04248174 </v>
    <v>       0.67429483       0.28505576       0.01391492 </v>
    <v>       0.73048755       0.68504849       0.98657261 </v>
    <v>       0.22277727       0.98930363       0.18798921 </v>
    <v>       0.21470286       0.02437261       0.83965369 </v>
    <v>       0.83516679       0.95578507       0.82875328 </v>
    <v>       0.72729112       0.02010069       0.30431590 </v>
    <v>       0.30701426       0.82751537       0.48120730 </v>
    <v>       0.20345738       0.28711996       0.51671658 </v>
    <v>       0.68802892       0.82851756       0.54885919 </v>
    <v>       0.82259237       0.31394441       0.46144241 </v>
    <v>       0.19811176       0.47801773       0.71690399 </v>
    <v>       0.15592574       0.54466555       0.31892197 </v>
    <v>       0.67834525       0.47839587       0.21347748 </v>
    <v>       0.79360577       0.50731067       0.69823671 </v>
    <v>       0.47247127       0.16026698       0.66698622 </v>
    <v>       0.48448765       0.78827318       0.27209503 </v>
    <v>       0.51582674       0.20184441       0.31758733 </v>
    <v>       0.53190077       0.67306187       0.79589423 </v>
    <v>       0.49442049       0.50268901       0.49929006 </v>
    <v>       0.51839568       0.99140210       0.99179337 </v>
    <v>       0.00587304       0.49628578       0.00768496 </v>
    <v>       0.00327903       0.99989011       0.50088778 </v>
    <v>       0.13326364       0.89795310       0.63531207 </v>
    <v>       0.10960507       0.12479897       0.36492166 </v>
    <v>       0.89051415       0.85605436       0.39254158 </v>
    <v>       0.86884845       0.11567948       0.61804792 </v>
    <v>       0.88958421       0.60201200       0.15171455 </v>
    <v>       0.87581931       0.37402650       0.89059824 </v>
    <v>       0.11529605       0.63350566       0.88763535 </v>
    <v>       0.14266602       0.37743441       0.11746170 </v>
    <v>       0.63300881       0.10371578       0.85382547 </v>
    <v>       0.64929883       0.87894250       0.11674800 </v>
    <v>       0.40069769       0.12954807       0.10503576 </v>
    <v>       0.39004513       0.85882954       0.88717785 </v>
    <v>       0.62928060       0.63048390       0.39535081 </v>
    <v>       0.61263160       0.36548035       0.61171649 </v>
    <v>       0.37106493       0.62562392       0.62147221 </v>
    <v>       0.36965537       0.39581318       0.36457851 </v>
    <v>       0.76133269       0.73610939       0.75680912 </v>
    <v>       0.74243451       0.24983304       0.24403231 </v>
    <v>       0.24776592       0.76161233       0.25443343 </v>
    <v>       0.25774218       0.24706754       0.74708563 </v>
    <v>       0.02131166       0.00846266       0.00351325 </v>
    <v>       0.01146725       0.48302803       0.53439152 </v>
    <v>       0.51065783       0.99230870       0.46710100 </v>
    <v>       0.52338259       0.51017522       0.00279791 </v>
   </varray>
  </structure>
  <varray name="forces" >
   <v>      -0.00008595       0.00007455      -0.00021338 </v>
   <v>      -0.00010681       0.00031459      -0.00068756 </v>
   <v>      -0.00021970       0.00026761      -0.00120172 </v>
   <v>      -0.00005143      -0.00034978      -0.00064305 </v>
   <v>       0.00032703       0.00000134      -0.00025883 </v>
   <v>      -0.00007440      -0.00040040       0.00025822 </v>
   <v>      -0.00019011      -0.00001703      -0.00012307 </v>
   <v>       0.00008930      -0.00041687       0.00027950 </v>
   <v>      -0.00026864      -0.00001030      -0.00002057 </v>
   <v>       0.00010775       0.00056720       0.00085605 </v>
   <v>       0.00025063      -0.00007704       0.00034973 </v>
   <v>       0.00029858      -0.00013559       0.00030347 </v>
   <v>      -0.00012866       0.00019878       0.00020034 </v>
   <v>       0.00054199       0.00050084      -0.00045315 </v>
   <v>       0.00029377       0.00063810       0.00047923 </v>
   <v>      -0.00002718       0.00013082      -0.00023028 </v>
   <v>      -0.00017281       0.00030769       0.00020793 </v>
   <v>      -0.00070253       0.00007898      -0.00021769 </v>
   <v>      -0.00100474      -0.00020390       0.00016381 </v>
   <v>       0.00010066       0.00000642      -0.00020445 </v>
   <v>      -0.00009595      -0.00029297      -0.00005824 </v>
   <v>       0.00004810       0.00008948       0.00030359 </v>
   <v>      -0.00011524      -0.00013532       0.00016986 </v>
   <v>       0.00004390      -0.00015816      -0.00000442 </v>
   <v>       0.00025008       0.00037030      -0.00013268 </v>
   <v>       0.00021088      -0.00067556      -0.00006608 </v>
   <v>       0.00008622      -0.00023651       0.00005835 </v>
   <v>       0.00000430      -0.00007569       0.00003137 </v>
   <v>       0.00006409       0.00046803       0.00036522 </v>
   <v>      -0.00004866       0.00021634       0.00009738 </v>
   <v>       0.00035044      -0.00034160       0.00004430 </v>
   <v>      -0.00049935      -0.00024565      -0.00038500 </v>
   <v>      -0.00014977      -0.00054296       0.00032708 </v>
   <v>       0.00007767      -0.00004798      -0.00015220 </v>
   <v>      -0.00040983       0.00027325       0.00011341 </v>
   <v>       0.00027520      -0.00017901      -0.00029936 </v>
   <v>      -0.00006804      -0.00002631       0.00009753 </v>
   <v>       0.00008499      -0.00014456       0.00031641 </v>
   <v>       0.00000537      -0.00029695      -0.00011817 </v>
   <v>      -0.00021264      -0.00019288       0.00015703 </v>
   <v>       0.00042871       0.00027722       0.00029821 </v>
   <v>      -0.00014003      -0.00002502      -0.00001156 </v>
   <v>      -0.00011474      -0.00004301       0.00005000 </v>
   <v>       0.00037148       0.00042779      -0.00043752 </v>
   <v>       0.00005312      -0.00023695       0.00024167 </v>
   <v>      -0.00027950      -0.00014234      -0.00004467 </v>
   <v>       0.00012554       0.00016608       0.00000223 </v>
   <v>      -0.00028258       0.00034006      -0.00022631 </v>
   <v>       0.00029092       0.00016583       0.00033205 </v>
   <v>       0.00018754      -0.00022013       0.00066054 </v>
   <v>       0.00022171      -0.00017753      -0.00049755 </v>
   <v>       0.00025929       0.00016672      -0.00007699 </v>
  </varray>
  <varray name="stress" >
   <v>      -1.40313851       0.82486391      -0.73361743 </v>
   <v>       0.82486332       1.56729701       3.46648826 </v>
   <v>      -0.73361752       3.46648885      -0.17030232 </v>
  </varray>
  <energy>
   <i name="e_fr_energy">   -272.32774886 </i>
   <i name="e_wo_entrp">   -272.32774886 </i>
   <i name="e_0_energy">   -272.32774886 </i>
  </energy>
  <time name="totalsc">    7.55    7.63</time>
 </calculation>
 <calculation>
  <scstep>
   <time name="dav">    2.17    2.19</time>
   <time name="total">    2.70    2.72</time>
   <energy>
    <i name="alphaZ">    302.41357040 </i>
    <i name="ewald">  -8854.81058956 </i>
    <i name="hartreedc">  -2182.56771713 </i>
    <i name="XCdc">    537.91268922 </i>
    <i name="pawpsdc">   9815.39540936 </i>
    <i name="pawaedc">  -9959.38972240 </i>
    <i name="eentropy">     -0.00000000 </i>
    <i name="bandstr">  -2620.78170259 </i>
    <i name="atom">  12703.13999606 </i>
    <i name="e_fr_energy">   -258.68806663 </i>
    <i name="e_wo_entrp">   -258.68806663 </i>
    <i name="e_0_energy">   -258.68806663 </i>
   </energy>
  </scstep>
  <scstep>
   <time name="diag">    0.36    0.37</time>
   <time name="diis">    0.81    0.82</time>
   <time name="orth">    0.07    0.07</time>
   <time name="total">    1.69    1.70</time>
   <energy>
    <i name="alphaZ">    302.41357040 </i>
    <i name="ewald">  -8854.81058956 </i>
    <i name="hartreedc">  -2182.56797415 </i>
    <i name="XCdc">    537.91259046 </i>
    <i name="pawpsdc">   9815.38618304 </i>
    <i name="pawaedc">  -9959.38029907 </i>
    <i name="eentropy">     -0.00000000 </i>
    <i name="bandstr">  -2620.78154390 </i>
    <i name="atom">  12703.13999606 </i>
    <i name="e_fr_energy">   -258.68806672 </i>
    <i name="e_wo_entrp">   -258.68806672 </i>
    <i name="e_0_energy">   -258.68806672 </i>
   </energy>
  </scstep>
  <structure>
   <crystal>
    <varray name="basis" >
     <v>       9.64643536       0.00000000       0.00000000 </v>
     <v>       0.00000000       9.64643536       0.00000000 </v>
     <v>       0.00000000       0.00000000       9.64643536 </v>
    </varray>
    <i name="volume">    897.63664813 </i>
    <varray name="rec_basis" >
     <v>       0.10366524       0.00000000       0.00000000 </v>
     <v>       0.00000000       0.10366524       0.00000000 </v>
     <v>       0.00000000       0.00000000       0.10366524 </v>
    </varray>
   </crystal>
   <varray name="positions" >
    <v>       0.96496068       0.19879960       0.16262580 </v>
    <v>       0.98563509       0.70501568       0.66832189 </v>
    <v>       0.02392103       0.21850278       0.78156074 </v>
    <v>       0.01857556       0.80870071       0.17483824 </v>
    <v>       0.33835488       0.32708529       0.96068860 </v>
    <v>       0.31380829       0.66866249       0.04248222 </v>
    <v>       0.67429460       0.28505579       0.01391464 </v>
    <v>       0.73048775       0.68504765       0.98657325 </v>
    <v>       0.22277665       0.98930345       0.18798916 </v>
    <v>       0.21470319       0.02437363       0.83965545 </v>
    <v>       0.83516742       0.95578486       0.82875405 </v>
    <v>       0.72729186       0.02010020       0.30431645 </v>
    <v>       0.30701408       0.82751573       0.48120771 </v>
    <v>       0.20345862       0.28712107       0.51671564 </v>
    <v>       0.68802968       0.82851881       0.54886009 </v>
    <v>       0.82259239       0.31394469       0.46144195 </v>
    <v>       0.19811147       0.47801840       0.71690450 </v>
    <v>       0.15592427       0.54466566       0.31892148 </v>
    <v>       0.67834325       0.47839555       0.21347789 </v>
    <v>       0.79360604       0.50731068       0.69823625 </v>
    <v>       0.47247117       0.16026631       0.66698606 </v>
    <v>       0.48448801       0.78827332       0.27209570 </v>
    <v>       0.51582666       0.20184412       0.31758777 </v>
    <v>       0.53190090       0.67306166       0.79589427 </v>
    <v>       0.49442165       0.50269029       0.49928948 </v>
    <v>       0.51839675       0.99139870       0.99179265 </v>
    <v>       0.00587376       0.49628519       0.00768557 </v>
    <v>       0.00327870       0.99988931       0.50088782 </v>
    <v>       0.13326365       0.89795448       0.63531266 </v>
    <v>       0.10960494       0.12479942       0.36492183 </v>
    <v>       0.89051574       0.85605401       0.39254222 </v>
    <v>       0.86884748       0.11567861       0.61804693 </v>
    <v>       0.88958431       0.60201046       0.15171541 </v>
    <v>       0.87581949       0.37402633       0.89059819 </v>
    <v>       0.11529502       0.63350627       0.88763592 </v>
    <v>       0.14266594       0.37743483       0.11746057 </v>
    <v>       0.63300875       0.10371558       0.85382541 </v>
    <v>       0.64929812       0.87894331       0.11674739 </v>
    <v>       0.40069687       0.12954878       0.10503628 </v>
    <v>       0.39004588       0.85883033       0.88717894 </v>
    <v>       0.62928077       0.63048345       0.39535242 </v>
    <v>       0.61263116       0.36548018       0.61171640 </v>
    <v>       0.37106494       0.62562373       0.62147208 </v>
    <v>       0.36965609       0.39581426       0.36457729 </v>
    <v>       0.76133299       0.73610924       0.75680965 </v>
    <v>       0.74243422       0.24983280       0.24403215 </v>
    <v>       0.24776589       0.76161231       0.25443368 </v>
    <v>       0.25774219       0.24706806       0.74708519 </v>
    <v>       0.02131112       0.00846220       0.00351388 </v>
    <v>       0.01146694       0.48302844       0.53439065 </v>
    <v>       0.51065760       0.99230905       0.46710185 </v>
    <v>       0.52338217       0.51017433       0.00279767 </v>
   </varray>
  </structure>
  <varray name="forces" >
   <v>      -0.00008866       0.00006885      -0.00023150 </v>
   <v>      -0.00011202       0.00039917      -0.00089212 </v>
   <v>      -0.00029048       0.00034739      -0.00161053 </v>
   <v>      -0.00005039      -0.00047030      -0.00082363 </v>
   <v>       0.00043165      -0.00002098      -0.00029814 </v>
   <v>      -0.00007817      -0.00050711       0.00030289 </v>
   <v>      -0.00019757      -0.00004295      -0.00012184 </v>
   <v>       0.00013406      -0.00050800       0.00033008 </v>
   <v>      -0.00029479       0.00000607      -0.00001735 </v>
   <v>       0.00017627       0.00073869       0.00113710 </v>
   <v>       0.00031130      -0.00008829       0.00041028 </v>
   <v>       0.00037080      -0.00013554       0.00034975 </v>
   <v>      -0.00012907       0.00020734       0.00023504 </v>
   <v>       0.00074765       0.00064279      -0.00059960 </v>
   <v>       0.00040668       0.00081666       0.00062540 </v>
   <v>      -0.00000968       0.00013278      -0.00026267 </v>
   <v>      -0.00016836       0.00034846       0.00025410 </v>
   <v>      -0.00089841       0.00008115      -0.00027527 </v>
   <v>      -0.00129157      -0.00028640       0.00022058 </v>
   <v>       0.00012830      -0.00002626      -0.00023408 </v>
   <v>      -0.00009214      -0.00035826      -0.00007181 </v>
   <v>       0.00005930       0.00008880       0.00037076 </v>
   <v>      -0.00013650      -0.00016089       0.00018038 </v>
   <v>       0.00003879      -0.00017197      -0.00001769 </v>
   <v>      -0.00010009      -0.00004353       0.00005441 </v>
   <v>      -0.00011387       0.00045759       0.00017004 </v>
   <v>      -0.00015950      -0.00012132      -0.00013586 </v>
   <v>       0.00018598       0.00024891       0.00003453 </v>
   <v>       0.00012232       0.00050567       0.00043560 </v>
   <v>      -0.00008216       0.00017132       0.00017263 </v>
   <v>       0.00038912      -0.00058264      -0.00000877 </v>
   <v>      -0.00062187      -0.00034682      -0.00045162 </v>
   <v>      -0.00011679      -0.00066400       0.00045920 </v>
   <v>       0.00014104      -0.00006783      -0.00012005 </v>
   <v>      -0.00044699       0.00036188       0.00017883 </v>
   <v>       0.00043476      -0.00027810      -0.00024433 </v>
   <v>      -0.00007128      -0.00017479       0.00010487 </v>
   <v>       0.00029594      -0.00034610       0.00042059 </v>
   <v>       0.00018477      -0.00057247      -0.00030124 </v>
   <v>      -0.00032402      -0.00043908       0.00001935 </v>
   <v>       0.00068807       0.00042153       0.00027439 </v>
   <v>      -0.00015433      -0.00000662      -0.00003125 </v>
   <v>      -0.00007339      -0.00002134       0.00004027 </v>
   <v>       0.00051160       0.00056651      -0.00052458 </v>
   <v>       0.00009529      -0.00022717       0.00031718 </v>
   <v>      -0.00026810      -0.00018138      -0.00006268 </v>
   <v>       0.00011165       0.00009871       0.00005726 </v>
   <v>      -0.00021791       0.00036973      -0.00029164 </v>
   <v>       0.00016689       0.00003345       0.00044900 </v>
   <v>       0.00010748      -0.00012668       0.00042590 </v>
   <v>       0.00017791      -0.00013489      -0.00028192 </v>
   <v>       0.00017047      -0.00000176      -0.00012024 </v>
  </varray>
  <varray name="stress" >
   <v>      -1.40521171       0.82546588      -0.73239511 </v>
   <v>       0.82546521       1.56515818       3.46576739 </v>
   <v>      -0.73239510       3.46576789      -0.17284889 </v>
  </varray>
  <energy>
   <i name="e_fr_energy">   -272.32774938 </i>
   <i name="e_wo_entrp">   -272.32774938 </i>
   <i name="e_0_energy">   -272.32774938 </i>
  </energy>
  <time name="totalsc">    7.45    7.53</time>
 </calculation>
 <calculation>
  <scstep>
   <time name="dav">    2.39    2.42</time>
   <time name="total">    2.92    2.94</time>
   <energy>
    <i name="alphaZ">    302.41357040 </i>
    <i name="ewald">  -8854.80884211 </i>
    <i name="hartreedc">  -2182.56858449 </i>
    <i name="XCdc">    537.91266586 </i>
    <i name="pawpsdc">   9815.37968370 </i>
    <i name="pawaedc">  -9959.37373460 </i>
    <i name="eentropy">     -0.00000000 </i>
    <i name="bandstr">  -2620.78282254 </i>
    <i name="atom">  12703.13999606 </i>
    <i name="e_fr_energy">   -258.68806772 </i>
    <i name="e_wo_entrp">   -258.68806772 </i>
    <i name="e_0_energy">   -258.68806772 </i>
   </energy>
  </scstep>
  <scstep>
   <time name="diag">    0.36    0.37</time>
   <time name="diis">    0.87    0.88</time>
   <time name="orth">    0.07    0.07</time>
   <time name="total">    1.75    1.77</time>
   <energy>
    <i name="alphaZ">    302.41357040 </i>
    <i name="ewald">  -8854.80884211 </i>
    <i name="hartreedc">  -2182.56898450 </i>
    <i name="XCdc">    537.91264932 </i>
    <i name="pawpsdc">   9815.38009888 </i>
    <i name="pawaedc">  -9959.37410294 </i>
    <i name="eentropy">     -0.00000000 </i>
    <i name="bandstr">  -2620.78245313 </i>
    <i name="atom">  12703.13999606 </i>
    <i name="e_fr_energy">   -258.68806801 </i>
    <i name="e_wo_entrp">   -258.68806801 </i>
    <i name="e_0_energy">   -258.68806801 </i>
   </energy>
  </scstep>
  <structure>
   <crystal>
    <varray name="basis" >
     <v>       9.64643536       0.00000000       0.00000000 </v>
     <v>       0.00000000       9.64643536       0.00000000 </v>
     <v>       0.00000000       0.00000000       9.64643536 </v>
    </varray>
    <i name="volume">    897.63664813 </i>
    <varray name="rec_basis" >
     <v>       0.10366524       0.00000000       0.00000000 </v>
     <v>       0.00000000       0.10366524       0.00000000 </v>
     <v>       0.00000000       0.00000000       0.10366524 </v>
    </varray>
   </crystal>
   <varray name="positions" >
    <v>       0.96496054       0.19879993       0.16262486 </v>
    <v>       0.98563482       0.70501708       0.66831899 </v>
    <v>       0.02392021       0.21850386       0.78155554 </v>
    <v>       0.01857532       0.80869918       0.17483563 </v>
    <v>       0.33835631       0.32708556       0.96068751 </v>
    <v>       0.31380822       0.66866081       0.04248318 </v>
    <v>       0.67429412       0.28505584       0.01391409 </v>
    <v>       0.73048815       0.68504597       0.98657453 </v>
    <v>       0.22277541       0.98930308       0.18798907 </v>
    <v>       0.21470387       0.02437565       0.83965895 </v>
    <v>       0.83516868       0.95578442       0.82875561 </v>
    <v>       0.72729334       0.02009921       0.30431756 </v>
    <v>       0.30701373       0.82751644       0.48120855 </v>
    <v>       0.20346110       0.28712329       0.51671374 </v>
    <v>       0.68803120       0.82852133       0.54886189 </v>
    <v>       0.82259244       0.31394525       0.46144101 </v>
    <v>       0.19811089       0.47801975       0.71690552 </v>
    <v>       0.15592133       0.54466588       0.31892050 </v>
    <v>       0.67833923       0.47839492       0.21347871 </v>
    <v>       0.79360660       0.50731071       0.69823531 </v>
    <v>       0.47247098       0.16026499       0.66698575 </v>
    <v>       0.48448874       0.78827359       0.27209704 </v>
    <v>       0.51582649       0.20184354       0.31758865 </v>
    <v>       0.53190115       0.67306123       0.79589436 </v>
    <v>       0.49442396       0.50269284       0.49928832 </v>
    <v>       0.51839888       0.99139190       0.99179122 </v>
    <v>       0.00587520       0.49628401       0.00768679 </v>
    <v>       0.00327803       0.99988771       0.50088790 </v>
    <v>       0.13326367       0.89795724       0.63531383 </v>
    <v>       0.10960468       0.12480034       0.36492218 </v>
    <v>       0.89051890       0.85605331       0.39254349 </v>
    <v>       0.86884553       0.11567686       0.61804494 </v>
    <v>       0.88958453       0.60200737       0.15171713 </v>
    <v>       0.87581986       0.37402600       0.89059808 </v>
    <v>       0.11529295       0.63350748       0.88763705 </v>
    <v>       0.14266578       0.37743566       0.11745829 </v>
    <v>       0.63300864       0.10371520       0.85382528 </v>
    <v>       0.64929670       0.87894492       0.11674616 </v>
    <v>       0.40069523       0.12955019       0.10503732 </v>
    <v>       0.39004737       0.85883192       0.88718113 </v>
    <v>       0.62928112       0.63048257       0.39535563 </v>
    <v>       0.61263029       0.36547984       0.61171622 </v>
    <v>       0.37106494       0.62562333       0.62147180 </v>
    <v>       0.36965752       0.39581642       0.36457484 </v>
    <v>       0.76133359       0.73610893       0.75681073 </v>
    <v>       0.74243362       0.24983231       0.24403182 </v>
    <v>       0.24776582       0.76161225       0.25443416 </v>
    <v>       0.25774221       0.24706911       0.74708430 </v>
    <v>       0.02131004       0.00846129       0.00351514 </v>
    <v>       0.01146632       0.48302926       0.53438891 </v>
    <v>       0.51065713       0.99230975       0.46710354 </v>
    <v>       0.52338132       0.51017256       0.00279719 </v>
   </varray>
  </structure>
  <varray name="forces" >
   <v>      -0.00010472       0.00006993      -0.00012479 </v>
   <v>      -0.00009223       0.00026791      -0.00055393 </v>
   <v>      -0.00023117       0.00027404      -0.00104589 </v>
   <v>      -0.00000333      -0.00027941      -0.00053568 </v>
   <v>       0.00030154      -0.00009584      -0.00017946 </v>
   <v>      -0.00011957      -0.00033431       0.00022091 </v>
   <v>      -0.00019073      -0.00005537      -0.00006617 </v>
   <v>       0.00012412      -0.00036882       0.00021687 </v>
   <v>      -0.00016024       0.00015538       0.00000327 </v>
   <v>       0.00008077       0.00063445       0.00078090 </v>
   <v>       0.00017048       0.00001676       0.00024655 </v>
   <v>       0.00020306       0.00008406       0.00025559 </v>
   <v>      -0.00013590       0.00017738       0.00016787 </v>
   <v>       0.00047708       0.00040702      -0.00040622 </v>
   <v>       0.00021603       0.00058755       0.00048330 </v>
   <v>      -0.00003707       0.00009526      -0.00018118 </v>
   <v>      -0.00013899       0.00026388       0.00017091 </v>
   <v>      -0.00055525       0.00009768      -0.00015040 </v>
   <v>      -0.00085480      -0.00023568       0.00011125 </v>
   <v>       0.00005611      -0.00003253      -0.00012708 </v>
   <v>      -0.00009150      -0.00017098      -0.00001899 </v>
   <v>      -0.00008921       0.00010677       0.00027347 </v>
   <v>      -0.00019432      -0.00006902       0.00004748 </v>
   <v>      -0.00000267      -0.00013725      -0.00005472 </v>
   <v>      -0.00085302      -0.00078277       0.00043483 </v>
   <v>      -0.00048579       0.00167459       0.00061908 </v>
   <v>      -0.00070936       0.00016316      -0.00056045 </v>
   <v>       0.00054929       0.00093752       0.00002078 </v>
   <v>       0.00019487       0.00010946       0.00039221 </v>
   <v>      -0.00014513      -0.00001593       0.00022950 </v>
   <v>      -0.00022981      -0.00086555      -0.00041288 </v>
   <v>      -0.00052176      -0.00010290      -0.00019494 </v>
   <v>      -0.00019170      -0.00022875       0.00033013 </v>
   <v>       0.00013556       0.00003878      -0.00008617 </v>
   <v>      -0.00019788       0.00033078       0.00002909 </v>
   <v>       0.00083654      -0.00068133       0.00031631 </v>
   <v>      -0.00013977      -0.00022792       0.00021405 </v>
   <v>       0.00106516      -0.00107387       0.00109915 </v>
   <v>       0.00094057      -0.00145126      -0.00099753 </v>
   <v>      -0.00105209      -0.00126504      -0.00071178 </v>
   <v>       0.00118210       0.00106605      -0.00048844 </v>
   <v>      -0.00007739       0.00012450      -0.00004608 </v>
   <v>      -0.00010426       0.00010627       0.00009617 </v>
   <v>       0.00047593       0.00047144      -0.00015348 </v>
   <v>       0.00000462      -0.00014360       0.00019073 </v>
   <v>      -0.00020191      -0.00010534      -0.00001987 </v>
   <v>       0.00010611       0.00012148       0.00000732 </v>
   <v>      -0.00022476       0.00028314      -0.00019775 </v>
   <v>       0.00032680       0.00017628       0.00027124 </v>
   <v>       0.00017260      -0.00020753       0.00067303 </v>
   <v>       0.00023433      -0.00023291      -0.00053595 </v>
   <v>       0.00028265       0.00032237      -0.00005216 </v>
  </varray>
  <varray name="stress" >
   <v>      -1.40312706       0.82626259      -0.72920230 </v>
   <v>       0.82626188       1.56956769       3.46393235 </v>
   <v>      -0.72920256       3.46393278      -0.17179387 </v>
  </varray>
  <energy>
   <i name="e_fr_energy">   -272.32775000 </i>
   <i name="e_wo_entrp">   -272.32775000 </i>
   <i name="e_0_energy">   -272.32775000 </i>
  </energy>
  <time name="totalsc">    7.72    7.80</time>
 </calculation>
 <calculation>
  <scstep>
   <time name="dav">    2.33    2.35</time>
   <time name="total">    2.85    2.88</time>
   <energy>
    <i name="alphaZ">    302.41357040 </i>
    <i name="ewald">  -8854.81720113 </i>
    <i name="hartreedc">  -2182.56271511 </i>
    <i name="XCdc">    537.91246961 </i>
    <i name="pawpsdc">   9815.37896727 </i>
    <i name="pawaedc">  -9959.37295175 </i>
    <i name="eentropy">     -0.00000000 </i>
    <i name="bandstr">  -2620.78020394 </i>
    <i name="atom">  12703.13999606 </i>
    <i name="e_fr_energy">   -258.68806861 </i>
    <i name="e_wo_entrp">   -258.68806861 </i>
    <i name="e_0_energy">   -258.68806861 </i>
   </energy>
  </scstep>
  <scstep>
   <time name="diag">    0.36    0.37</time>
   <time name="diis">    0.85    0.86</time>
   <time name="orth">    0.07    0.07</time>
   <time name="total">    1.73    1.75</time>
   <energy>
    <i name="alphaZ">    302.41357040 </i>
    <i name="ewald">  -8854.81720113 </i>
    <i name="hartreedc">  -2182.56243996 </i>
    <i name="XCdc">    537.91243596 </i>
    <i name="pawpsdc">   9815.36977271 </i>
    <i name="pawaedc">  -9959.36371582 </i>
    <i name="eentropy">     -0.00000000 </i>
    <i name="bandstr">  -2620.78048714 </i>
    <i name="atom">  12703.13999606 </i>
    <i name="e_fr_energy">   -258.68806892 </i>
    <i name="e_wo_entrp">   -258.68806892 </i>
    <i name="e_0_energy">   -258.68806892 </i>
   </energy>
  </scstep>
  <structure>
   <crystal>
    <varray name="basis" >
     <v>       9.64643536       0.00000000       0.00000000 </v>
     <v>       0.00000000       9.64643536       0.00000000 </v>
     <v>       0.00000000       0.00000000       9.64643536 </v>
    </varray>
    <i name="volume">    897.63664813 </i>
    <varray name="rec_basis" >
     <v>       0.10366524       0.00000000       0.00000000 </v>
     <v>       0.00000000       0.10366524       0.00000000 </v>
     <v>       0.00000000       0.00000000       0.10366524 </v>
    </varray>
   </crystal>
   <varray name="positions" >
    <v>       0.96496014       0.19880035       0.16262385 </v>
    <v>       0.98563436       0.70501881       0.66831542 </v>
    <v>       0.02391899       0.21850539       0.78154897 </v>
    <v>       0.01857514       0.80869733       0.17483231 </v>
    <v>       0.33835815       0.32708548       0.96068624 </v>
    <v>       0.31380783       0.66865870       0.04248447 </v>
    <v>       0.67429325       0.28505573       0.01391352 </v>
    <v>       0.73048877       0.68504376       0.98657604 </v>
    <v>       0.22277409       0.98930325       0.18798902 </v>
    <v>       0.21470457       0.02437884       0.83966359 </v>
    <v>       0.83517004       0.95578416       0.82875739 </v>
    <v>       0.72729495       0.02009875       0.30431905 </v>
    <v>       0.30701310       0.82751744       0.48120960 </v>
    <v>       0.20346417       0.28712599       0.51671128 </v>
    <v>       0.68803286       0.82852473       0.54886449 </v>
    <v>       0.82259236       0.31394591       0.46143985 </v>
    <v>       0.19811010       0.47802142       0.71690671 </v>
    <v>       0.15591772       0.54466630       0.31891939 </v>
    <v>       0.67833402       0.47839382       0.21347959 </v>
    <v>       0.79360715       0.50731063       0.69823430 </v>
    <v>       0.47247058       0.16026358       0.66698548 </v>
    <v>       0.48448900       0.78827408       0.27209874 </v>
    <v>       0.51582584       0.20184294       0.31758940 </v>
    <v>       0.53190133       0.67306055       0.79589427 </v>
    <v>       0.49442322       0.50269247       0.49928870 </v>
    <v>       0.51839904       0.99139176       0.99179193 </v>
    <v>       0.00587425       0.49628363       0.00768609 </v>
    <v>       0.00327909       0.99988918       0.50088801 </v>
    <v>       0.13326422       0.89795948       0.63531575 </v>
    <v>       0.10960409       0.12480094       0.36492307 </v>
    <v>       0.89052049       0.85605041       0.39254324 </v>
    <v>       0.86884270       0.11567534       0.61804300 </v>
    <v>       0.88958415       0.60200457       0.15171925 </v>
    <v>       0.87582050       0.37402587       0.89059777 </v>
    <v>       0.11529094       0.63350925       0.88763793 </v>
    <v>       0.14266798       0.37743436       0.11745757 </v>
    <v>       0.63300816       0.10371430       0.85382578 </v>
    <v>       0.64929866       0.87894307       0.11674835 </v>
    <v>       0.40069669       0.12954717       0.10503529 </v>
    <v>       0.39004551       0.85882953       0.88718069 </v>
    <v>       0.62928465       0.63048490       0.39535654 </v>
    <v>       0.61262947       0.36547995       0.61171597 </v>
    <v>       0.37106465       0.62562335       0.62147188 </v>
    <v>       0.36965985       0.39581925       0.36457270 </v>
    <v>       0.76133403       0.73610831       0.75681202 </v>
    <v>       0.74243265       0.24983167       0.24403154 </v>
    <v>       0.24776607       0.76161254       0.25443452 </v>
    <v>       0.25774161       0.24707063       0.74708312 </v>
    <v>       0.02131018       0.00846114       0.00351679 </v>
    <v>       0.01146637       0.48302925       0.53438955 </v>
    <v>       0.51065746       0.99230960       0.46710325 </v>
    <v>       0.52338150       0.51017220       0.00279671 </v>
   </varray>
  </structure>
  <varray name="forces" >
   <v>      -0.00004067       0.00004676      -0.00008215 </v>
   <v>      -0.00006902       0.00022567      -0.00049093 </v>
   <v>      -0.00013836       0.00019287      -0.00084100 </v>
   <v>      -0.00000578      -0.00026126      -0.00042181 </v>
   <v>       0.00020104      -0.00002782      -0.00016311 </v>
   <v>      -0.00003548      -0.00022361       0.00013621 </v>
   <v>      -0.00004965      -0.00003725      -0.00002293 </v>
   <v>       0.00007915      -0.00026047       0.00021037 </v>
   <v>      -0.00011361      -0.00001775       0.00000730 </v>
   <v>       0.00012053       0.00037616       0.00056397 </v>
   <v>       0.00018806      -0.00006610       0.00024915 </v>
   <v>       0.00018187      -0.00007809       0.00015851 </v>
   <v>      -0.00004905       0.00007560       0.00010611 </v>
   <v>       0.00040725       0.00031373      -0.00028159 </v>
   <v>       0.00023531       0.00040375       0.00030646 </v>
   <v>      -0.00000382       0.00004843      -0.00013096 </v>
   <v>      -0.00006280       0.00016628       0.00012957 </v>
   <v>      -0.00045981       0.00006569      -0.00016981 </v>
   <v>      -0.00063771      -0.00011882       0.00013604 </v>
   <v>       0.00005513      -0.00000546      -0.00010146 </v>
[...]
       <r>     8.0538    10.1312   144.3644 </r>
       <r>     8.2466    15.5234   147.3580 </r>
       <r>     8.4394    13.7116   150.0021 </r>
       <r>     8.6322    16.6922   153.2204 </r>
       <r>     8.8251    14.5077   156.0209 </r>
       <r>     9.0179    19.1954   159.7229 </r>
       <r>     9.2107    17.5805   163.1138 </r>
       <r>     9.4035    17.0172   166.3973 </r>
       <r>     9.5963    16.3341   169.5505 </r>
       <r>     9.7891    15.6453   172.5715 </r>
       <r>     9.9819    16.4302   175.7398 </r>
       <r>    10.1747     1.3344   176.0000 </r>
       <r>    10.3675     0.0000   176.0000 </r>
       <r>    10.5603     0.0000   176.0000 </r>
       <r>    10.7531     0.0000   176.0000 </r>
       <r>    10.9459     0.0000   176.0000 </r>
       <r>    11.1387     0.0000   176.0000 </r>
       <r>    11.3315     0.0000   176.0000 </r>
       <r>    11.5243     0.0000   176.0000 </r>
       <r>    11.7171     0.0000   176.0000 </r>
       <r>    11.9099     0.0000   176.0000 </r>
       <r>    12.1027     0.0000   176.0000 </r>
       <r>    12.2955     0.0000   176.0000 </r>
       <r>    12.4883     0.0000   176.0000 </r>
       <r>    12.6811     0.0000   176.0000 </r>
      </set>
      <set comment="spin 2">
       <r>   -45.1601     0.0000     0.0000 </r>
       <r>   -44.9673     0.0000     0.0000 </r>
       <r>   -44.7745     0.0000     0.0000 </r>
       <r>   -44.5817     0.0000     0.0000 </r>
       <r>   -44.3889     0.0000     0.0000 </r>
       <r>   -44.1961     0.0000     0.0000 </r>
       <r>   -44.0033     0.0000     0.0000 </r>
       <r>   -43.8105     0.0000     0.0000 </r>
       <r>   -43.6177     0.0000     0.0000 </r>
       <r>   -43.4249     0.0000     0.0000 </r>
       <r>   -43.2321     0.0000     0.0000 </r>
       <r>   -43.0393     0.0000     0.0000 </r>
       <r>   -42.8465     0.0000     0.0000 </r>
       <r>   -42.6537     0.0000     0.0000 </r>
       <r>   -42.4609    13.6032     2.6228 </r>
       <r>   -42.2681    93.0871    20.5708 </r>
       <r>   -42.0753    17.6987    24.0000 </r>
       <r>   -41.8824     0.0000    24.0000 </r>
       <r>   -41.6896     0.0000    24.0000 </r>
       <r>   -41.4968     0.0000    24.0000 </r>
       <r>   -41.3040     0.0000    24.0000 </r>
       <r>   -41.1112     0.0000    24.0000 </r>
       <r>   -40.9184     0.0000    24.0000 </r>
       <r>   -40.7256     0.0000    24.0000 </r>
       <r>   -40.5328     0.0000    24.0000 </r>
       <r>   -40.3400     0.0000    24.0000 </r>
       <r>   -40.1472     0.0000    24.0000 </r>
       <r>   -39.9544     0.0000    24.0000 </r>
       <r>   -39.7616     0.0000    24.0000 </r>
       <r>   -39.5688     0.0000    24.0000 </r>
       <r>   -39.3760     0.0000    24.0000 </r>
       <r>   -39.1832     0.0000    24.0000 </r>
       <r>   -38.9904     0.0000    24.0000 </r>
       <r>   -38.7976     0.0000    24.0000 </r>
       <r>   -38.6048     0.0000    24.0000 </r>
       <r>   -38.4120     0.0000    24.0000 </r>
       <r>   -38.2192     0.0000    24.0000 </r>
       <r>   -38.0264     0.0000    24.0000 </r>
       <r>   -37.8336     0.0000    24.0000 </r>
       <r>   -37.6408     0.0000    24.0000 </r>
       <r>   -37.4480     0.0000    24.0000 </r>
       <r>   -37.2551     0.0000    24.0000 </r>
       <r>   -37.0623     0.0000    24.0000 </r>
       <r>   -36.8695     0.0000    24.0000 </r>
       <r>   -36.6767     0.0000    24.0000 </r>
       <r>   -36.4839     0.0000    24.0000 </r>
       <r>   -36.2911     0.0000    24.0000 </r>
       <r>   -36.0983     0.0000    24.0000 </r>
       <r>   -35.9055     0.0000    24.0000 </r>
       <r>   -35.7127     0.0000    24.0000 </r>
       <r>   -35.5199     0.0000    24.0000 </r>
       <r>   -35.3271     0.0000    24.0000 </r>
       <r>   -35.1343     0.0000    24.0000 </r>
       <r>   -34.9415     0.0000    24.0000 </r>
       <r>   -34.7487     0.0000    24.0000 </r>
       <r>   -34.5559     0.0000    24.0000 </r>
       <r>   -34.3631     0.0000    24.0000 </r>
       <r>   -34.1703     0.0000    24.0000 </r>
       <r>   -33.9775     0.0000    24.0000 </r>
       <r>   -33.7847     0.0000    24.0000 </r>
       <r>   -33.5919     0.0000    24.0000 </r>
       <r>   -33.3991     0.0000    24.0000 </r>
       <r>   -33.2063     0.0000    24.0000 </r>
       <r>   -33.0135     0.0000    24.0000 </r>
       <r>   -32.8207     0.0000    24.0000 </r>
       <r>   -32.6278     0.0000    24.0000 </r>
       <r>   -32.4350     0.0000    24.0000 </r>
       <r>   -32.2422     0.0000    24.0000 </r>
       <r>   -32.0494     0.0000    24.0000 </r>
       <r>   -31.8566     0.0000    24.0000 </r>
       <r>   -31.6638     0.0000    24.0000 </r>
       <r>   -31.4710     0.0000    24.0000 </r>
       <r>   -31.2782     0.0000    24.0000 </r>
       <r>   -31.0854     0.0000    24.0000 </r>
       <r>   -30.8926     0.0000    24.0000 </r>
       <r>   -30.6998     0.0000    24.0000 </r>
       <r>   -30.5070     0.0000    24.0000 </r>
       <r>   -30.3142     0.0000    24.0000 </r>
       <r>   -30.1214     0.0000    24.0000 </r>
       <r>   -29.9286     0.0000    24.0000 </r>
       <r>   -29.7358     0.0000    24.0000 </r>
       <r>   -29.5430     0.0000    24.0000 </r>
       <r>   -29.3502     0.0000    24.0000 </r>
       <r>   -29.1574     0.0000    24.0000 </r>
       <r>   -28.9646     0.0000    24.0000 </r>
       <r>   -28.7718     0.0000    24.0000 </r>
       <r>   -28.5790     0.0000    24.0000 </r>
       <r>   -28.3862     0.0000    24.0000 </r>
       <r>   -28.1934     0.0000    24.0000 </r>
       <r>   -28.0005     0.0000    24.0000 </r>
       <r>   -27.8077     0.0000    24.0000 </r>
       <r>   -27.6149     0.0000    24.0000 </r>
       <r>   -27.4221     0.0000    24.0000 </r>
       <r>   -27.2293     0.0000    24.0000 </r>
       <r>   -27.0365     0.0000    24.0000 </r>
       <r>   -26.8437     0.0000    24.0000 </r>
       <r>   -26.6509     0.0000    24.0000 </r>
       <r>   -26.4581     0.0000    24.0000 </r>
       <r>   -26.2653     0.0000    24.0000 </r>
       <r>   -26.0725     0.0000    24.0000 </r>
       <r>   -25.8797     0.0000    24.0000 </r>
       <r>   -25.6869     0.0000    24.0000 </r>
       <r>   -25.4941     0.0000    24.0000 </r>
       <r>   -25.3013     0.0000    24.0000 </r>
       <r>   -25.1085     0.0000    24.0000 </r>
       <r>   -24.9157     0.0000    24.0000 </r>
       <r>   -24.7229     0.0000    24.0000 </r>
       <r>   -24.5301     0.0000    24.0000 </r>
       <r>   -24.3373     0.0000    24.0000 </r>
       <r>   -24.1445     0.0000    24.0000 </r>
       <r>   -23.9517     0.0000    24.0000 </r>
       <r>   -23.7589     0.0000    24.0000 </r>
       <r>   -23.5661     0.0000    24.0000 </r>
       <r>   -23.3732     0.0000    24.0000 </r>
       <r>   -23.1804     0.0000    24.0000 </r>
       <r>   -22.9876     0.0000    24.0000 </r>
       <r>   -22.7948     0.0000    24.0000 </r>
       <r>   -22.6020     0.0000    24.0000 </r>
       <r>   -22.4092     0.0000    24.0000 </r>
       <r>   -22.2164     0.0000    24.0000 </r>
       <r>   -22.0236     0.0000    24.0000 </r>
       <r>   -21.8308     0.0000    24.0000 </r>
       <r>   -21.6380     0.0000    24.0000 </r>
       <r>   -21.4452     0.0000    24.0000 </r>
       <r>   -21.2524     0.0000    24.0000 </r>
       <r>   -21.0596     0.0000    24.0000 </r>
       <r>   -20.8668     0.0000    24.0000 </r>
       <r>   -20.6740     0.0000    24.0000 </r>
       <r>   -20.4812     0.0000    24.0000 </r>
       <r>   -20.2884     0.0000    24.0000 </r>
       <r>   -20.0956     0.0000    24.0000 </r>
       <r>   -19.9028     0.0000    24.0000 </r>
       <r>   -19.7100     0.0000    24.0000 </r>
       <r>   -19.5172     0.0000    24.0000 </r>
       <r>   -19.3244     0.0000    24.0000 </r>
       <r>   -19.1316     0.0000    24.0000 </r>
       <r>   -18.9388     0.0000    24.0000 </r>
       <r>   -18.7459     0.0000    24.0000 </r>
       <r>   -18.5531     0.0000    24.0000 </r>
       <r>   -18.3603     0.0000    24.0000 </r>
       <r>   -18.1675     0.0000    24.0000 </r>
       <r>   -17.9747     0.0000    24.0000 </r>
       <r>   -17.7819     0.0000    24.0000 </r>
       <r>   -17.5891     0.0000    24.0000 </r>
       <r>   -17.3963     0.0000    24.0000 </r>
       <r>   -17.2035     0.0000    24.0000 </r>
       <r>   -17.0107     0.0000    24.0000 </r>
       <r>   -16.8179     0.0000    24.0000 </r>
       <r>   -16.6251     0.0000    24.0000 </r>
       <r>   -16.4323     0.0000    24.0000 </r>
       <r>   -16.2395     0.0000    24.0000 </r>
       <r>   -16.0467     0.0000    24.0000 </r>
       <r>   -15.8539     0.0000    24.0000 </r>
       <r>   -15.6611     0.0000    24.0000 </r>
       <r>   -15.4683     0.0000    24.0000 </r>
       <r>   -15.2755     0.0000    24.0000 </r>
       <r>   -15.0827     0.0000    24.0000 </r>
       <r>   -14.8899     0.0000    24.0000 </r>
       <r>   -14.6971     0.0000    24.0000 </r>
       <r>   -14.5043     0.0000    24.0000 </r>
       <r>   -14.3114     0.0000    24.0000 </r>
       <r>   -14.1186     0.0000    24.0000 </r>
       <r>   -13.9258     0.0000    24.0000 </r>
       <r>   -13.7330     0.0000    24.0000 </r>
       <r>   -13.5402     0.0000    24.0000 </r>
       <r>   -13.3474     0.0000    24.0000 </r>
       <r>   -13.1546     0.0000    24.0000 </r>
       <r>   -12.9618     9.7765    25.8850 </r>
       <r>   -12.7690    10.9699    28.0000 </r>
       <r>   -12.5762     9.2550    29.7844 </r>
       <r>   -12.3834    11.4915    32.0000 </r>
       <r>   -12.1906     0.0000    32.0000 </r>
       <r>   -11.9978     0.0000    32.0000 </r>
       <r>   -11.8050     0.0000    32.0000 </r>
       <r>   -11.6122     0.0000    32.0000 </r>
       <r>   -11.4194     0.0000    32.0000 </r>
       <r>   -11.2266     0.0000    32.0000 </r>
       <r>   -11.0338     0.0000    32.0000 </r>
       <r>   -10.8410     0.0000    32.0000 </r>
       <r>   -10.6482     0.0000    32.0000 </r>
       <r>   -10.4554     0.0000    32.0000 </r>
       <r>   -10.2626     0.4869    32.0939 </r>
       <r>   -10.0698    17.9087    35.5467 </r>
       <r>    -9.8770    31.9763    41.7119 </r>
       <r>    -9.6841    11.8420    44.0000 </r>
       <r>    -9.4913     0.0000    44.0000 </r>
       <r>    -9.2985     0.0000    44.0000 </r>
       <r>    -9.1057     0.0000    44.0000 </r>
       <r>    -8.9129     0.0000    44.0000 </r>
       <r>    -8.7201     0.0000    44.0000 </r>
       <r>    -8.5273     0.0000    44.0000 </r>
       <r>    -8.3345     1.3542    44.2611 </r>
       <r>    -8.1417    19.3922    48.0000 </r>
       <r>    -7.9489     0.0000    48.0000 </r>
       <r>    -7.7561     0.0000    48.0000 </r>
       <r>    -7.5633     0.0000    48.0000 </r>
       <r>    -7.3705     0.0000    48.0000 </r>
       <r>    -7.1777     0.0000    48.0000 </r>
       <r>    -6.9849     0.0000    48.0000 </r>
       <r>    -6.7921     0.0000    48.0000 </r>
       <r>    -6.5993     0.0000    48.0000 </r>
       <r>    -6.4065     0.0000    48.0000 </r>
       <r>    -6.2137     0.0000    48.0000 </r>
       <r>    -6.0209     5.1708    48.9970 </r>
       <r>    -5.8281     0.0000    49.0000 </r>
       <r>    -5.6353     5.2642    50.0150 </r>
       <r>    -5.4425    10.2807    52.0000 </r>
       <r>    -5.2497     0.0000    52.0000 </r>
       <r>    -5.0568     0.0000    52.0000 </r>
       <r>    -4.8640     0.0000    52.0000 </r>
       <r>    -4.6712     0.0000    52.0000 </r>
       <r>    -4.4784     0.0000    52.0000 </r>
       <r>    -4.2856     0.0000    52.0000 </r>
       <r>    -4.0928     0.0000    52.0000 </r>
       <r>    -3.9000     0.0000    52.0000 </r>
       <r>    -3.7072     0.0000    52.0000 </r>
       <r>    -3.5144     0.0000    52.0000 </r>
       <r>    -3.3216     0.0000    52.0000 </r>
       <r>    -3.1288    13.4836    54.5997 </r>
       <r>    -2.9360     2.0582    55.0000 </r>
       <r>    -2.7432     5.1829    55.9993 </r>
       <r>    -2.5504    10.3963    58.0074 </r>
       <r>    -2.3576    16.4040    61.1702 </r>
       <r>    -2.1648    14.6728    63.9998 </r>
       <r>    -1.9720     0.0000    64.0000 </r>
       <r>    -1.7792     0.0000    64.0000 </r>
       <r>    -1.5864     0.0033    64.0006 </r>
       <r>    -1.3936    21.2439    68.0965 </r>
       <r>    -1.2008    16.3645    71.2546 </r>
       <r>    -1.0080    21.5933    75.4179 </r>
       <r>    -0.8152     3.0050    76.0000 </r>
       <r>    -0.6224     0.0000    76.0000 </r>
       <r>    -0.4295    14.3624    78.7691 </r>
       <r>    -0.2367    10.2695    80.7554 </r>
       <r>    -0.0439    12.6867    83.2036 </r>
       <r>     0.1489    30.4964    89.0856 </r>
       <r>     0.3417    21.7274    93.2797 </r>
       <r>     0.5345    14.0846    95.9996 </r>
       <r>     0.7273     0.8915    96.1719 </r>
       <r>     0.9201    13.6627    98.8061 </r>
       <r>     1.1129    23.1095   103.2617 </r>
       <r>     1.3057    22.7794   107.6538 </r>
       <r>     1.4985    26.9798   112.8576 </r>
       <r>     1.6913    26.6026   117.9874 </r>
       <r>     1.8841    10.4278   119.9992 </r>
       <r>     2.0769     0.0000   120.0000 </r>
       <r>     2.2697     0.0000   120.0000 </r>
       <r>     2.4625     0.0000   120.0000 </r>
       <r>     2.6553     0.0000   120.0000 </r>
       <r>     2.8481     0.0000   120.0000 </r>
       <r>     3.0409     0.0000   120.0000 </r>
       <r>     3.2337     0.0000   120.0000 </r>
       <r>     3.4265     0.0000   120.0000 </r>
       <r>     3.6193     0.0000   120.0000 </r>
       <r>     3.8121     0.0000   120.0000 </r>
       <r>     4.0049     0.0000   120.0000 </r>
       <r>     4.1978     0.0000   120.0000 </r>
       <r>     4.3906     0.0001   120.0000 </r>
       <r>     4.5834     5.1865   121.0000 </r>
       <r>     4.7762     0.0000   121.0000 </r>
       <r>     4.9690     0.0000   121.0000 </r>
       <r>     5.1618     0.0000   121.0000 </r>
       <r>     5.3546     8.3658   122.6130 </r>
       <r>     5.5474     7.1804   124.0000 </r>
       <r>     5.7402     0.0000   124.0000 </r>
       <r>     5.9330     1.1381   124.2194 </r>
       <r>     6.1258    15.6543   127.2377 </r>
       <r>     6.3186    14.0621   129.9489 </r>
       <r>     6.5114     1.3172   130.2035 </r>
       <r>     6.7042    14.4826   132.9958 </r>
       <r>     6.8970     8.9657   134.7286 </r>
       <r>     7.0898     6.5902   136.0005 </r>
       <r>     7.2826     5.1842   137.0000 </r>
       <r>     7.4754     5.5608   138.0722 </r>
       <r>     7.6682    10.6694   140.1308 </r>
       <r>     7.8610    11.8115   142.4108 </r>
       <r>     8.0538    10.1312   144.3644 </r>
       <r>     8.2466    15.5234   147.3580 </r>
       <r>     8.4394    13.7116   150.0021 </r>
       <r>     8.6322    16.6922   153.2204 </r>
       <r>     8.8251    14.5076   156.0209 </r>
       <r>     9.0179    19.1954   159.7229 </r>
       <r>     9.2107    17.5800   163.1137 </r>
       <r>     9.4035    17.0244   166.3986 </r>
       <r>     9.5963    16.3622   169.5572 </r>
       <r>     9.7891    15.6095   172.5713 </r>
       <r>     9.9819    16.2127   175.6977 </r>
       <r>    10.1747     1.5534   176.0000 </r>
       <r>    10.3675     0.0000   176.0000 </r>
       <r>    10.5603     0.0000   176.0000 </r>
       <r>    10.7531     0.0000   176.0000 </r>
       <r>    10.9459     0.0000   176.0000 </r>
       <r>    11.1387     0.0000   176.0000 </r>
       <r>    11.3315     0.0000   176.0000 </r>
       <r>    11.5243     0.0000   176.0000 </r>
       <r>    11.7171     0.0000   176.0000 </r>
       <r>    11.9099     0.0000   176.0000 </r>
       <r>    12.1027     0.0000   176.0000 </r>
       <r>    12.2955     0.0000   176.0000 </r>
       <r>    12.4883     0.0000   176.0000 </r>
       <r>    12.6811     0.0000   176.0000 </r>
      </set>
     </set>
    </array>
   </total>
  </dos>
 </calculation>
 <structure name="finalpos" >
  <crystal>
   <varray name="basis" >
    <v>       9.64643536       0.00000000       0.00000000 </v>
    <v>       0.00000000       9.64643536       0.00000000 </v>
    <v>       0.00000000       0.00000000       9.64643536 </v>
   </varray>
   <i name="volume">    897.63664813 </i>
   <varray name="rec_basis" >
    <v>       0.10366524       0.00000000       0.00000000 </v>
    <v>       0.00000000       0.10366524       0.00000000 </v>
    <v>       0.00000000       0.00000000       0.10366524 </v>
   </varray>
  </crystal>
  <varray name="positions" >
   <v>       0.96496014       0.19880035       0.16262385 </v>
   <v>       0.98563436       0.70501881       0.66831542 </v>
   <v>       0.02391899       0.21850539       0.78154897 </v>
   <v>       0.01857514       0.80869733       0.17483231 </v>
   <v>       0.33835815       0.32708548       0.96068624 </v>
   <v>       0.31380783       0.66865870       0.04248447 </v>
   <v>       0.67429325       0.28505573       0.01391352 </v>
   <v>       0.73048877       0.68504376       0.98657604 </v>
   <v>       0.22277409       0.98930325       0.18798902 </v>
   <v>       0.21470457       0.02437884       0.83966359 </v>
   <v>       0.83517004       0.95578416       0.82875739 </v>
   <v>       0.72729495       0.02009875       0.30431905 </v>
   <v>       0.30701310       0.82751744       0.48120960 </v>
   <v>       0.20346417       0.28712599       0.51671128 </v>
   <v>       0.68803286       0.82852473       0.54886449 </v>
   <v>       0.82259236       0.31394591       0.46143985 </v>
   <v>       0.19811010       0.47802142       0.71690671 </v>
   <v>       0.15591772       0.54466630       0.31891939 </v>
   <v>       0.67833402       0.47839382       0.21347959 </v>
   <v>       0.79360715       0.50731063       0.69823430 </v>
   <v>       0.47247058       0.16026358       0.66698548 </v>
   <v>       0.48448900       0.78827408       0.27209874 </v>
   <v>       0.51582584       0.20184294       0.31758940 </v>
   <v>       0.53190133       0.67306055       0.79589427 </v>
   <v>       0.49442322       0.50269247       0.49928870 </v>
   <v>       0.51839904       0.99139176       0.99179193 </v>
   <v>       0.00587425       0.49628363       0.00768609 </v>
   <v>       0.00327909       0.99988918       0.50088801 </v>
   <v>       0.13326422       0.89795948       0.63531575 </v>
   <v>       0.10960409       0.12480094       0.36492307 </v>
   <v>       0.89052049       0.85605041       0.39254324 </v>
   <v>       0.86884270       0.11567534       0.61804300 </v>
   <v>       0.88958415       0.60200457       0.15171925 </v>
   <v>       0.87582050       0.37402587       0.89059777 </v>
   <v>       0.11529094       0.63350925       0.88763793 </v>
   <v>       0.14266798       0.37743436       0.11745757 </v>
   <v>       0.63300816       0.10371430       0.85382578 </v>
   <v>       0.64929866       0.87894307       0.11674835 </v>
   <v>       0.40069669       0.12954717       0.10503529 </v>
   <v>       0.39004551       0.85882953       0.88718069 </v>
   <v>       0.62928465       0.63048490       0.39535654 </v>
   <v>       0.61262947       0.36547995       0.61171597 </v>
   <v>       0.37106465       0.62562335       0.62147188 </v>
   <v>       0.36965985       0.39581925       0.36457270 </v>
   <v>       0.76133403       0.73610831       0.75681202 </v>
   <v>       0.74243265       0.24983167       0.24403154 </v>
   <v>       0.24776607       0.76161254       0.25443452 </v>
   <v>       0.25774161       0.24707063       0.74708312 </v>
   <v>       0.02131018       0.00846114       0.00351679 </v>
   <v>       0.01146637       0.48302925       0.53438955 </v>
   <v>       0.51065746       0.99230960       0.46710325 </v>
   <v>       0.52338150       0.51017220       0.00279671 </v>
  </varray>
 </structure>
</modeling>
