unknown system                          
           1
     9.646435    0.000000    0.000000
     0.000000    9.646435    0.000000
     0.000000    0.000000    9.646435
   Li   P    S    Cl
    24     4    20     4
Direct configuration=     1
   0.96496087  0.19879918  0.16262701
   0.98563545  0.70501390  0.66832556
   0.02392208  0.21850139  0.78156734
   0.01857587  0.80870265  0.17484155
   0.33835307  0.32708495  0.96068999
   0.31380839  0.66866461  0.04248100
   0.67429520  0.28505572  0.01391535
   0.73048725  0.68504979  0.98657162
   0.22277823  0.98930392  0.18798928
   0.21470234  0.02437105  0.83965099
   0.83516582  0.95578541  0.82875208
   0.72728997  0.02010145  0.30431504
   0.30701453  0.82751482  0.48120666
   0.20345547  0.28711825  0.51671805
   0.68802775  0.82851562  0.54885781
   0.82259234  0.31394398  0.46144314
   0.19811220  0.47801670  0.71690320
   0.15592800  0.54466538  0.31892273
   0.67834835  0.47839636  0.21347686
   0.79360534  0.50731065  0.69823743
   0.47247143  0.16026800  0.66698646
   0.48448709  0.78827297  0.27209400
   0.51582687  0.20184486  0.31758665
   0.53190057  0.67306220  0.79589417
   0.49441871  0.50268704  0.49929096
   0.51839404  0.99140734  0.99179447
   0.00587193  0.49628669  0.00768403
   0.00327954  0.99989135  0.50088772
   0.13326362  0.89795098  0.63531117
   0.10960528  0.12479826  0.36492139
   0.89051172  0.85605491  0.39254060
   0.86884996  0.11568083  0.61804945
   0.88958404  0.60201438  0.15171322
   0.87581902  0.37402675  0.89059832
   0.11529765  0.63350473  0.88763448
   0.14266614  0.37743376  0.11746346
   0.63300890  0.10371607  0.85382557
   0.64929993  0.87894126  0.11674894
   0.40069896  0.12954697  0.10503495
   0.39004398  0.85882832  0.88717617
   0.62928033  0.63048458  0.39534833
   0.61263227  0.36548062  0.61171663
   0.37106493  0.62562422  0.62147242
   0.36965427  0.39581151  0.36458039
   0.76133222  0.73610963  0.75680828
   0.74243497  0.24983341  0.24403256
   0.24776598  0.76161238  0.25443306
   0.25774216  0.24706673  0.74708632
   0.02131250  0.00846336  0.00351227
   0.01146772  0.48302740  0.53439286
   0.51065819  0.99230816  0.46709969
   0.52338325  0.51017659  0.00279828
Direct configuration=     2
   0.96496076  0.19879943  0.16262628
   0.98563523  0.70501498  0.66832333
   0.02392145  0.21850223  0.78156333
   0.01857568  0.80870148  0.17483954
   0.33835417  0.32708516  0.96068915
   0.31380833  0.66866332  0.04248174
   0.67429483  0.28505576  0.01391492
   0.73048755  0.68504849  0.98657261
   0.22277727  0.98930363  0.18798921
   0.21470286  0.02437261  0.83965369
   0.83516679  0.95578507  0.82875328
   0.72729112  0.02010069  0.30431590
   0.30701426  0.82751537  0.48120730
   0.20345738  0.28711996  0.51671658
   0.68802892  0.82851756  0.54885919
   0.82259237  0.31394441  0.46144241
   0.19811176  0.47801773  0.71690399
   0.15592574  0.54466555  0.31892197
   0.67834525  0.47839587  0.21347748
   0.79360577  0.50731067  0.69823671
   0.47247127  0.16026698  0.66698622
   0.48448765  0.78827318  0.27209503
   0.51582674  0.20184441  0.31758733
   0.53190077  0.67306187  0.79589423
   0.49442049  0.50268901  0.49929006
   0.51839568  0.99140210  0.99179337
   0.00587304  0.49628578  0.00768496
   0.00327903  0.99989011  0.50088778
   0.13326364  0.89795310  0.63531207
   0.10960507  0.12479897  0.36492166
   0.89051415  0.85605436  0.39254158
   0.86884845  0.11567948  0.61804792
   0.88958421  0.60201200  0.15171455
   0.87581931  0.37402650  0.89059824
   0.11529605  0.63350566  0.88763535
   0.14266602  0.37743441  0.11746170
   0.63300881  0.10371578  0.85382547
   0.64929883  0.87894250  0.11674800
   0.40069769  0.12954807  0.10503576
   0.39004513  0.85882954  0.88717785
   0.62928060  0.63048390  0.39535081
   0.61263160  0.36548035  0.61171649
   0.37106493  0.62562392  0.62147221
   0.36965537  0.39581318  0.36457851
   0.76133269  0.73610939  0.75680912
   0.74243451  0.24983304  0.24403231
   0.24776592  0.76161233  0.25443343
   0.25774218  0.24706754  0.74708563
   0.02131166  0.00846266  0.00351325
   0.01146725  0.48302803  0.53439152
   0.51065783  0.99230870  0.46710100
   0.52338259  0.51017522  0.00279791
Direct configuration=     3
   0.96496068  0.19879960  0.16262580
   0.98563509  0.70501568  0.66832189
   0.02392103  0.21850278  0.78156074
   0.01857556  0.80870071  0.17483824
   0.33835488  0.32708529  0.96068860
   0.31380829  0.66866249  0.04248222
   0.67429460  0.28505579  0.01391464
   0.73048775  0.68504765  0.98657325
   0.22277665  0.98930345  0.18798916
   0.21470319  0.02437363  0.83965545
   0.83516742  0.95578486  0.82875405
   0.72729186  0.02010020  0.30431645
   0.30701408  0.82751573  0.48120771
   0.20345862  0.28712107  0.51671564
   0.68802968  0.82851881  0.54886009
   0.82259239  0.31394469  0.46144195
   0.19811147  0.47801840  0.71690450
   0.15592427  0.54466566  0.31892148
   0.67834325  0.47839555  0.21347789
   0.79360604  0.50731068  0.69823625
   0.47247117  0.16026631  0.66698606
   0.48448801  0.78827332  0.27209570
   0.51582666  0.20184412  0.31758777
   0.53190090  0.67306166  0.79589427
   0.49442165  0.50269029  0.49928948
   0.51839675  0.99139870  0.99179265
   0.00587376  0.49628519  0.00768557
   0.00327870  0.99988931  0.50088782
   0.13326365  0.89795448  0.63531266
   0.10960494  0.12479942  0.36492183
   0.89051574  0.85605401  0.39254222
   0.86884748  0.11567861  0.61804693
   0.88958431  0.60201046  0.15171541
   0.87581949  0.37402633  0.89059819
   0.11529502  0.63350627  0.88763592
   0.14266594  0.37743483  0.11746057
   0.63300875  0.10371558  0.85382541
   0.64929812  0.87894331  0.11674739
   0.40069687  0.12954878  0.10503628
   0.39004588  0.85883033  0.88717894
   0.62928077  0.63048345  0.39535242
   0.61263116  0.36548018  0.61171640
   0.37106494  0.62562373  0.62147208
   0.36965609  0.39581426  0.36457729
   0.76133299  0.73610924  0.75680965
   0.74243422  0.24983280  0.24403215
   0.24776589  0.76161231  0.25443368
   0.25774219  0.24706806  0.74708519
   0.02131112  0.00846220  0.00351388
   0.01146694  0.48302844  0.53439065
   0.51065760  0.99230905  0.46710185
   0.52338217  0.51017433  0.00279767
Direct configuration=     4
   0.96496054  0.19879993  0.16262486
   0.98563482  0.70501708  0.66831899
   0.02392021  0.21850386  0.78155554
   0.01857532  0.80869918  0.17483563
   0.33835631  0.32708556  0.96068751
   0.31380822  0.66866081  0.04248318
   0.67429412  0.28505584  0.01391409
   0.73048815  0.68504597  0.98657453
   0.22277541  0.98930308  0.18798907
   0.21470387  0.02437565  0.83965895
   0.83516868  0.95578442  0.82875561
   0.72729334  0.02009921  0.30431756
   0.30701373  0.82751644  0.48120855
   0.20346110  0.28712329  0.51671374
   0.68803120  0.82852133  0.54886189
   0.82259244  0.31394525  0.46144101
   0.19811089  0.47801975  0.71690552
   0.15592133  0.54466588  0.31892050
   0.67833923  0.47839492  0.21347871
   0.79360660  0.50731071  0.69823531
   0.47247098  0.16026499  0.66698575
   0.48448874  0.78827359  0.27209704
   0.51582649  0.20184354  0.31758865
   0.53190115  0.67306123  0.79589436
   0.49442396  0.50269284  0.49928832
   0.51839888  0.99139190  0.99179122
   0.00587520  0.49628401  0.00768679
   0.00327803  0.99988771  0.50088790
   0.13326367  0.89795724  0.63531383
   0.10960468  0.12480034  0.36492218
   0.89051890  0.85605331  0.39254349
   0.86884553  0.11567686  0.61804494
   0.88958453  0.60200737  0.15171713
   0.87581986  0.37402600  0.89059808
   0.11529295  0.63350748  0.88763705
   0.14266578  0.37743566  0.11745829
   0.63300864  0.10371520  0.85382528
   0.64929670  0.87894492  0.11674616
   0.40069523  0.12955019  0.10503732
   0.39004737  0.85883192  0.88718113
   0.62928112  0.63048257  0.39535563
   0.61263029  0.36547984  0.61171622
   0.37106494  0.62562333  0.62147180
   0.36965752  0.39581642  0.36457484
   0.76133359  0.73610893  0.75681073
   0.74243362  0.24983231  0.24403182
   0.24776582  0.76161225  0.25443416
   0.25774221  0.24706911  0.74708430
   0.02131004  0.00846129  0.00351514
   0.01146632  0.48302926  0.53438891
   0.51065713  0.99230975  0.46710354
   0.52338132  0.51017256  0.00279719
Direct configuration=     5
   0.96496014  0.19880035  0.16262385
   0.98563436  0.70501881  0.66831542
   0.02391899  0.21850539  0.78154897
   0.01857514  0.80869733  0.17483231
   0.33835815  0.32708548  0.96068624
   0.31380783  0.66865870  0.04248447
   0.67429325  0.28505573  0.01391352
   0.73048877  0.68504376  0.98657604
   0.22277409  0.98930325  0.18798902
   0.21470457  0.02437884  0.83966359
   0.83517004  0.95578416  0.82875739
   0.72729495  0.02009875  0.30431905
   0.30701310  0.82751744  0.48120960
   0.20346417  0.28712599  0.51671128
   0.68803286  0.82852473  0.54886449
   0.82259236  0.31394591  0.46143985
   0.19811010  0.47802142  0.71690671
   0.15591772  0.54466630  0.31891939
   0.67833402  0.47839382  0.21347959
   0.79360715  0.50731063  0.69823430
   0.47247058  0.16026358  0.66698548
   0.48448900  0.78827408  0.27209874
   0.51582584  0.20184294  0.31758940
   0.53190133  0.67306055  0.79589427
   0.49442322  0.50269247  0.49928870
   0.51839904  0.99139176  0.99179193
   0.00587425  0.49628363  0.00768609
   0.00327909  0.99988918  0.50088801
   0.13326422  0.89795948  0.63531575
   0.10960409  0.12480094  0.36492307
   0.89052049  0.85605041  0.39254324
   0.86884270  0.11567534  0.61804300
   0.88958415  0.60200457  0.15171925
   0.87582050  0.37402587  0.89059777
   0.11529094  0.63350925  0.88763793
   0.14266798  0.37743436  0.11745757
   0.63300816  0.10371430  0.85382578
   0.64929866  0.87894307  0.11674835
   0.40069669  0.12954717  0.10503529
   0.39004551  0.85882953  0.88718069
   0.62928465  0.63048490  0.39535654
   0.61262947  0.36547995  0.61171597
   0.37106465  0.62562335  0.62147188
   0.36965985  0.39581925  0.36457270
   0.76133403  0.73610831  0.75681202
   0.74243265  0.24983167  0.24403154
   0.24776607  0.76161254  0.25443452
   0.25774161  0.24707063  0.74708312
   0.02131018  0.00846114  0.00351679
   0.01146637  0.48302925  0.53438955
   0.51065746  0.99230960  0.46710325
   0.52338150  0.51017220  0.00279671
