  52  52   0   4
  0.1728572E+02  0.9650806E-09  0.9650806E-09  0.9650806E-09  0.2000000E-15
  1.000000000000000E-004
  CAR 
 unknown system                          
     12.63306385    -45.22844173  301      2.07333908      1.00000000
    -45.228  0.0000E+00  0.0000E+00  0.0000E+00  0.0000E+00
    -45.036  0.0000E+00  0.0000E+00  0.0000E+00  0.0000E+00
    -44.843  0.0000E+00  0.0000E+00  0.0000E+00  0.0000E+00
    -44.650  0.0000E+00  0.0000E+00  0.0000E+00  0.0000E+00
    -44.457  0.0000E+00  0.0000E+00  0.0000E+00  0.0000E+00
    -44.264  0.0000E+00  0.0000E+00  0.0000E+00  0.0000E+00
    -44.071  0.0000E+00  0.0000E+00  0.0000E+00  0.0000E+00
    -43.878  0.0000E+00  0.0000E+00  0.0000E+00  0.0000E+00
    -43.685  0.0000E+00  0.0000E+00  0.0000E+00  0.0000E+00
    -43.493  0.0000E+00  0.0000E+00  0.0000E+00  0.0000E+00
    -43.300  0.0000E+00  0.0000E+00  0.0000E+00  0.0000E+00
    -43.107  0.0000E+00  0.0000E+00  0.0000E+00  0.0000E+00
    -42.914  0.0000E+00  0.0000E+00  0.0000E+00  0.0000E+00
    -42.721  0.1870E-10  0.1870E-10  0.3607E-11  0.3607E-11
    -42.528  0.5395E-02  0.5395E-02  0.1040E-02  0.1040E-02
    -42.335  0.5864E-01  0.5864E-01  0.1235E-01  0.1235E-01
    -42.142  0.6036E-01  0.6036E-01  0.2400E-01  0.2400E-01
    -41.950  0.0000E+00  0.0000E+00  0.2400E-01  0.2400E-01
    -41.757  0.0000E+00  0.0000E+00  0.2400E-01  0.2400E-01
    -41.564  0.0000E+00  0.0000E+00  0.2400E-01  0.2400E-01
    -41.371  0.0000E+00  0.0000E+00  0.2400E-01  0.2400E-01
    -41.178  0.0000E+00  0.0000E+00  0.2400E-01  0.2400E-01
    -40.985  0.0000E+00  0.0000E+00  0.2400E-01  0.2400E-01
    -40.792  0.0000E+00  0.0000E+00  0.2400E-01  0.2400E-01
    -40.600  0.0000E+00  0.0000E+00  0.2400E-01  0.2400E-01
    -40.407  0.0000E+00  0.0000E+00  0.2400E-01  0.2400E-01
    -40.214  0.0000E+00  0.0000E+00  0.2400E-01  0.2400E-01
    -40.021  0.0000E+00  0.0000E+00  0.2400E-01  0.2400E-01
    -39.828  0.0000E+00  0.0000E+00  0.2400E-01  0.2400E-01
    -39.635  0.0000E+00  0.0000E+00  0.2400E-01  0.2400E-01
    -39.442  0.0000E+00  0.0000E+00  0.2400E-01  0.2400E-01
    -39.249  0.0000E+00  0.0000E+00  0.2400E-01  0.2400E-01
    -39.057  0.0000E+00  0.0000E+00  0.2400E-01  0.2400E-01
    -38.864  0.0000E+00  0.0000E+00  0.2400E-01  0.2400E-01
    -38.671  0.0000E+00  0.0000E+00  0.2400E-01  0.2400E-01
    -38.478  0.0000E+00  0.0000E+00  0.2400E-01  0.2400E-01
    -38.285  0.0000E+00  0.0000E+00  0.2400E-01  0.2400E-01
    -38.092  0.0000E+00  0.0000E+00  0.2400E-01  0.2400E-01
    -37.899  0.0000E+00  0.0000E+00  0.2400E-01  0.2400E-01
    -37.706  0.0000E+00  0.0000E+00  0.2400E-01  0.2400E-01
    -37.514  0.0000E+00  0.0000E+00  0.2400E-01  0.2400E-01
    -37.321  0.0000E+00  0.0000E+00  0.2400E-01  0.2400E-01
    -37.128  0.0000E+00  0.0000E+00  0.2400E-01  0.2400E-01
    -36.935  0.0000E+00  0.0000E+00  0.2400E-01  0.2400E-01
    -36.742  0.0000E+00  0.0000E+00  0.2400E-01  0.2400E-01
    -36.549  0.0000E+00  0.0000E+00  0.2400E-01  0.2400E-01
    -36.356  0.0000E+00  0.0000E+00  0.2400E-01  0.2400E-01
    -36.163  0.0000E+00  0.0000E+00  0.2400E-01  0.2400E-01
    -35.971  0.0000E+00  0.0000E+00  0.2400E-01  0.2400E-01
    -35.778  0.0000E+00  0.0000E+00  0.2400E-01  0.2400E-01
    -35.585  0.0000E+00  0.0000E+00  0.2400E-01  0.2400E-01
    -35.392  0.0000E+00  0.0000E+00  0.2400E-01  0.2400E-01
    -35.199  0.0000E+00  0.0000E+00  0.2400E-01  0.2400E-01
    -35.006  0.0000E+00  0.0000E+00  0.2400E-01  0.2400E-01
    -34.813  0.0000E+00  0.0000E+00  0.2400E-01  0.2400E-01
    -34.620  0.0000E+00  0.0000E+00  0.2400E-01  0.2400E-01
    -34.428  0.0000E+00  0.0000E+00  0.2400E-01  0.2400E-01
    -34.235  0.0000E+00  0.0000E+00  0.2400E-01  0.2400E-01
    -34.042  0.0000E+00  0.0000E+00  0.2400E-01  0.2400E-01
    -33.849  0.0000E+00  0.0000E+00  0.2400E-01  0.2400E-01
    -33.656  0.0000E+00  0.0000E+00  0.2400E-01  0.2400E-01
    -33.463  0.0000E+00  0.0000E+00  0.2400E-01  0.2400E-01
    -33.270  0.0000E+00  0.0000E+00  0.2400E-01  0.2400E-01
    -33.078  0.0000E+00  0.0000E+00  0.2400E-01  0.2400E-01
    -32.885  0.0000E+00  0.0000E+00  0.2400E-01  0.2400E-01
    -32.692  0.0000E+00  0.0000E+00  0.2400E-01  0.2400E-01
    -32.499  0.0000E+00  0.0000E+00  0.2400E-01  0.2400E-01
    -32.306  0.0000E+00  0.0000E+00  0.2400E-01  0.2400E-01
    -32.113  0.0000E+00  0.0000E+00  0.2400E-01  0.2400E-01
    -31.920  0.0000E+00  0.0000E+00  0.2400E-01  0.2400E-01
    -31.727  0.0000E+00  0.0000E+00  0.2400E-01  0.2400E-01
    -31.535  0.0000E+00  0.0000E+00  0.2400E-01  0.2400E-01
    -31.342  0.0000E+00  0.0000E+00  0.2400E-01  0.2400E-01
    -31.149  0.0000E+00  0.0000E+00  0.2400E-01  0.2400E-01
    -30.956  0.0000E+00  0.0000E+00  0.2400E-01  0.2400E-01
    -30.763  0.0000E+00  0.0000E+00  0.2400E-01  0.2400E-01
    -30.570  0.0000E+00  0.0000E+00  0.2400E-01  0.2400E-01
    -30.377  0.0000E+00  0.0000E+00  0.2400E-01  0.2400E-01
    -30.184  0.0000E+00  0.0000E+00  0.2400E-01  0.2400E-01
    -29.992  0.0000E+00  0.0000E+00  0.2400E-01  0.2400E-01
    -29.799  0.0000E+00  0.0000E+00  0.2400E-01  0.2400E-01
    -29.606  0.0000E+00  0.0000E+00  0.2400E-01  0.2400E-01
    -29.413  0.0000E+00  0.0000E+00  0.2400E-01  0.2400E-01
    -29.220  0.0000E+00  0.0000E+00  0.2400E-01  0.2400E-01
    -29.027  0.0000E+00  0.0000E+00  0.2400E-01  0.2400E-01
    -28.834  0.0000E+00  0.0000E+00  0.2400E-01  0.2400E-01
    -28.641  0.0000E+00  0.0000E+00  0.2400E-01  0.2400E-01
    -28.449  0.0000E+00  0.0000E+00  0.2400E-01  0.2400E-01
    -28.256  0.0000E+00  0.0000E+00  0.2400E-01  0.2400E-01
    -28.063  0.0000E+00  0.0000E+00  0.2400E-01  0.2400E-01
    -27.870  0.0000E+00  0.0000E+00  0.2400E-01  0.2400E-01
    -27.677  0.0000E+00  0.0000E+00  0.2400E-01  0.2400E-01
    -27.484  0.0000E+00  0.0000E+00  0.2400E-01  0.2400E-01
    -27.291  0.0000E+00  0.0000E+00  0.2400E-01  0.2400E-01
    -27.099  0.0000E+00  0.0000E+00  0.2400E-01  0.2400E-01
    -26.906  0.0000E+00  0.0000E+00  0.2400E-01  0.2400E-01
    -26.713  0.0000E+00  0.0000E+00  0.2400E-01  0.2400E-01
    -26.520  0.0000E+00  0.0000E+00  0.2400E-01  0.2400E-01
    -26.327  0.0000E+00  0.0000E+00  0.2400E-01  0.2400E-01
    -26.134  0.0000E+00  0.0000E+00  0.2400E-01  0.2400E-01
    -25.941  0.0000E+00  0.0000E+00  0.2400E-01  0.2400E-01
    -25.748  0.0000E+00  0.0000E+00  0.2400E-01  0.2400E-01
    -25.556  0.0000E+00  0.0000E+00  0.2400E-01  0.2400E-01
    -25.363  0.0000E+00  0.0000E+00  0.2400E-01  0.2400E-01
    -25.170  0.0000E+00  0.0000E+00  0.2400E-01  0.2400E-01
    -24.977  0.0000E+00  0.0000E+00  0.2400E-01  0.2400E-01
    -24.784  0.0000E+00  0.0000E+00  0.2400E-01  0.2400E-01
    -24.591  0.0000E+00  0.0000E+00  0.2400E-01  0.2400E-01
    -24.398  0.0000E+00  0.0000E+00  0.2400E-01  0.2400E-01
    -24.205  0.0000E+00  0.0000E+00  0.2400E-01  0.2400E-01
    -24.013  0.0000E+00  0.0000E+00  0.2400E-01  0.2400E-01
    -23.820  0.0000E+00  0.0000E+00  0.2400E-01  0.2400E-01
    -23.627  0.0000E+00  0.0000E+00  0.2400E-01  0.2400E-01
    -23.434  0.0000E+00  0.0000E+00  0.2400E-01  0.2400E-01
    -23.241  0.0000E+00  0.0000E+00  0.2400E-01  0.2400E-01
    -23.048  0.0000E+00  0.0000E+00  0.2400E-01  0.2400E-01
    -22.855  0.0000E+00  0.0000E+00  0.2400E-01  0.2400E-01
    -22.662  0.0000E+00  0.0000E+00  0.2400E-01  0.2400E-01
    -22.470  0.0000E+00  0.0000E+00  0.2400E-01  0.2400E-01
    -22.277  0.0000E+00  0.0000E+00  0.2400E-01  0.2400E-01
    -22.084  0.0000E+00  0.0000E+00  0.2400E-01  0.2400E-01
    -21.891  0.0000E+00  0.0000E+00  0.2400E-01  0.2400E-01
    -21.698  0.0000E+00  0.0000E+00  0.2400E-01  0.2400E-01
    -21.505  0.0000E+00  0.0000E+00  0.2400E-01  0.2400E-01
    -21.312  0.0000E+00  0.0000E+00  0.2400E-01  0.2400E-01
    -21.119  0.0000E+00  0.0000E+00  0.2400E-01  0.2400E-01
    -20.927  0.0000E+00  0.0000E+00  0.2400E-01  0.2400E-01
    -20.734  0.0000E+00  0.0000E+00  0.2400E-01  0.2400E-01
    -20.541  0.0000E+00  0.0000E+00  0.2400E-01  0.2400E-01
    -20.348  0.0000E+00  0.0000E+00  0.2400E-01  0.2400E-01
    -20.155  0.0000E+00  0.0000E+00  0.2400E-01  0.2400E-01
    -19.962  0.0000E+00  0.0000E+00  0.2400E-01  0.2400E-01
    -19.769  0.0000E+00  0.0000E+00  0.2400E-01  0.2400E-01
    -19.577  0.0000E+00  0.0000E+00  0.2400E-01  0.2400E-01
    -19.384  0.0000E+00  0.0000E+00  0.2400E-01  0.2400E-01
    -19.191  0.0000E+00  0.0000E+00  0.2400E-01  0.2400E-01
    -18.998  0.0000E+00  0.0000E+00  0.2400E-01  0.2400E-01
    -18.805  0.0000E+00  0.0000E+00  0.2400E-01  0.2400E-01
    -18.612  0.0000E+00  0.0000E+00  0.2400E-01  0.2400E-01
    -18.419  0.0000E+00  0.0000E+00  0.2400E-01  0.2400E-01
    -18.226  0.0000E+00  0.0000E+00  0.2400E-01  0.2400E-01
    -18.034  0.0000E+00  0.0000E+00  0.2400E-01  0.2400E-01
    -17.841  0.0000E+00  0.0000E+00  0.2400E-01  0.2400E-01
    -17.648  0.0000E+00  0.0000E+00  0.2400E-01  0.2400E-01
    -17.455  0.0000E+00  0.0000E+00  0.2400E-01  0.2400E-01
    -17.262  0.0000E+00  0.0000E+00  0.2400E-01  0.2400E-01
    -17.069  0.0000E+00  0.0000E+00  0.2400E-01  0.2400E-01
    -16.876  0.0000E+00  0.0000E+00  0.2400E-01  0.2400E-01
    -16.683  0.0000E+00  0.0000E+00  0.2400E-01  0.2400E-01
    -16.491  0.0000E+00  0.0000E+00  0.2400E-01  0.2400E-01
    -16.298  0.0000E+00  0.0000E+00  0.2400E-01  0.2400E-01
    -16.105  0.0000E+00  0.0000E+00  0.2400E-01  0.2400E-01
    -15.912  0.0000E+00  0.0000E+00  0.2400E-01  0.2400E-01
    -15.719  0.0000E+00  0.0000E+00  0.2400E-01  0.2400E-01
    -15.526  0.0000E+00  0.0000E+00  0.2400E-01  0.2400E-01
    -15.333  0.0000E+00  0.0000E+00  0.2400E-01  0.2400E-01
    -15.140  0.0000E+00  0.0000E+00  0.2400E-01  0.2400E-01
    -14.948  0.0000E+00  0.0000E+00  0.2400E-01  0.2400E-01
    -14.755  0.0000E+00  0.0000E+00  0.2400E-01  0.2400E-01
    -14.562  0.0000E+00  0.0000E+00  0.2400E-01  0.2400E-01
    -14.369  0.0000E+00  0.0000E+00  0.2400E-01  0.2400E-01
    -14.176  0.0000E+00  0.0000E+00  0.2400E-01  0.2400E-01
    -13.983  0.0000E+00  0.0000E+00  0.2400E-01  0.2400E-01
    -13.790  0.0000E+00  0.0000E+00  0.2400E-01  0.2400E-01
    -13.597  0.0000E+00  0.0000E+00  0.2400E-01  0.2400E-01
    -13.405  0.0000E+00  0.0000E+00  0.2400E-01  0.2400E-01
    -13.212  0.0000E+00  0.0000E+00  0.2400E-01  0.2400E-01
    -13.019  0.1081E-02  0.1081E-02  0.2421E-01  0.2421E-01
    -12.826  0.1966E-01  0.1966E-01  0.2800E-01  0.2800E-01
    -12.633  0.4299E-02  0.4299E-02  0.2883E-01  0.2883E-01
    -12.440  0.1295E-01  0.1295E-01  0.3133E-01  0.3133E-01
    -12.247  0.3491E-02  0.3491E-02  0.3200E-01  0.3200E-01
    -12.055  0.0000E+00  0.0000E+00  0.3200E-01  0.3200E-01
    -11.862  0.0000E+00  0.0000E+00  0.3200E-01  0.3200E-01
    -11.669  0.0000E+00  0.0000E+00  0.3200E-01  0.3200E-01
    -11.476  0.0000E+00  0.0000E+00  0.3200E-01  0.3200E-01
    -11.283  0.0000E+00  0.0000E+00  0.3200E-01  0.3200E-01
    -11.090  0.0000E+00  0.0000E+00  0.3200E-01  0.3200E-01
    -10.897  0.0000E+00  0.0000E+00  0.3200E-01  0.3200E-01
    -10.704  0.0000E+00  0.0000E+00  0.3200E-01  0.3200E-01
    -10.512  0.0000E+00  0.0000E+00  0.3200E-01  0.3200E-01
    -10.319  0.3606E-06  0.3605E-06  0.3200E-01  0.3200E-01
    -10.126  0.1566E-01  0.1566E-01  0.3502E-01  0.3502E-01
     -9.933  0.2599E-01  0.2599E-01  0.4003E-01  0.4003E-01
     -9.740  0.2056E-01  0.2056E-01  0.4400E-01  0.4400E-01
     -9.547  0.0000E+00  0.0000E+00  0.4400E-01  0.4400E-01
     -9.354  0.0000E+00  0.0000E+00  0.4400E-01  0.4400E-01
     -9.161  0.0000E+00  0.0000E+00  0.4400E-01  0.4400E-01
     -8.969  0.0000E+00  0.0000E+00  0.4400E-01  0.4400E-01
     -8.776  0.0000E+00  0.0000E+00  0.4400E-01  0.4400E-01
     -8.583  0.0000E+00  0.0000E+00  0.4400E-01  0.4400E-01
     -8.390  0.3744E-03  0.3744E-03  0.4407E-01  0.4407E-01
     -8.197  0.1987E-01  0.1987E-01  0.4790E-01  0.4790E-01
     -8.004  0.4616E-03  0.4616E-03  0.4800E-01  0.4800E-01
     -7.811  0.0000E+00  0.0000E+00  0.4800E-01  0.4800E-01
     -7.618  0.0000E+00  0.0000E+00  0.4800E-01  0.4800E-01
     -7.426  0.0000E+00  0.0000E+00  0.4800E-01  0.4800E-01
     -7.233  0.0000E+00  0.0000E+00  0.4800E-01  0.4800E-01
     -7.040  0.0000E+00  0.0000E+00  0.4800E-01  0.4800E-01
     -6.847  0.0000E+00  0.0000E+00  0.4800E-01  0.4800E-01
     -6.654  0.0000E+00  0.0000E+00  0.4800E-01  0.4800E-01
     -6.461  0.0000E+00  0.0000E+00  0.4800E-01  0.4800E-01
     -6.268  0.1439E-18  0.1439E-18  0.4800E-01  0.4800E-01
     -6.075  0.3999E-02  0.3999E-02  0.4877E-01  0.4877E-01
     -5.883  0.1186E-02  0.1186E-02  0.4900E-01  0.4900E-01
     -5.690  0.1719E-02  0.1719E-02  0.4933E-01  0.4933E-01
     -5.497  0.1383E-01  0.1383E-01  0.5200E-01  0.5200E-01
     -5.304  0.0000E+00  0.0000E+00  0.5200E-01  0.5200E-01
     -5.111  0.0000E+00  0.0000E+00  0.5200E-01  0.5200E-01
     -4.918  0.0000E+00  0.0000E+00  0.5200E-01  0.5200E-01
     -4.725  0.0000E+00  0.0000E+00  0.5200E-01  0.5200E-01
     -4.533  0.0000E+00  0.0000E+00  0.5200E-01  0.5200E-01
     -4.340  0.0000E+00  0.0000E+00  0.5200E-01  0.5200E-01
     -4.147  0.0000E+00  0.0000E+00  0.5200E-01  0.5200E-01
     -3.954  0.0000E+00  0.0000E+00  0.5200E-01  0.5200E-01
     -3.761  0.0000E+00  0.0000E+00  0.5200E-01  0.5200E-01
     -3.568  0.0000E+00  0.0000E+00  0.5200E-01  0.5200E-01
     -3.375  0.0000E+00  0.0000E+00  0.5200E-01  0.5200E-01
     -3.182  0.5151E-02  0.5151E-02  0.5299E-01  0.5299E-01
     -2.990  0.1040E-01  0.1040E-01  0.5500E-01  0.5500E-01
     -2.797  0.4175E-02  0.4175E-02  0.5581E-01  0.5581E-01
     -2.604  0.1120E-01  0.1120E-01  0.5797E-01  0.5797E-01
     -2.411  0.1147E-01  0.1147E-01  0.6018E-01  0.6018E-01
     -2.218  0.1891E-01  0.1891E-01  0.6383E-01  0.6383E-01
     -2.025  0.8829E-03  0.8829E-03  0.6400E-01  0.6400E-01
     -1.832  0.0000E+00  0.0000E+00  0.6400E-01  0.6400E-01
     -1.639  0.1307E-10  0.1307E-10  0.6400E-01  0.6400E-01
     -1.447  0.1204E-01  0.1204E-01  0.6632E-01  0.6632E-01
     -1.254  0.2760E-01  0.2760E-01  0.7165E-01  0.7165E-01
     -1.061  0.1038E-01  0.1038E-01  0.7365E-01  0.7365E-01
     -0.868  0.1216E-01  0.1216E-01  0.7600E-01  0.7600E-01
     -0.675  0.2368E-12  0.2368E-12  0.7600E-01  0.7600E-01
     -0.482  0.9520E-02  0.9520E-02  0.7784E-01  0.7784E-01
     -0.289  0.1050E-01  0.1050E-01  0.7986E-01  0.7986E-01
     -0.096  0.1159E-01  0.1159E-01  0.8210E-01  0.8210E-01
      0.096  0.2973E-01  0.2973E-01  0.8783E-01  0.8783E-01
      0.289  0.2432E-01  0.2432E-01  0.9253E-01  0.9253E-01
      0.482  0.1763E-01  0.1763E-01  0.9593E-01  0.9593E-01
      0.675  0.4115E-03  0.4115E-03  0.9601E-01  0.9601E-01
      0.868  0.1037E-01  0.1037E-01  0.9801E-01  0.9801E-01
      1.061  0.2234E-01  0.2234E-01  0.1023E+00  0.1023E+00
      1.254  0.2164E-01  0.2164E-01  0.1065E+00  0.1065E+00
      1.447  0.2679E-01  0.2679E-01  0.1117E+00  0.1117E+00
      1.639  0.2890E-01  0.2890E-01  0.1172E+00  0.1172E+00
      1.832  0.1403E-01  0.1403E-01  0.1199E+00  0.1199E+00
      2.025  0.2659E-03  0.2659E-03  0.1200E+00  0.1200E+00
      2.218  0.0000E+00  0.0000E+00  0.1200E+00  0.1200E+00
      2.411  0.0000E+00  0.0000E+00  0.1200E+00  0.1200E+00
      2.604  0.0000E+00  0.0000E+00  0.1200E+00  0.1200E+00
      2.797  0.0000E+00  0.0000E+00  0.1200E+00  0.1200E+00
      2.989  0.0000E+00  0.0000E+00  0.1200E+00  0.1200E+00
      3.182  0.0000E+00  0.0000E+00  0.1200E+00  0.1200E+00
      3.375  0.0000E+00  0.0000E+00  0.1200E+00  0.1200E+00
      3.568  0.0000E+00  0.0000E+00  0.1200E+00  0.1200E+00
      3.761  0.0000E+00  0.0000E+00  0.1200E+00  0.1200E+00
      3.954  0.0000E+00  0.0000E+00  0.1200E+00  0.1200E+00
      4.147  0.0000E+00  0.0000E+00  0.1200E+00  0.1200E+00
      4.340  0.9679E-11  0.9679E-11  0.1200E+00  0.1200E+00
      4.532  0.5175E-02  0.5175E-02  0.1210E+00  0.1210E+00
      4.725  0.0000E+00  0.0000E+00  0.1210E+00  0.1210E+00
      4.918  0.0000E+00  0.0000E+00  0.1210E+00  0.1210E+00
      5.111  0.2996E-15  0.2996E-15  0.1210E+00  0.1210E+00
      5.304  0.4124E-02  0.4124E-02  0.1218E+00  0.1218E+00
      5.497  0.1143E-01  0.1143E-01  0.1240E+00  0.1240E+00
      5.690  0.0000E+00  0.0000E+00  0.1240E+00  0.1240E+00
      5.883  0.4239E-04  0.4239E-04  0.1240E+00  0.1240E+00
      6.075  0.1281E-01  0.1281E-01  0.1265E+00  0.1265E+00
      6.268  0.1599E-01  0.1599E-01  0.1296E+00  0.1296E+00
      6.461  0.2385E-02  0.2385E-02  0.1300E+00  0.1300E+00
      6.654  0.1402E-01  0.1402E-01  0.1327E+00  0.1327E+00
      6.847  0.6240E-02  0.6240E-02  0.1339E+00  0.1339E+00
      7.040  0.1069E-01  0.1069E-01  0.1360E+00  0.1360E+00
      7.233  0.5176E-02  0.5176E-02  0.1370E+00  0.1370E+00
      7.426  0.4488E-02  0.4488E-02  0.1379E+00  0.1379E+00
      7.618  0.7308E-02  0.7308E-02  0.1393E+00  0.1393E+00
      7.811  0.1309E-01  0.1309E-01  0.1418E+00  0.1418E+00
      8.004  0.1113E-01  0.1113E-01  0.1439E+00  0.1439E+00
      8.197  0.1445E-01  0.1445E-01  0.1467E+00  0.1467E+00
      8.390  0.1271E-01  0.1271E-01  0.1492E+00  0.1492E+00
      8.583  0.1822E-01  0.1822E-01  0.1527E+00  0.1527E+00
      8.776  0.1474E-01  0.1474E-01  0.1555E+00  0.1555E+00
      8.969  0.1716E-01  0.1716E-01  0.1589E+00  0.1589E+00
      9.161  0.1940E-01  0.1940E-01  0.1626E+00  0.1626E+00
      9.354  0.1575E-01  0.1575E-01  0.1656E+00  0.1656E+00
      9.547  0.1804E-01  0.1806E-01  0.1691E+00  0.1691E+00
      9.740  0.1610E-01  0.1610E-01  0.1722E+00  0.1722E+00
      9.933  0.1451E-01  0.1509E-01  0.1750E+00  0.1751E+00
     10.126  0.5022E-02  0.4424E-02  0.1760E+00  0.1760E+00
     10.319  0.0000E+00  0.0000E+00  0.1760E+00  0.1760E+00
     10.511  0.0000E+00  0.0000E+00  0.1760E+00  0.1760E+00
     10.704  0.0000E+00  0.0000E+00  0.1760E+00  0.1760E+00
     10.897  0.0000E+00  0.0000E+00  0.1760E+00  0.1760E+00
     11.090  0.0000E+00  0.0000E+00  0.1760E+00  0.1760E+00
     11.283  0.0000E+00  0.0000E+00  0.1760E+00  0.1760E+00
     11.476  0.0000E+00  0.0000E+00  0.1760E+00  0.1760E+00
     11.669  0.0000E+00  0.0000E+00  0.1760E+00  0.1760E+00
     11.862  0.0000E+00  0.0000E+00  0.1760E+00  0.1760E+00
     12.054  0.0000E+00  0.0000E+00  0.1760E+00  0.1760E+00
     12.247  0.0000E+00  0.0000E+00  0.1760E+00  0.1760E+00
     12.440  0.0000E+00  0.0000E+00  0.1760E+00  0.1760E+00
     12.633  0.0000E+00  0.0000E+00  0.1760E+00  0.1760E+00
