 vasp.6.4.1 05Apr23 (build Jun 07 2023 15:38:11) complex                        
  
 executed on             LinuxIFC date 2023.10.19  14:30:09
 running  128 mpi-ranks, with    1 threads/rank, on    1 nodes
 distrk:  each k-point on  128 cores,    1 groups
 distr:  one band on NCORE=  32 cores,    4 groups


--------------------------------------------------------------------------------------------------------


 INCAR:
   GGA = PE
   PREC = Accu
   EDIFF = 1.e-6
   EDIFFG = -1.e-3
   ENCUT = 520.
   NELM = 100
   NELMDL = -10
   LASPH = .TRUE.
   LREAL = Auto
   LMAXMIX = 4
   ISPIN = 2
   LDIAG = .TRUE.
   LPLANE = .TRUE.
   IVDW = 12
   SIGMA = 0.03
   ISMEAR = 0
   NSW = 1000    number of steps for IOM
   IBRION = 2    ionic relax: 0-MD 1-quasi-New 2-CG
   ISIF = 2    ionic relaxation + stress tensor calcn.
   LCHARG = .FALSE.
   LWAVE = .FALSE.
   ALGO = F
   KPAR = 1
   NPAR = 4
   POTIM = 0.2

 POTCAR:    PAW_PBE Li_sv_GW 25Mar2010            
 POTCAR:    PAW_PBE P_GW 19Mar2012                
 POTCAR:    PAW_PBE S_GW 19Mar2012                
 POTCAR:    PAW_PBE Cl_GW 19Mar2012               
 -----------------------------------------------------------------------------
|                                                                             |
|           W    W    AA    RRRRR   N    N  II  N    N   GGGG   !!!           |
|           W    W   A  A   R    R  NN   N  II  NN   N  G    G  !!!           |
|           W    W  A    A  R    R  N N  N  II  N N  N  G       !!!           |
|           W WW W  AAAAAA  RRRRR   N  N N  II  N  N N  G  GGG   !            |
|           WW  WW  A    A  R   R   N   NN  II  N   NN  G    G                |
|           W    W  A    A  R    R  N    N  II  N    N   GGGG   !!!           |
|                                                                             |
|     You use a magnetic or noncollinear calculation, but did not specify     |
|     the initial magnetic moment with the MAGMOM tag. Note that a            |
|     default of 1 will be used for all atoms. This ferromagnetic setup       |
|     may break the symmetry of the crystal, in particular it may rule        |
|     out finding an antiferromagnetic solution. Thence, we recommend         |
|     setting the initial magnetic moment manually or verifying carefully     |
|     that this magnetic setup is desired.                                    |
|                                                                             |
 -----------------------------------------------------------------------------

 POTCAR:    PAW_PBE Li_sv_GW 25Mar2010            
   SHA256 =  24a6ace15a582615486b36ce4dc781b048409f4015b7684ed1273ae395fa2fdc Li_sv_GW/POTCAR       
   COPYR  = (c) Copyright 25Mar2010 Georg Kresse                                                    
   COPYR  = This file is part of the software VASP. Any use, copying, and all other rights are regul
   COPYR  = If you do not have a valid VASP license, you may not use, copy or distribute this file. 
   VRHFIN =Li: 1s2s                                                                                 
   LEXCH  = PE                                                                                      
   EATOM  =   200.9989 eV,   14.7730 Ry                                                             
                                                                                                    
   TITEL  = PAW_PBE Li_sv_GW 25Mar2010                                                              
   LULTRA =        F    use ultrasoft PP ?                                                          
   IUNSCR =        0    unscreen: 0-lin 1-nonlin 2-no                                               
   RPACOR =    0.000    partial core radius                                                         
   POMASS =    7.010; ZVAL   =    3.000    mass and valenz                                          
   RCORE  =    1.500    outmost cutoff radius                                                       
   RWIGS  =    1.600; RWIGS  =    0.847    wigner-seitz radius (au A)                               
   ENMAX  =  433.699; ENMIN  =  325.274 eV                                                          
   RCLOC  =    1.003    cutoff for local pot                                                        
   LCOR   =        T    correct aug charges                                                         
   LPAW   =        T    paw PP                                                                      
   EAUG   = 1041.699                                                                                
   RMAX   =    1.536    core radius for proj-oper                                                   
   RAUG   =    1.300    factor for augmentation sphere                                              
   RDEP   =    1.520    radius for radial grids                                                     
   RDEPT  =    1.300    core radius for aug-charge                                                  
                                                                                                    
   Atomic configuration                                                                             
    4 entries                                                                                       
     n  l   j            E        occ.                                                              
     1  0  0.50       -53.3604   2.0000                                                             
     1  0  0.50       -52.0001   0.0000                                                             
     2  1  0.50        -1.5636   1.0000                                                             
     3  2  1.50        -1.3606   0.0000                                                             
   Description                                                                                      
     l       E           TYP  RCUT    TYP  RCUT                                                     
     0    -53.3603633     23  1.200                                                                 
     0    -52.0001064     23  1.200                                                                 
     0    176.8757380     23  1.300                                                                 
     1     -1.5635925     23  1.500                                                                 
     1    108.8466080     23  1.500                                                                 
     2     81.6349560     23  1.500                                                                 
  local pseudopotential read in
  kinetic energy density of atom read in
  atomic valenz-charges read in
  non local Contribution for L=           0  read in
    real space projection operators read in
  non local Contribution for L=           0  read in
    real space projection operators read in
  non local Contribution for L=           0  read in
    real space projection operators read in
  non local Contribution for L=           1  read in
    real space projection operators read in
  non local Contribution for L=           1  read in
    real space projection operators read in
  non local Contribution for L=           2  read in
    real space projection operators read in
    PAW grid and wavefunctions read in
 
   number of l-projection  operators is LMAX  =           6
   number of lm-projection operators is LMMAX =          14
 
 POTCAR:    PAW_PBE P_GW 19Mar2012                
   SHA256 =  715c28f2291d37b61637ce89646c59f66f71c8b8d8bfba631e5feb9f7b42defe P_GW/POTCAR           
   COPYR  = (c) Copyright 19Mar2012 Georg Kresse                                                    
   COPYR  = This file is part of the software VASP. Any use, copying, and all other rights are regul
   COPYR  = If you do not have a valid VASP license, you may not use, copy or distribute this file. 
   VRHFIN =P : s2p3                                                                                 
   LEXCH  = PE                                                                                      
   EATOM  =   176.0430 eV,   12.9388 Ry                                                             
                                                                                                    
   TITEL  = PAW_PBE P_GW 19Mar2012                                                                  
   LULTRA =        F    use ultrasoft PP ?                                                          
   IUNSCR =        1    unscreen: 0-lin 1-nonlin 2-no                                               
   RPACOR =    1.400    partial core radius                                                         
   POMASS =   30.974; ZVAL   =    5.000    mass and valenz                                          
   RCORE  =    2.000    outmost cutoff radius                                                       
   RWIGS  =    1.900; RWIGS  =    1.005    wigner-seitz radius (au A)                               
   ENMAX  =  255.040; ENMIN  =  191.280 eV                                                          
   ICORE  =        3    local potential                                                             
   LCOR   =        T    correct aug charges                                                         
   LPAW   =        T    paw PP                                                                      
   EAUG   =  499.732                                                                                
   DEXC   =    0.000                                                                                
   RMAX   =    2.047    core radius for proj-oper                                                   
   RAUG   =    1.300    factor for augmentation sphere                                              
   RDEP   =    2.059    radius for radial grids                                                     
   RDEPT  =    1.900    core radius for aug-charge                                                  
                                                                                                    
   Atomic configuration                                                                             
    7 entries                                                                                       
     n  l   j            E        occ.                                                              
     1  0  0.50     -2084.0982   2.0000                                                             
     2  0  0.50      -173.9859   2.0000                                                             
     2  1  1.50      -124.4865   6.0000                                                             
     3  0  0.50       -13.9692   2.0000                                                             
     3  1  0.50        -5.5067   3.0000                                                             
     3  2  1.50        -6.8029   0.0000                                                             
     4  3  2.50        -1.3606   0.0000                                                             
   Description                                                                                      
     l       E           TYP  RCUT    TYP  RCUT                                                     
     0    -13.9691528     23  1.900                                                                 
     0    102.0436950     23  1.900                                                                 
     1     -5.5066939     23  1.900                                                                 
     1    102.0436950     23  1.900                                                                 
     2     -8.1634956     23  2.000                                                                 
     2     81.6349560     23  2.000                                                                 
     3     27.2116520     23  2.000                                                                 
  local pseudopotential read in
  partial core-charges read in
  partial kinetic energy density read in
  kinetic energy density of atom read in
  atomic valenz-charges read in
  non local Contribution for L=           0  read in
    real space projection operators read in
  non local Contribution for L=           0  read in
    real space projection operators read in
  non local Contribution for L=           1  read in
    real space projection operators read in
  non local Contribution for L=           1  read in
    real space projection operators read in
  non local Contribution for L=           2  read in
    real space projection operators read in
  non local Contribution for L=           2  read in
    real space projection operators read in
    PAW grid and wavefunctions read in
 
   number of l-projection  operators is LMAX  =           6
   number of lm-projection operators is LMMAX =          18
 
 POTCAR:    PAW_PBE S_GW 19Mar2012                
   SHA256 =  357db9cfb0783579b2eebe03197c2d807131fea8ea663b1fcfb6ce2fa75af011 S_GW/POTCAR           
   COPYR  = (c) Copyright 19Mar2012 Georg Kresse                                                    
   COPYR  = This file is part of the software VASP. Any use, copying, and all other rights are regul
   COPYR  = If you do not have a valid VASP license, you may not use, copy or distribute this file. 
   VRHFIN =S : s2p4                                                                                 
   LEXCH  = PE                                                                                      
   EATOM  =   276.8230 eV,   20.3459 Ry                                                             
                                                                                                    
   TITEL  = PAW_PBE S_GW 19Mar2012                                                                  
   LULTRA =        F    use ultrasoft PP ?                                                          
   IUNSCR =        1    unscreen: 0-lin 1-nonlin 2-no                                               
   RPACOR =    1.400    partial core radius                                                         
   POMASS =   32.066; ZVAL   =    6.000    mass and valenz                                          
   RCORE  =    1.900    outmost cutoff radius                                                       
   RWIGS  =    1.900; RWIGS  =    1.005    wigner-seitz radius (au A)                               
   ENMAX  =  258.689; ENMIN  =  194.016 eV                                                          
   ICORE  =        3    local potential                                                             
   LCOR   =        T    correct aug charges                                                         
   LPAW   =        T    paw PP                                                                      
   EAUG   =  488.319                                                                                
   DEXC   =    0.000                                                                                
   RMAX   =    1.942    core radius for proj-oper                                                   
   RAUG   =    1.300    factor for augmentation sphere                                              
   RDEP   =    1.954    radius for radial grids                                                     
   RDEPT  =    1.900    core radius for aug-charge                                                  
                                                                                                    
   Atomic configuration                                                                             
    7 entries                                                                                       
     n  l   j            E        occ.                                                              
     1  0  0.50     -2405.8406   2.0000                                                             
     2  0  0.50      -211.7007   2.0000                                                             
     2  1  1.50      -156.4958   6.0000                                                             
     3  0  0.50       -17.2562   2.0000                                                             
     3  1  0.50        -7.0085   4.0000                                                             
     3  2  1.50        -8.1635   0.0000                                                             
     4  3  2.50        -1.3606   0.0000                                                             
   Description                                                                                      
     l       E           TYP  RCUT    TYP  RCUT                                                     
     0    -17.2561639     23  1.700                                                                 
     0     88.4378690     23  1.900                                                                 
     1     -7.0085399     23  1.900                                                                 
     1     88.4378690     23  1.900                                                                 
     2    -10.8846608     23  1.900                                                                 
     2     54.4233040     23  1.900                                                                 
     3     27.2116520     23  1.800                                                                 
  local pseudopotential read in
  partial core-charges read in
  partial kinetic energy density read in
  kinetic energy density of atom read in
  atomic valenz-charges read in
  non local Contribution for L=           0  read in
    real space projection operators read in
  non local Contribution for L=           0  read in
    real space projection operators read in
  non local Contribution for L=           1  read in
    real space projection operators read in
  non local Contribution for L=           1  read in
    real space projection operators read in
  non local Contribution for L=           2  read in
    real space projection operators read in
  non local Contribution for L=           2  read in
    real space projection operators read in
    PAW grid and wavefunctions read in
 
   number of l-projection  operators is LMAX  =           6
   number of lm-projection operators is LMMAX =          18
 
 POTCAR:    PAW_PBE Cl_GW 19Mar2012               
   SHA256 =  3ef3b3169d6a9a89979f58b4cf17d927a58518fc660d8883d88cacaee8175441 Cl_GW/POTCAR          
   COPYR  = (c) Copyright 19Mar2012 Georg Kresse                                                    
   COPYR  = This file is part of the software VASP. Any use, copying, and all other rights are regul
   COPYR  = If you do not have a valid VASP license, you may not use, copy or distribute this file. 
   VRHFIN =Cl: s2p5                                                                                 
   LEXCH  = PE                                                                                      
   EATOM  =   409.7259 eV,   30.1140 Ry                                                             
                                                                                                    
   TITEL  = PAW_PBE Cl_GW 19Mar2012                                                                 
   LULTRA =        F    use ultrasoft PP ?                                                          
   IUNSCR =        1    unscreen: 0-lin 1-nonlin 2-no                                               
   RPACOR =    1.400    partial core radius                                                         
   POMASS =   35.453; ZVAL   =    7.000    mass and valenz                                          
   RCORE  =    1.900    outmost cutoff radius                                                       
   RWIGS  =    1.900; RWIGS  =    1.005    wigner-seitz radius (au A)                               
   ENMAX  =  262.472; ENMIN  =  196.854 eV                                                          
   ICORE  =        3    local potential                                                             
   LCOR   =        T    correct aug charges                                                         
   LPAW   =        T    paw PP                                                                      
   EAUG   =  456.703                                                                                
   DEXC   =    0.000                                                                                
   RMAX   =    1.945    core radius for proj-oper                                                   
   RAUG   =    1.300    factor for augmentation sphere                                              
   RDEP   =    2.020    radius for radial grids                                                     
   RDEPT  =    1.900    core radius for aug-charge                                                  
                                                                                                    
   Atomic configuration                                                                             
    7 entries                                                                                       
     n  l   j            E        occ.                                                              
     1  0  0.50     -2751.1850   2.0000                                                             
     2  0  0.50      -252.6861   2.0000                                                             
     2  1  1.50      -191.6157   6.0000                                                             
     3  0  0.50       -20.6916   2.0000                                                             
     3  1  0.50        -8.5949   5.0000                                                             
     3  2  1.50        -9.5241   0.0000                                                             
     4  3  2.50        -9.5241   0.0000                                                             
   Description                                                                                      
     l       E           TYP  RCUT    TYP  RCUT                                                     
     0    -20.6915657     23  1.700                                                                 
     0     95.2407820     23  1.800                                                                 
     1     -8.5948577     23  1.900                                                                 
     1     95.2407820     23  1.900                                                                 
     2    -10.8846608     23  1.900                                                                 
     2     54.4233040     23  1.900                                                                 
     3     27.2116520     23  1.900                                                                 
  local pseudopotential read in
  partial core-charges read in
  partial kinetic energy density read in
  kinetic energy density of atom read in
  atomic valenz-charges read in
  non local Contribution for L=           0  read in
    real space projection operators read in
  non local Contribution for L=           0  read in
    real space projection operators read in
  non local Contribution for L=           1  read in
    real space projection operators read in
  non local Contribution for L=           1  read in
    real space projection operators read in
  non local Contribution for L=           2  read in
    real space projection operators read in
  non local Contribution for L=           2  read in
    real space projection operators read in
    PAW grid and wavefunctions read in
 
   number of l-projection  operators is LMAX  =           6
   number of lm-projection operators is LMMAX =          18
 
 Optimization of the real space projectors (new method)

 maximal supplied QI-value         = 25.13
 optimisation between [QCUT,QGAM] = [ 11.56, 23.12] = [ 37.43,149.72] Ry 
 Optimized for a Real-space Cutoff    1.28 Angstroem

   l    n(q)    QCUT    max X(q) W(low)/X(q) W(high)/X(q)  e(spline) 
   0      9    11.561    87.733    0.11E-03    0.32E-04    0.56E-06
   0      9    11.561    82.800    0.11E-03    0.35E-04    0.56E-06
   0      9    11.561     2.509    0.22E-03    0.42E-04    0.79E-06
   1      8    11.561    12.580    0.94E-04    0.26E-03    0.21E-06
   1      8    11.561     1.319    0.33E-04    0.15E-03    0.19E-06
   2      8    11.561     1.993    0.36E-04    0.89E-04    0.26E-06
 Optimization of the real space projectors (new method)

 maximal supplied QI-value         = 18.90
 optimisation between [QCUT,QGAM] = [ 11.53, 23.24] = [ 37.21,151.29] Ry 
 Optimized for a Real-space Cutoff    1.21 Angstroem

   l    n(q)    QCUT    max X(q) W(low)/X(q) W(high)/X(q)  e(spline) 
   0      8    11.527     8.355    0.73E-04    0.70E-04    0.26E-07
   0      8    11.527     1.401    0.17E-03    0.17E-03    0.63E-07
   1      8    11.527     4.747    0.13E-03    0.17E-03    0.11E-06
   1      8    11.527     2.025    0.16E-03    0.18E-03    0.12E-06
   2      7    11.527     3.169    0.51E-04    0.25E-03    0.60E-07
   2      7    11.527     3.441    0.82E-04    0.22E-03    0.14E-06
 Optimization of the real space projectors (new method)

 maximal supplied QI-value         = 19.84
 optimisation between [QCUT,QGAM] = [ 11.51, 23.22] = [ 37.09,150.92] Ry 
 Optimized for a Real-space Cutoff    1.49 Angstroem

   l    n(q)    QCUT    max X(q) W(low)/X(q) W(high)/X(q)  e(spline) 
   0     10    11.508     7.541    0.34E-04    0.13E-04    0.69E-07
   0     10    11.508     1.809    0.49E-04    0.27E-04    0.14E-06
   1     10    11.508     4.107    0.27E-05    0.41E-05    0.14E-06
   1     10    11.508     2.196    0.26E-05    0.25E-05    0.22E-06
   2      9    11.508     4.265    0.18E-03    0.11E-03    0.81E-06
   2      9    11.508     1.925    0.97E-04    0.76E-04    0.47E-06
 Optimization of the real space projectors (new method)

 maximal supplied QI-value         = 19.84
 optimisation between [QCUT,QGAM] = [ 11.51, 23.22] = [ 37.09,150.92] Ry 
 Optimized for a Real-space Cutoff    1.21 Angstroem

   l    n(q)    QCUT    max X(q) W(low)/X(q) W(high)/X(q)  e(spline) 
   0      8    11.508     6.761    0.57E-04    0.57E-04    0.35E-07
   0      8    11.508     1.642    0.14E-03    0.14E-03    0.91E-07
   1      8    11.508     3.519    0.20E-04    0.72E-04    0.47E-07
   1      8    11.508     2.150    0.27E-04    0.11E-03    0.89E-07
   2      7    11.508     2.976    0.19E-03    0.33E-03    0.16E-06
   2      7    11.508     1.494    0.14E-03    0.29E-03    0.14E-06
  PAW_PBE Li_sv_GW 25Mar2010            :
 energy of atom  1       EATOM= -200.9989
 kinetic energy error for atom=    0.0127 (will be added to EATOM!!)
  PAW_PBE P_GW 19Mar2012                :
 energy of atom  2       EATOM= -176.0430
 kinetic energy error for atom=    0.0011 (will be added to EATOM!!)
  PAW_PBE S_GW 19Mar2012                :
 energy of atom  3       EATOM= -276.8230
 kinetic energy error for atom=    0.0024 (will be added to EATOM!!)
  PAW_PBE Cl_GW 19Mar2012               :
 energy of atom  4       EATOM= -409.7259
 kinetic energy error for atom=    0.0030 (will be added to EATOM!!)
 
 
 POSCAR: Li24 P4 S20 Cl4
  positions in direct lattice
  velocities in cartesian coordinates
 exchange correlation table for  LEXCH =        8
   RHO(1)=    0.500       N(1)  =     2000
   RHO(2)=  100.500       N(2)  =     4000

 VTST: version 4.1, (05/19/21)

 CHAIN: initializing optimizer
 
 OPT: Using VASP Conjugate-Gradient optimizer
 CHAIN: Read ICHAIN            0
 
 POSCAR: Li24 P4 S20 Cl4
  positions in direct lattice
  velocities in cartesian coordinates
 


--------------------------------------------------------------------------------------------------------


 ion  position               nearest neighbor table
   1  0.959  0.344  0.320-
   2  0.993  0.717  0.711-
   3  0.019  0.292  0.716-
   4  0.023  0.828  0.212-
   5  0.173  0.165  0.961-
   6  0.215  0.829  0.014-
   7  0.829  0.189  0.043-
   8  0.813  0.771  0.989-
   9  0.300  0.986  0.318-
  10  0.344  0.029  0.671-
  11  0.817  0.973  0.799-
  12  0.716  0.019  0.278-
  13  0.186  0.684  0.460-
  14  0.225  0.276  0.511-
  15  0.670  0.814  0.551-
  16  0.668  0.199  0.482-
  17  0.236  0.481  0.725-
  18  0.304  0.538  0.160-
  19  0.697  0.484  0.178-
  20  0.798  0.518  0.672-
  21  0.467  0.306  0.843-
  22  0.482  0.773  0.300-
  23  0.514  0.283  0.186-
  24  0.541  0.663  0.831-
  25  0.502  0.501  0.501-  41 2.05  43 2.05  42 2.05  44 2.05
  26  0.508  0.989  0.994-  40 2.04  37 2.05  38 2.06  39 2.06
  27  0.008  0.496  0.008-  36 2.04  34 2.05  33 2.06  35 2.06
  28  0.996  0.004  0.500-  31 2.05  32 2.05  30 2.05  29 2.05
  29  0.136  0.890  0.614-  28 2.05
  30  0.101  0.127  0.361-  28 2.05
  31  0.871  0.866  0.397-  28 2.05
  32  0.870  0.126  0.619-  28 2.05
  33  0.903  0.613  0.151-  27 2.06
  34  0.871  0.386  0.888-  27 2.05
  35  0.134  0.623  0.893-  27 2.06
  36  0.125  0.359  0.120-  27 2.04
  37  0.636  0.122  0.888-  26 2.05
  38  0.624  0.861  0.118-  26 2.06
  39  0.370  0.105  0.108-  26 2.06
  40  0.398  0.871  0.857-  26 2.04
  41  0.647  0.613  0.393-  25 2.05
  42  0.602  0.373  0.638-  25 2.05
  43  0.387  0.640  0.615-  25 2.05
  44  0.377  0.394  0.366-  25 2.05
  45  0.762  0.742  0.760-
  46  0.741  0.255  0.258-
  47  0.252  0.761  0.243-
  48  0.252  0.244  0.746-
  49  0.989  0.980  0.001-
  50  0.026  0.491  0.543-
  51  0.508  0.994  0.469-
  52  0.503  0.485  0.016-
 
  LATTYP: Found a simple cubic cell.
 ALAT       =     9.6508062553
  
  Lattice vectors:
  
 A1 = (   9.6508062553,   0.0000000000,   0.0000000000)
 A2 = (   0.0000000000,   9.6508062553,   0.0000000000)
 A3 = (   0.0000000000,   0.0000000000,   9.6508062553)


Analysis of symmetry for initial positions (statically):
=====================================================================
 Subroutine PRICEL returns:
 Original cell was already a primitive cell.
 

 Routine SETGRP: Setting up the symmetry group for a 
 simple cubic supercell.


 Subroutine GETGRP returns: Found  1 space group operations
 (whereof  1 operations were pure point group operations)
 out of a pool of 48 trial point group operations.


The static configuration has the point symmetry C_1 .


Analysis of symmetry for dynamics (positions and initial velocities):
=====================================================================
 Subroutine PRICEL returns:
 Original cell was already a primitive cell.
 

 Routine SETGRP: Setting up the symmetry group for a 
 simple cubic supercell.


 Subroutine GETGRP returns: Found  1 space group operations
 (whereof  1 operations were pure point group operations)
 out of a pool of 48 trial point group operations.


The dynamic configuration has the point symmetry C_1 .


Analysis of structural, dynamic, and magnetic symmetry:
=====================================================================
 Subroutine PRICEL returns:
 Original cell was already a primitive cell.
 

 Routine SETGRP: Setting up the symmetry group for a 
 simple cubic supercell.


 Subroutine GETGRP returns: Found  1 space group operations
 (whereof  1 operations were pure point group operations)
 out of a pool of 48 trial point group operations.


The overall configuration has the point symmetry C_1 .


 Subroutine INISYM returns: Found  1 space group operations
 (whereof  1 operations are pure point group operations),
 and found     1 'primitive' translations


----------------------------------------------------------------------------------------

                                     Primitive cell                                     

  volume of cell :     898.8574

  direct lattice vectors                    reciprocal lattice vectors
     9.650806255  0.000000000  0.000000000     0.103618286  0.000000000  0.000000000
     0.000000000  9.650806255  0.000000000     0.000000000  0.103618286  0.000000000
     0.000000000  0.000000000  9.650806255     0.000000000  0.000000000  0.103618286

  length of vectors
     9.650806255  9.650806255  9.650806255     0.103618286  0.103618286  0.103618286

  position of ions in fractional coordinates (direct lattice)
     0.959250973  0.344476717  0.320421303
     0.993233825  0.717395712  0.711178769
     0.018750927  0.291867248  0.715555727
     0.023313777  0.827860579  0.212366367
     0.173358565  0.165449655  0.961230762
     0.215397363  0.829051505  0.013663439
     0.829180866  0.189280793  0.043298398
     0.812831697  0.770582998  0.988705389
     0.300384023  0.985609300  0.317662907
     0.343892571  0.029037644  0.671485619
     0.816753451  0.973151941  0.799155030
     0.716058019  0.018675795  0.278253442
     0.186036256  0.684337639  0.460472146
     0.224793927  0.276391612  0.511252641
     0.669878205  0.813792171  0.550552551
     0.668067576  0.198624490  0.482383934
     0.235589318  0.481490933  0.724977611
     0.303597623  0.538075881  0.159807606
     0.697475559  0.483620092  0.178460471
     0.798354100  0.518307891  0.671732484
     0.467347724  0.305503305  0.843001308
     0.482139162  0.772878201  0.300089332
     0.514219947  0.283475384  0.186370166
     0.540779704  0.663148860  0.831347090
     0.501980333  0.501377545  0.501008576
     0.508331788  0.989489340  0.993585536
     0.008093063  0.495571216  0.008138505
     0.996384342  0.003624396  0.499714174
     0.136196239  0.890429347  0.613500126
     0.101057205  0.126900214  0.361430689
     0.870978685  0.866220434  0.397240380
     0.870215858  0.126254569  0.619371494
     0.902687588  0.613463226  0.151053954
     0.871173809  0.386325389  0.887618056
     0.134271712  0.623416567  0.892803897
     0.125021799  0.358860742  0.119757289
     0.635752640  0.121651938  0.887645565
     0.624088330  0.861214022  0.118336764
     0.369623827  0.105119420  0.107577930
     0.398316054  0.870610304  0.857190091
     0.646752625  0.612573554  0.392637745
     0.602402820  0.373082764  0.638045372
     0.387367502  0.639515365  0.615020064
     0.376788102  0.393974613  0.366403862
     0.761754146  0.741726116  0.759572877
     0.741249625  0.254771674  0.257561443
     0.251612503  0.760600814  0.243036508
     0.251761994  0.244066258  0.745558342
     0.989332369  0.979825569  0.000880971
     0.025605399  0.491287320  0.543329592
     0.507910574  0.993900279  0.469103201
     0.503077265  0.485019490  0.015828039

  ion indices of the primitive-cell ions
   primitive index   ion index
                 1           1
                 2           2
                 3           3
                 4           4
                 5           5
                 6           6
                 7           7
                 8           8
                 9           9
                10          10
                11          11
                12          12
                13          13
                14          14
                15          15
                16          16
                17          17
                18          18
                19          19
                20          20
                21          21
                22          22
                23          23
                24          24
                25          25
                26          26
                27          27
                28          28
                29          29
                30          30
                31          31
                32          32
                33          33
                34          34
                35          35
                36          36
                37          37
                38          38
                39          39
                40          40
                41          41
                42          42
                43          43
                44          44
                45          45
                46          46
                47          47
                48          48
                49          49
                50          50
                51          51
                52          52

----------------------------------------------------------------------------------------

 
 
 KPOINTS: Automatic mesh                          

Automatic generation of k-mesh.
 Grid dimensions read from file:
 generate k-points for:    2    2    2

 Generating k-lattice:

  Cartesian coordinates                     Fractional coordinates (reciprocal lattice)
     0.051809143  0.000000000  0.000000000     0.500000000  0.000000000  0.000000000
     0.000000000  0.051809143  0.000000000     0.000000000  0.500000000  0.000000000
     0.000000000  0.000000000  0.051809143     0.000000000  0.000000000  0.500000000

  Length of vectors
     0.051809143  0.051809143  0.051809143

  Shift w.r.t. Gamma in fractional coordinates (k-lattice)
     0.500000000  0.500000000  0.500000000

 
 Subroutine IBZKPT returns following result:
 ===========================================
 
 Found      4 irreducible k-points:
 
 Following reciprocal coordinates:
            Coordinates               Weight
  0.250000  0.250000  0.250000      2.000000
 -0.250000  0.250000  0.250000      2.000000
 -0.250000 -0.250000  0.250000      2.000000
  0.250000 -0.250000  0.250000      2.000000
 
 Following cartesian coordinates:
            Coordinates               Weight
  0.025905  0.025905  0.025905      2.000000
 -0.025905  0.025905  0.025905      2.000000
 -0.025905 -0.025905  0.025905      2.000000
  0.025905 -0.025905  0.025905      2.000000
 


--------------------------------------------------------------------------------------------------------




 Dimension of arrays:
   k-points           NKPTS =      4   k-points in BZ     NKDIM =      4   number of bands    NBANDS=    176
   number of dos      NEDOS =    301   number of ions     NIONS =     52
   non local maximal  LDIM  =      6   non local SUM 2l+1 LMDIM =     18
   total plane-waves  NPLWV = 373248
   max r-space proj   IRMAX =   5793   max aug-charges    IRDMAX=  17723
   dimension x,y,z NGX =    72 NGY =   72 NGZ =   72
   dimension x,y,z NGXF=   144 NGYF=  144 NGZF=  144
   support grid    NGXF=   144 NGYF=  144 NGZF=  144
   ions per type =              24   4  20   4
   NGX,Y,Z   is equivalent  to a cutoff of  12.40, 12.40, 12.40 a.u.
   NGXF,Y,Z  is equivalent  to a cutoff of  24.81, 24.81, 24.81 a.u.

 SYSTEM =  unknown system                          
 POSCAR =  Li24 P4 S20 Cl4                         

 Startparameter for this run:
   NWRITE =      2    write-flag & timer
   PREC   = accu      normal or accurate (medium, high low for compatibility)
   ISTART =      0    job   : 0-new  1-cont  2-samecut
   ICHARG =      2    charge: 1-file 2-atom 10-const
   ISPIN  =      2    spin polarized calculation?
   LNONCOLLINEAR =      F non collinear calculations
   LSORBIT =      F    spin-orbit coupling
   INIWAV =      1    electr: 0-lowe 1-rand  2-diag
   LASPH  =      T    aspherical Exc in radial PAW
 Electronic Relaxation 1
   ENCUT  =  520.0 eV  38.22 Ry    6.18 a.u.  17.94 17.94 17.94*2*pi/ulx,y,z
   ENINI  =  520.0     initial cutoff
   ENAUG  = 1041.7 eV  augmentation charge cutoff
   NELM   =    100;   NELMIN=  2; NELMDL=-10     # of ELM steps 
   EDIFF  = 0.1E-05   stopping-criterion for ELM
   LREAL  =      T    real-space projection
   NLSPLINE    = F    spline interpolate recip. space projectors
   LCOMPAT=      F    compatible to vasp.4.4
   GGA_COMPAT  = T    GGA compatible to vasp.4.4-vasp.4.6
   LMAXPAW     = -100 max onsite density
   LMAXMIX     =    4 max onsite mixed and CHGCAR
   VOSKOWN=      0    Vosko Wilk Nusair interpolation
   ROPT   =   -0.00025  -0.00025  -0.00025  -0.00025
 Ionic relaxation
   EDIFFG = -.1E-02   stopping-criterion for IOM
   NSW    =   1000    number of steps for IOM
   NBLOCK =      1;   KBLOCK =   1000    inner block; outer block 
   IBRION =      2    ionic relax: 0-MD 1-quasi-New 2-CG
   NFREE  =      1    steps in history (QN), initial steepest desc. (CG)
   ISIF   =      2    stress and relaxation
   IWAVPR =     11    prediction:  0-non 1-charg 2-wave 3-comb
   ISYM   =      2    0-nonsym 1-usesym 2-fastsym
   LCORR  =      T    Harris-Foulkes like correction to forces

   POTIM  = 0.2000    time-step for ionic-motion
   TEIN   =    0.0    initial temperature
   TEBEG  =    0.0;   TEEND  =   0.0 temperature during run
   SMASS  =  -3.00    Nose mass-parameter (am)
   estimated Nose-frequenzy (Omega)   =  0.10E-29 period in steps = 0.31E+47 mass=  -0.213E-26a.u.
   SCALEE = 1.0000    scale energy and forces
   NPACO  =    256;   APACO  = 10.0  distance and # of slots for P.C.
   PSTRESS=    0.0 pullay stress

  Mass of Ions in am
   POMASS =   7.01 30.97 32.07 35.45
  Ionic Valenz
   ZVAL   =   3.00  5.00  6.00  7.00
  Atomic Wigner-Seitz radii
   RWIGS  =  -1.00 -1.00 -1.00 -1.00
  virtual crystal weights 
   VCA    =   1.00  1.00  1.00  1.00
   NELECT =     240.0000    total number of electrons
   NUPDOWN=      -1.0000    fix difference up-down

 DOS related values:
   EMIN   =  10.00;   EMAX   =-10.00  energy-range for DOS
   EFERMI =   0.00;   METHOD = LEGACY      
   ISMEAR =     0;   SIGMA  =   0.03  broadening in eV -4-tet -1-fermi 0-gaus

 Electronic relaxation 2 (details)
   IALGO  =     68    algorithm
   LDIAG  =      T    sub-space diagonalisation (order eigenvalues)
   LSUBROT=      F    optimize rotation matrix (better conditioning)
   TURBO    =      0    0=normal 1=particle mesh
   IRESTART =      0    0=no restart 2=restart with 2 vectors
   NREBOOT  =      0    no. of reboots
   NMIN     =      0    reboot dimension
   EREF     =   0.00    reference energy to select bands
   IMIX   =      4    mixing-type and parameters
     AMIX     =   0.40;   BMIX     =  1.00
     AMIX_MAG =   1.60;   BMIX_MAG =  1.00
     AMIN     =   0.10
     WC   =   100.;   INIMIX=   1;  MIXPRE=   1;  MAXMIX= -45

 Intra band minimization:
   WEIMIN = 0.0010     energy-eigenvalue tresh-hold
   EBREAK =  0.14E-08  absolut break condition
   DEPER  =   0.30     relativ break condition  

   TIME   =   0.40     timestep for ELM

  volume/ion in A,a.u.               =      17.29       116.65
  Fermi-wavevector in a.u.,A,eV,Ry     =   1.054181  1.992112 15.120107  1.111297
  Thomas-Fermi vector in A             =   2.189331
 
 Write flags
   LWAVE        =      F    write WAVECAR
   LDOWNSAMPLE  =      F    k-point downsampling of WAVECAR
   LCHARG       =      F    write CHGCAR
   LVTOT        =      F    write LOCPOT, total local potential
   LVHAR        =      F    write LOCPOT, Hartree potential only
   LELF         =      F    write electronic localiz. function (ELF)
   LORBIT       =      0    0 simple, 1 ext, 2 COOP (PROOUT), +10 PAW based schemes


 Dipole corrections
   LMONO  =      F    monopole corrections only (constant potential shift)
   LDIPOL =      F    correct potential (dipole corrections)
   IDIPOL =      0    1-x, 2-y, 3-z, 4-all directions 
   EPSILON=  1.0000000 bulk dielectric constant

 Exchange correlation treatment:
   GGA     =    PE    GGA type
   LEXCH   =     8    internal setting for exchange type
   LIBXC   =     F    Libxc                    
   VOSKOWN =     0    Vosko Wilk Nusair interpolation
   LHFCALC =     F    Hartree Fock is set to
   LHFONE  =     F    Hartree Fock one center treatment
   AEXX    =    0.0000 exact exchange contribution

 Linear response parameters
   LEPSILON=     F    determine dielectric tensor
   LRPA    =     F    only Hartree local field effects (RPA)
   LNABLA  =     F    use nabla operator in PAW spheres
   LVEL    =     F    velocity operator in full k-point grid
   CSHIFT  =0.1000    complex shift for real part using Kramers Kronig
   OMEGAMAX=  -1.0    maximum frequency
   DEG_THRESHOLD= 0.2000000E-02 threshold for treating states as degnerate
   RTIME   =   -0.100 relaxation time in fs
  (WPLASMAI=    0.000 imaginary part of plasma frequency in eV, 0.658/RTIME)
   DFIELD  = 0.0000000 0.0000000 0.0000000 field for delta impulse in time
 
  Optional k-point grid parameters
   LKPOINTS_OPT  =     F    use optional k-point grid
   KPOINTS_OPT_MODE=     1    mode for optional k-point grid
 
 Orbital magnetization related:
   ORBITALMAG=     F  switch on orbital magnetization
   LCHIMAG   =     F  perturbation theory with respect to B field
   DQ        =  0.001000  dq finite difference perturbation B field
   LLRAUG    =     F  two centre corrections for induced B field
   LBONE     =     F  B-component reconstruction in AE one-centre
   LVGVCALC  =     T  calculate vGv susceptibility
   LVGVAPPL  =     F  apply vGv susceptibility instead of pGv for G=0

 Random number generation:
   RANDOM_GENERATOR = DEFAULT
   PCG_SEED         = not used


--------------------------------------------------------------------------------------------------------


 conjugate gradient relaxation of ions
 charge density and potential will be updated during run
 spin polarized calculation
 RMM-DIIS sequential band-by-band and
  variant of blocked Davidson during initial phase
 perform sub-space diagonalisation
    before iterative eigenvector-optimisation
 modified Broyden-mixing scheme, WC =      100.0
 initial mixing is a Kerker type mixing with AMIX =  0.4000 and BMIX =      1.0000
 Hartree-type preconditioning will be used
 using additional bands           56
 real space projection scheme for non local part
 use partial core corrections
 calculate Harris-corrections to forces 
   (improved forces if not selfconsistent)
 use gradient corrections 
 use of overlap-Matrix (Vanderbilt PP)
 Gauss-broadening in eV      SIGMA  =   0.03


--------------------------------------------------------------------------------------------------------


  energy-cutoff  :      520.00
  volume of cell :      898.86
      direct lattice vectors                 reciprocal lattice vectors
     9.650806255  0.000000000  0.000000000     0.103618286  0.000000000  0.000000000
     0.000000000  9.650806255  0.000000000     0.000000000  0.103618286  0.000000000
     0.000000000  0.000000000  9.650806255     0.000000000  0.000000000  0.103618286

  length of vectors
     9.650806255  9.650806255  9.650806255     0.103618286  0.103618286  0.103618286


 
 k-points in units of 2pi/SCALE and weight: Automatic mesh                          
   0.02590457  0.02590457  0.02590457       0.250
  -0.02590457  0.02590457  0.02590457       0.250
  -0.02590457 -0.02590457  0.02590457       0.250
   0.02590457 -0.02590457  0.02590457       0.250
 
 k-points in reciprocal lattice and weights: Automatic mesh                          
   0.25000000  0.25000000  0.25000000       0.250
  -0.25000000  0.25000000  0.25000000       0.250
  -0.25000000 -0.25000000  0.25000000       0.250
   0.25000000 -0.25000000  0.25000000       0.250
 
 position of ions in fractional coordinates (direct lattice) 
   0.95925097  0.34447672  0.32042130
   0.99323382  0.71739571  0.71117877
   0.01875093  0.29186725  0.71555573
   0.02331378  0.82786058  0.21236637
   0.17335857  0.16544965  0.96123076
   0.21539736  0.82905151  0.01366344
   0.82918087  0.18928079  0.04329840
   0.81283170  0.77058300  0.98870539
   0.30038402  0.98560930  0.31766291
   0.34389257  0.02903764  0.67148562
   0.81675345  0.97315194  0.79915503
   0.71605802  0.01867579  0.27825344
   0.18603626  0.68433764  0.46047215
   0.22479393  0.27639161  0.51125264
   0.66987821  0.81379217  0.55055255
   0.66806758  0.19862449  0.48238393
   0.23558932  0.48149093  0.72497761
   0.30359762  0.53807588  0.15980761
   0.69747556  0.48362009  0.17846047
   0.79835410  0.51830789  0.67173248
   0.46734772  0.30550330  0.84300131
   0.48213916  0.77287820  0.30008933
   0.51421995  0.28347538  0.18637017
   0.54077970  0.66314886  0.83134709
   0.50198033  0.50137755  0.50100858
   0.50833179  0.98948934  0.99358554
   0.00809306  0.49557122  0.00813850
   0.99638434  0.00362440  0.49971417
   0.13619624  0.89042935  0.61350013
   0.10105721  0.12690021  0.36143069
   0.87097869  0.86622043  0.39724038
   0.87021586  0.12625457  0.61937149
   0.90268759  0.61346323  0.15105395
   0.87117381  0.38632539  0.88761806
   0.13427171  0.62341657  0.89280390
   0.12502180  0.35886074  0.11975729
   0.63575264  0.12165194  0.88764556
   0.62408833  0.86121402  0.11833676
   0.36962383  0.10511942  0.10757793
   0.39831605  0.87061030  0.85719009
   0.64675263  0.61257355  0.39263774
   0.60240282  0.37308276  0.63804537
   0.38736750  0.63951536  0.61502006
   0.37678810  0.39397461  0.36640386
   0.76175415  0.74172612  0.75957288
   0.74124962  0.25477167  0.25756144
   0.25161250  0.76060081  0.24303651
   0.25176199  0.24406626  0.74555834
   0.98933237  0.97982557  0.00088097
   0.02560540  0.49128732  0.54332959
   0.50791057  0.99390028  0.46910320
   0.50307726  0.48501949  0.01582804
 
 position of ions in cartesian coordinates  (Angst):
   9.25754529  3.32447805  3.09232392
   9.58550721  6.92344702  6.86344851
   0.18096156  2.81675427  6.90568969
   0.22499674  7.98952206  2.04950666
   1.67304993  1.59672256  9.27665185
   2.07875821  8.00101545  0.13186320
   8.00226389  1.82671226  0.41786445
   7.84448123  7.43674722  9.54180415
   2.89894801  9.51192440  3.06570317
   3.31884057  0.28023667  6.48037761
   7.88232931  9.39170084  7.71249036
   6.91053721  0.18023648  2.68537006
   1.79539986  6.60440996  4.44392747
   2.16944264  2.66740190  4.93400018
   6.46486477  7.85375057  5.31327600
   6.44739074  1.91688648  4.65539389
   2.27362687  4.64677571  6.99661847
   2.92996184  5.19286608  1.54227224
   6.73120149  4.66732381  1.72228743
   7.70476075  5.00208904  6.48276006
   4.51028234  2.94835320  8.13564230
   4.65303164  7.45889777  2.89610401
   4.96263708  2.73576601  1.79862237
   5.21896015  6.39992117  8.02316969
   4.84451493  4.83869755  4.83513670
   4.90581160  9.54936991  9.58890151
   0.07810458  4.78266179  0.07854313
   9.61591224  0.03497835  4.82264468
   1.31440351  8.59336112  5.92077086
   0.97528351  1.22468938  3.48809756
   8.40564655  8.35972558  3.83368995
   8.39828465  1.21845839  5.97743429
   8.71166302  5.92041474  1.45779245
   8.40752964  3.72835148  8.56622988
   1.29583028  6.01647251  8.61627743
   1.20656116  3.46329550  1.15575439
   6.13552555  1.17403929  8.56649537
   6.02295556  8.31140967  1.14204518
   3.56716794  1.01448716  1.03821376
   3.84407106  8.40209137  8.27257549
   6.24168428  5.91182869  3.78927080
   5.81367291  3.60054947  6.15765227
   3.73840871  6.17183888  5.93543948
   3.63630897  3.80217266  3.53609268
   7.35154168  7.15825504  7.33049067
   7.15365651  2.45875206  2.48567559
   2.42826352  7.34041110  2.34549825
   2.42970623  2.35543617  7.19523911
   9.54785501  9.45610673  0.00850208
   0.24711274  4.74131874  5.24356862
   4.90174655  9.59193903  4.52722411
   4.85510121  4.68082913  0.15275333
 


--------------------------------------------------------------------------------------------------------


 k-point   1 :   0.2500 0.2500 0.2500  plane waves:   24216
 k-point   2 :  -0.2500 0.2500 0.2500  plane waves:   24216
 k-point   3 :  -0.2500-0.2500 0.2500  plane waves:   24216
 k-point   4 :   0.2500-0.2500 0.2500  plane waves:   24216

 maximum and minimum number of plane-waves per node :       777      739

 maximum number of plane-waves:     24216
 maximum index in each direction: 
   IXMAX=   18   IYMAX=   18   IZMAX=   17
   IXMIN=  -18   IYMIN=  -18   IZMIN=  -18


 real space projection operators:
  total allocation   :      28439.75 KBytes
  max/ min on nodes  :       1185.62        749.36


 parallel 3D FFT for wavefunctions:
    minimum data exchange during FFTs selected (reduces bandwidth)
 parallel 3D FFT for charge:
    minimum data exchange during FFTs selected (reduces bandwidth)


 total amount of memory used by VASP MPI-rank0    48231. kBytes
=======================================================================

   base      :      30000. kBytes
   nonlr-proj:       6571. kBytes
   fftplans  :       1747. kBytes
   grid      :       5278. kBytes
   one-center:         62. kBytes
   wavefun   :       4573. kBytes
 
     INWAV:  cpu time      0.0001: real time      0.0001
 Broyden mixing: mesh for mixing (old mesh)
   NGX = 35   NGY = 35   NGZ = 35
  (NGX  =144   NGY  =144   NGZ  =144)
  gives a total of  42875 points

 initial charge density was supplied:
 charge density of overlapping atoms calculated
 number of electron     240.0000000 magnetization      52.0000000
 keeping initial charge density in first step


--------------------------------------------------------------------------------------------------------


 Maximum index for non-local projection operator          604
 Maximum index for augmentation-charges          930 (set IRDMAX)


--------------------------------------------------------------------------------------------------------


 First call to EWALD:  gamma=   0.184
 Maximum number of real-space cells 3x 3x 3
 Maximum number of reciprocal cells 3x 3x 3

    FEWALD:  cpu time      0.0031: real time      0.0036


--------------------------------------- Ionic step        1  -------------------------------------------




--------------------------------------- Iteration      1(   1)  ---------------------------------------


    POTLOK:  cpu time      0.0589: real time      0.0680
    SETDIJ:  cpu time      0.4241: real time      0.4337
     EDDAV:  cpu time      2.4298: real time      2.5563
       DOS:  cpu time      0.0027: real time      0.0037
    --------------------------------------------
      LOOP:  cpu time      2.9156: real time      3.0617

 eigenvalue-minimisations  :  3104
 total energy-change (2. order) : 0.1586829E+04  (-0.1140440E+05)
 number of electron     240.0000000 magnetization      52.0000000
 augmentation part      240.0000000 magnetization      52.0000000

 Free energy of the ion-electron system (eV)
  ---------------------------------------------------
  alpha Z        PSCENC =       302.00286287
  Ewald energy   TEWEN  =     -8844.67937866
  -Hartree energ DENC   =     -2093.27414868
  -exchange      EXHF   =         0.00000000
  -V(xc)+E(xc)   XCENC  =       534.37323042
  PAW double counting   =      8141.38806575    -8271.61346273
  entropy T*S    EENTRO =        -0.00621981
  eigenvalues    EBANDS =      -884.50160266
  atomic energy  EATOM  =     12703.13999606
  Solvation  Ediel_sol  =         0.00000000
  ---------------------------------------------------
  free energy    TOTEN  =      1586.82934255 eV

  energy without entropy =     1586.83556236  energy(sigma->0) =     1586.83245245


--------------------------------------------------------------------------------------------------------




--------------------------------------- Iteration      1(   2)  ---------------------------------------


     EDDAV:  cpu time      2.6136: real time      2.6446
       DOS:  cpu time      0.0012: real time      0.0012
    --------------------------------------------
      LOOP:  cpu time      2.6148: real time      2.6459

 eigenvalue-minimisations  :  3856
 total energy-change (2. order) :-0.1643434E+04  (-0.1544182E+04)
 number of electron     240.0000000 magnetization      52.0000000
 augmentation part      240.0000000 magnetization      52.0000000

 Free energy of the ion-electron system (eV)
  ---------------------------------------------------
  alpha Z        PSCENC =       302.00286287
  Ewald energy   TEWEN  =     -8844.67937866
  -Hartree energ DENC   =     -2093.27414868
  -exchange      EXHF   =         0.00000000
  -V(xc)+E(xc)   XCENC  =       534.37323042
  PAW double counting   =      8141.38806575    -8271.61346273
  entropy T*S    EENTRO =        -0.00000000
  eigenvalues    EBANDS =     -2527.94139339
  atomic energy  EATOM  =     12703.13999606
  Solvation  Ediel_sol  =         0.00000000
  ---------------------------------------------------
  free energy    TOTEN  =       -56.60422837 eV

  energy without entropy =      -56.60422837  energy(sigma->0) =      -56.60422837


--------------------------------------------------------------------------------------------------------




--------------------------------------- Iteration      1(   3)  ---------------------------------------


     EDDAV:  cpu time      2.5669: real time      2.5905
       DOS:  cpu time      0.0004: real time      0.0004
    --------------------------------------------
      LOOP:  cpu time      2.5672: real time      2.5909

 eigenvalue-minimisations  :  3792
 total energy-change (2. order) :-0.1719311E+03  (-0.1699995E+03)
 number of electron     240.0000000 magnetization      52.0000000
 augmentation part      240.0000000 magnetization      52.0000000

 Free energy of the ion-electron system (eV)
  ---------------------------------------------------
  alpha Z        PSCENC =       302.00286287
  Ewald energy   TEWEN  =     -8844.67937866
  -Hartree energ DENC   =     -2093.27414868
  -exchange      EXHF   =         0.00000000
  -V(xc)+E(xc)   XCENC  =       534.37323042
  PAW double counting   =      8141.38806575    -8271.61346273
  entropy T*S    EENTRO =        -0.00000000
  eigenvalues    EBANDS =     -2699.87252205
  atomic energy  EATOM  =     12703.13999606
  Solvation  Ediel_sol  =         0.00000000
  ---------------------------------------------------
  free energy    TOTEN  =      -228.53535704 eV

  energy without entropy =     -228.53535704  energy(sigma->0) =     -228.53535704


--------------------------------------------------------------------------------------------------------




--------------------------------------- Iteration      1(   4)  ---------------------------------------


     EDDAV:  cpu time      3.1809: real time      3.2184
       DOS:  cpu time      0.0005: real time      0.0005
    --------------------------------------------
      LOOP:  cpu time      3.1815: real time      3.2189

 eigenvalue-minimisations  :  4704
 total energy-change (2. order) :-0.1323736E+02  (-0.1321346E+02)
 number of electron     240.0000000 magnetization      52.0000000
 augmentation part      240.0000000 magnetization      52.0000000

 Free energy of the ion-electron system (eV)
  ---------------------------------------------------
  alpha Z        PSCENC =       302.00286287
  Ewald energy   TEWEN  =     -8844.67937866
  -Hartree energ DENC   =     -2093.27414868
  -exchange      EXHF   =         0.00000000
  -V(xc)+E(xc)   XCENC  =       534.37323042
  PAW double counting   =      8141.38806575    -8271.61346273
  entropy T*S    EENTRO =        -0.00000000
  eigenvalues    EBANDS =     -2713.10987834
  atomic energy  EATOM  =     12703.13999606
  Solvation  Ediel_sol  =         0.00000000
  ---------------------------------------------------
  free energy    TOTEN  =      -241.77271332 eV

  energy without entropy =     -241.77271332  energy(sigma->0) =     -241.77271332


--------------------------------------------------------------------------------------------------------




--------------------------------------- Iteration      1(   5)  ---------------------------------------


     EDDAV:  cpu time      2.9113: real time      2.9382
       DOS:  cpu time      0.0004: real time      0.0004
    --------------------------------------------
      LOOP:  cpu time      2.9117: real time      2.9386

 eigenvalue-minimisations  :  4432
 total energy-change (2. order) :-0.2360510E+00  (-0.2359424E+00)
 number of electron     240.0000000 magnetization      52.0000000
 augmentation part      240.0000000 magnetization      52.0000000

 Free energy of the ion-electron system (eV)
  ---------------------------------------------------
  alpha Z        PSCENC =       302.00286287
  Ewald energy   TEWEN  =     -8844.67937866
  -Hartree energ DENC   =     -2093.27414868
  -exchange      EXHF   =         0.00000000
  -V(xc)+E(xc)   XCENC  =       534.37323042
  PAW double counting   =      8141.38806575    -8271.61346273
  entropy T*S    EENTRO =        -0.00000000
  eigenvalues    EBANDS =     -2713.34592932
  atomic energy  EATOM  =     12703.13999606
  Solvation  Ediel_sol  =         0.00000000
  ---------------------------------------------------
  free energy    TOTEN  =      -242.00876430 eV

  energy without entropy =     -242.00876430  energy(sigma->0) =     -242.00876430


--------------------------------------------------------------------------------------------------------




--------------------------------------- Iteration      1(   6)  ---------------------------------------


     EDDAV:  cpu time      3.0129: real time      3.0385
       DOS:  cpu time      0.0004: real time      0.0004
    --------------------------------------------
      LOOP:  cpu time      3.0133: real time      3.0388

 eigenvalue-minimisations  :  4632
 total energy-change (2. order) :-0.1234482E-01  (-0.1234376E-01)
 number of electron     240.0000000 magnetization      52.0000000
 augmentation part      240.0000000 magnetization      52.0000000

 Free energy of the ion-electron system (eV)
  ---------------------------------------------------
  alpha Z        PSCENC =       302.00286287
  Ewald energy   TEWEN  =     -8844.67937866
  -Hartree energ DENC   =     -2093.27414868
  -exchange      EXHF   =         0.00000000
  -V(xc)+E(xc)   XCENC  =       534.37323042
  PAW double counting   =      8141.38806575    -8271.61346273
  entropy T*S    EENTRO =        -0.00000000
  eigenvalues    EBANDS =     -2713.35827414
  atomic energy  EATOM  =     12703.13999606
  Solvation  Ediel_sol  =         0.00000000
  ---------------------------------------------------
  free energy    TOTEN  =      -242.02110912 eV

  energy without entropy =     -242.02110912  energy(sigma->0) =     -242.02110912


--------------------------------------------------------------------------------------------------------




--------------------------------------- Iteration      1(   7)  ---------------------------------------


     EDDAV:  cpu time      3.1373: real time      3.2337
       DOS:  cpu time      0.0004: real time      0.0004
    --------------------------------------------
      LOOP:  cpu time      3.1377: real time      3.2341

 eigenvalue-minimisations  :  4544
 total energy-change (2. order) :-0.3833633E-03  (-0.3833431E-03)
 number of electron     240.0000000 magnetization      52.0000000
 augmentation part      240.0000000 magnetization      52.0000000

 Free energy of the ion-electron system (eV)
  ---------------------------------------------------
  alpha Z        PSCENC =       302.00286287
  Ewald energy   TEWEN  =     -8844.67937866
  -Hartree energ DENC   =     -2093.27414868
  -exchange      EXHF   =         0.00000000
  -V(xc)+E(xc)   XCENC  =       534.37323042
  PAW double counting   =      8141.38806575    -8271.61346273
  entropy T*S    EENTRO =        -0.00000000
  eigenvalues    EBANDS =     -2713.35865750
  atomic energy  EATOM  =     12703.13999606
  Solvation  Ediel_sol  =         0.00000000
  ---------------------------------------------------
  free energy    TOTEN  =      -242.02149248 eV

  energy without entropy =     -242.02149248  energy(sigma->0) =     -242.02149248


--------------------------------------------------------------------------------------------------------




--------------------------------------- Iteration      1(   8)  ---------------------------------------


     EDDAV:  cpu time      2.9745: real time      2.9986
       DOS:  cpu time      0.0004: real time      0.0004
    --------------------------------------------
      LOOP:  cpu time      2.9750: real time      2.9990

 eigenvalue-minimisations  :  4560
 total energy-change (2. order) :-0.2195931E-04  (-0.2195900E-04)
 number of electron     240.0000000 magnetization      52.0000000
 augmentation part      240.0000000 magnetization      52.0000000

 Free energy of the ion-electron system (eV)
  ---------------------------------------------------
  alpha Z        PSCENC =       302.00286287
  Ewald energy   TEWEN  =     -8844.67937866
  -Hartree energ DENC   =     -2093.27414868
  -exchange      EXHF   =         0.00000000
  -V(xc)+E(xc)   XCENC  =       534.37323042
  PAW double counting   =      8141.38806575    -8271.61346273
  entropy T*S    EENTRO =        -0.00000000
  eigenvalues    EBANDS =     -2713.35867946
  atomic energy  EATOM  =     12703.13999606
  Solvation  Ediel_sol  =         0.00000000
  ---------------------------------------------------
  free energy    TOTEN  =      -242.02151444 eV

  energy without entropy =     -242.02151444  energy(sigma->0) =     -242.02151444


--------------------------------------------------------------------------------------------------------




--------------------------------------- Iteration      1(   9)  ---------------------------------------


     EDDAV:  cpu time      2.9092: real time      2.9334
       DOS:  cpu time      0.0004: real time      0.0004
    --------------------------------------------
      LOOP:  cpu time      2.9096: real time      2.9338

 eigenvalue-minimisations  :  4448
 total energy-change (2. order) :-0.1400780E-05  (-0.1400726E-05)
 number of electron     240.0000000 magnetization      52.0000000
 augmentation part      240.0000000 magnetization      52.0000000

 Free energy of the ion-electron system (eV)
  ---------------------------------------------------
  alpha Z        PSCENC =       302.00286287
  Ewald energy   TEWEN  =     -8844.67937866
  -Hartree energ DENC   =     -2093.27414868
  -exchange      EXHF   =         0.00000000
  -V(xc)+E(xc)   XCENC  =       534.37323042
  PAW double counting   =      8141.38806575    -8271.61346273
  entropy T*S    EENTRO =        -0.00000000
  eigenvalues    EBANDS =     -2713.35868086
  atomic energy  EATOM  =     12703.13999606
  Solvation  Ediel_sol  =         0.00000000
  ---------------------------------------------------
  free energy    TOTEN  =      -242.02151584 eV

  energy without entropy =     -242.02151584  energy(sigma->0) =     -242.02151584


--------------------------------------------------------------------------------------------------------




--------------------------------------- Iteration      1(  10)  ---------------------------------------


     EDDAV:  cpu time      2.0498: real time      2.0768
       DOS:  cpu time      0.0004: real time      0.0004
    CHARGE:  cpu time      0.0653: real time      0.0724
    MIXING:  cpu time      0.0021: real time      0.0040
    --------------------------------------------
      LOOP:  cpu time      2.1176: real time      2.1536

 eigenvalue-minimisations  :  2640
 total energy-change (2. order) :-0.6185110E-07  (-0.6178046E-07)
 number of electron     240.0000006 magnetization      27.2323062
 augmentation part        1.4933252 magnetization      27.6746829

 Broyden mixing:
  rms(total) = 0.64290E+01    rms(broyden)= 0.64284E+01
  rms(prec ) = 0.66695E+01
  weight for this iteration     100.00

 Free energy of the ion-electron system (eV)
  ---------------------------------------------------
  alpha Z        PSCENC =       302.00286287
  Ewald energy   TEWEN  =     -8844.67937866
  -Hartree energ DENC   =     -2093.27414868
  -exchange      EXHF   =         0.00000000
  -V(xc)+E(xc)   XCENC  =       534.37323042
  PAW double counting   =      8141.38806575    -8271.61346273
  entropy T*S    EENTRO =        -0.00000000
  eigenvalues    EBANDS =     -2713.35868093
  atomic energy  EATOM  =     12703.13999606
  Solvation  Ediel_sol  =         0.00000000
  ---------------------------------------------------
  free energy    TOTEN  =      -242.02151591 eV

  energy without entropy =     -242.02151591  energy(sigma->0) =     -242.02151591


--------------------------------------------------------------------------------------------------------




--------------------------------------- Iteration      1(  11)  ---------------------------------------


    POTLOK:  cpu time      0.0535: real time      0.0547
    SETDIJ:  cpu time      0.3924: real time      0.3954
    EDDIAG:  cpu time      0.3629: real time      0.3659
  RMM-DIIS:  cpu time      1.1494: real time      1.1593
    ORTHCH:  cpu time      0.0672: real time      0.0680
       DOS:  cpu time      0.0005: real time      0.0005
    CHARGE:  cpu time      0.0630: real time      0.0666
    MIXING:  cpu time      0.0012: real time      0.0033
    --------------------------------------------
      LOOP:  cpu time      2.0900: real time      2.1136

 eigenvalue-minimisations  :  2816
 total energy-change (2. order) : 0.5683736E+01  (-0.4695037E+01)
 number of electron     240.0000006 magnetization      16.2907042
 augmentation part        1.7039482 magnetization      16.4740314

 Broyden mixing:
  rms(total) = 0.33038E+01    rms(broyden)= 0.33036E+01
  rms(prec ) = 0.34190E+01
  weight for this iteration     100.00

 eigenvalues of (default mixing * dielectric matrix)
  average eigenvalue GAMMA=   0.7254
  0.7254

 Free energy of the ion-electron system (eV)
  ---------------------------------------------------
  alpha Z        PSCENC =       302.00286287
  Ewald energy   TEWEN  =     -8844.67937866
  -Hartree energ DENC   =     -2140.72647968
  -exchange      EXHF   =         0.00000000
  -V(xc)+E(xc)   XCENC  =       542.60743466
  PAW double counting   =      8926.95434615    -9063.24630181
  entropy T*S    EENTRO =        -0.00000000
  eigenvalues    EBANDS =     -2662.39025967
  atomic energy  EATOM  =     12703.13999606
  Solvation  Ediel_sol  =         0.00000000
  ---------------------------------------------------
  free energy    TOTEN  =      -236.33778008 eV

  energy without entropy =     -236.33778008  energy(sigma->0) =     -236.33778008


--------------------------------------------------------------------------------------------------------




--------------------------------------- Iteration      1(  12)  ---------------------------------------


    POTLOK:  cpu time      0.0528: real time      0.0540
    SETDIJ:  cpu time      0.3953: real time      0.3975
    EDDIAG:  cpu time      0.3532: real time      0.3553
  RMM-DIIS:  cpu time      1.2035: real time      1.2139
    ORTHCH:  cpu time      0.0662: real time      0.0666
       DOS:  cpu time      0.0005: real time      0.0005
    CHARGE:  cpu time      0.0642: real time      0.0661
    MIXING:  cpu time      0.0010: real time      0.0010
    --------------------------------------------
      LOOP:  cpu time      2.1366: real time      2.1548

 eigenvalue-minimisations  :  2951
 total energy-change (2. order) :-0.1969246E+02  (-0.2138251E+01)
 number of electron     240.0000006 magnetization       0.5475950
 augmentation part        1.8019744 magnetization       0.8887672

 Broyden mixing:
  rms(total) = 0.20288E+01    rms(broyden)= 0.20288E+01
  rms(prec ) = 0.20896E+01
  weight for this iteration     100.00

 eigenvalues of (default mixing * dielectric matrix)
  average eigenvalue GAMMA=   1.1490
  1.6277  0.6703

 Free energy of the ion-electron system (eV)
  ---------------------------------------------------
  alpha Z        PSCENC =       302.00286287
  Ewald energy   TEWEN  =     -8844.67937866
  -Hartree energ DENC   =     -2164.50459961
  -exchange      EXHF   =         0.00000000
  -V(xc)+E(xc)   XCENC  =       536.25052896
  PAW double counting   =      9280.05348171    -9419.94238250
  entropy T*S    EENTRO =        -0.00000000
  eigenvalues    EBANDS =     -2648.35074571
  atomic energy  EATOM  =     12703.13999606
  Solvation  Ediel_sol  =         0.00000000
  ---------------------------------------------------
  free energy    TOTEN  =      -256.03023689 eV

  energy without entropy =     -256.03023689  energy(sigma->0) =     -256.03023689


--------------------------------------------------------------------------------------------------------




--------------------------------------- Iteration      1(  13)  ---------------------------------------


    POTLOK:  cpu time      0.0524: real time      0.0537
    SETDIJ:  cpu time      0.3959: real time      0.3977
    EDDIAG:  cpu time      0.3528: real time      0.3557
  RMM-DIIS:  cpu time      1.1879: real time      1.1989
    ORTHCH:  cpu time      0.0666: real time      0.0671
       DOS:  cpu time      0.0004: real time      0.0004
    CHARGE:  cpu time      0.0639: real time      0.0656
    MIXING:  cpu time      0.0010: real time      0.0010
    --------------------------------------------
      LOOP:  cpu time      2.1210: real time      2.1401

 eigenvalue-minimisations  :  2900
 total energy-change (2. order) :-0.2491161E+01  (-0.8868856E+00)
 number of electron     240.0000006 magnetization      -1.8656067
 augmentation part        1.9014840 magnetization      -1.7611509

 Broyden mixing:
  rms(total) = 0.67441E+00    rms(broyden)= 0.67441E+00
  rms(prec ) = 0.70643E+00
  weight for this iteration     100.00

 eigenvalues of (default mixing * dielectric matrix)
  average eigenvalue GAMMA=   1.3014
  2.5058  0.7461  0.6522

 Free energy of the ion-electron system (eV)
  ---------------------------------------------------
  alpha Z        PSCENC =       302.00286287
  Ewald energy   TEWEN  =     -8844.67937866
  -Hartree energ DENC   =     -2191.60602454
  -exchange      EXHF   =         0.00000000
  -V(xc)+E(xc)   XCENC  =       537.78937325
  PAW double counting   =      9779.85834720    -9923.68436869
  entropy T*S    EENTRO =        -0.00000000
  eigenvalues    EBANDS =     -2621.34220521
  atomic energy  EATOM  =     12703.13999606
  Solvation  Ediel_sol  =         0.00000000
  ---------------------------------------------------
  free energy    TOTEN  =      -258.52139773 eV

  energy without entropy =     -258.52139773  energy(sigma->0) =     -258.52139773


--------------------------------------------------------------------------------------------------------




--------------------------------------- Iteration      1(  14)  ---------------------------------------


    POTLOK:  cpu time      0.0521: real time      0.0533
    SETDIJ:  cpu time      0.3943: real time      0.3957
    EDDIAG:  cpu time      0.3519: real time      0.3540
  RMM-DIIS:  cpu time      1.5485: real time      1.5621
    ORTHCH:  cpu time      0.0666: real time      0.0671
       DOS:  cpu time      0.0005: real time      0.0005
    CHARGE:  cpu time      0.0640: real time      0.0654
    MIXING:  cpu time      0.0011: real time      0.0011
    --------------------------------------------
      LOOP:  cpu time      2.4790: real time      2.4990

 eigenvalue-minimisations  :  3762
 total energy-change (2. order) :-0.1969855E+00  (-0.1969288E+00)
 number of electron     240.0000006 magnetization      -0.8418185
 augmentation part        1.8719265 magnetization      -0.8153973

 Broyden mixing:
  rms(total) = 0.32224E+00    rms(broyden)= 0.32224E+00
  rms(prec ) = 0.35735E+00
  weight for this iteration     100.00

 eigenvalues of (default mixing * dielectric matrix)
  average eigenvalue GAMMA=   1.2664
  2.6101  1.1736  0.6899  0.5918

 Free energy of the ion-electron system (eV)
  ---------------------------------------------------
  alpha Z        PSCENC =       302.00286287
  Ewald energy   TEWEN  =     -8844.67937866
  -Hartree energ DENC   =     -2193.01619899
  -exchange      EXHF   =         0.00000000
  -V(xc)+E(xc)   XCENC  =       538.24210608
  PAW double counting   =      9857.91659004   -10002.54898044
  entropy T*S    EENTRO =        -0.00000000
  eigenvalues    EBANDS =     -2619.77538019
  atomic energy  EATOM  =     12703.13999606
  Solvation  Ediel_sol  =         0.00000000
  ---------------------------------------------------
  free energy    TOTEN  =      -258.71838323 eV

  energy without entropy =     -258.71838323  energy(sigma->0) =     -258.71838323


--------------------------------------------------------------------------------------------------------




--------------------------------------- Iteration      1(  15)  ---------------------------------------


    POTLOK:  cpu time      0.0521: real time      0.0533
    SETDIJ:  cpu time      0.3927: real time      0.3944
    EDDIAG:  cpu time      0.3528: real time      0.3550
  RMM-DIIS:  cpu time      1.2623: real time      1.2735
    ORTHCH:  cpu time      0.0661: real time      0.0671
       DOS:  cpu time      0.0005: real time      0.0005
    CHARGE:  cpu time      0.0644: real time      0.0651
    MIXING:  cpu time      0.0011: real time      0.0011
    --------------------------------------------
      LOOP:  cpu time      2.1921: real time      2.2099

 eigenvalue-minimisations  :  3064
 total energy-change (2. order) : 0.2822230E-01  (-0.3288142E-01)
 number of electron     240.0000006 magnetization      -0.2258064
 augmentation part        1.8234595 magnetization      -0.1995321

 Broyden mixing:
  rms(total) = 0.69465E-01    rms(broyden)= 0.69462E-01
  rms(prec ) = 0.81921E-01
  weight for this iteration     100.00

 eigenvalues of (default mixing * dielectric matrix)
  average eigenvalue GAMMA=   1.2702
  2.5333  1.5815  0.9498  0.6851  0.6011

 Free energy of the ion-electron system (eV)
  ---------------------------------------------------
  alpha Z        PSCENC =       302.00286287
  Ewald energy   TEWEN  =     -8844.67937866
  -Hartree energ DENC   =     -2188.46243802
  -exchange      EXHF   =         0.00000000
  -V(xc)+E(xc)   XCENC  =       537.88513425
  PAW double counting   =      9829.12147717    -9973.56611185
  entropy T*S    EENTRO =        -0.00000000
  eigenvalues    EBANDS =     -2624.13170274
  atomic energy  EATOM  =     12703.13999606
  Solvation  Ediel_sol  =         0.00000000
  ---------------------------------------------------
  free energy    TOTEN  =      -258.69016093 eV

  energy without entropy =     -258.69016093  energy(sigma->0) =     -258.69016093


--------------------------------------------------------------------------------------------------------




--------------------------------------- Iteration      1(  16)  ---------------------------------------


    POTLOK:  cpu time      0.0526: real time      0.0537
    SETDIJ:  cpu time      0.3937: real time      0.3950
    EDDIAG:  cpu time      0.3522: real time      0.3541
  RMM-DIIS:  cpu time      1.2600: real time      1.2723
    ORTHCH:  cpu time      0.0669: real time      0.0683
       DOS:  cpu time      0.0005: real time      0.0005
    CHARGE:  cpu time      0.0637: real time      0.0648
    MIXING:  cpu time      0.0012: real time      0.0012
    --------------------------------------------
      LOOP:  cpu time      2.1908: real time      2.2100

 eigenvalue-minimisations  :  3076
 total energy-change (2. order) :-0.1908131E-01  (-0.1021868E-01)
 number of electron     240.0000006 magnetization      -0.1059178
 augmentation part        1.8013916 magnetization      -0.0917369

 Broyden mixing:
  rms(total) = 0.31276E-01    rms(broyden)= 0.31273E-01
  rms(prec ) = 0.37519E-01
  weight for this iteration     100.00

 eigenvalues of (default mixing * dielectric matrix)
  average eigenvalue GAMMA=   1.2506
  2.4494  1.9507  1.0427  0.6206  0.6994  0.7408

 Free energy of the ion-electron system (eV)
  ---------------------------------------------------
  alpha Z        PSCENC =       302.00286287
  Ewald energy   TEWEN  =     -8844.67937866
  -Hartree energ DENC   =     -2187.91205570
  -exchange      EXHF   =         0.00000000
  -V(xc)+E(xc)   XCENC  =       537.80422294
  PAW double counting   =      9818.00347611    -9962.22372863
  entropy T*S    EENTRO =        -0.00000000
  eigenvalues    EBANDS =     -2624.84463722
  atomic energy  EATOM  =     12703.13999606
[...]
 -0.005   0.004   0.000   0.000   0.003   0.000   0.000   0.000   0.000  -0.000   0.000  -0.000   0.000  -0.000
 -0.003   0.002   0.000   0.000   0.000   0.005   0.000   0.000   0.000  -0.000  -0.000   0.000  -0.000  -0.000
  0.008  -0.009  -0.000   0.001  -0.002  -0.007   0.000  -0.000  -0.000   0.000   0.000   0.000   0.000   0.000
  0.004  -0.004  -0.000   0.001   0.001  -0.002   0.000   0.000  -0.000   0.000   0.000   0.000   0.000   0.000
 -0.008   0.008   0.000   0.004  -0.001   0.004   0.000  -0.000   0.000   0.000   0.000   0.000  -0.000  -0.000
  0.004  -0.004  -0.000  -0.002   0.003  -0.006  -0.000   0.000  -0.000   0.000   0.000  -0.000   0.000  -0.000
  0.018  -0.018  -0.000   0.000  -0.004  -0.005  -0.000  -0.000  -0.000   0.000   0.000  -0.000  -0.000   0.000
 total augmentation occupancy for first ion, spin component:           2
 -0.000   0.000   0.000   0.000   0.000  -0.000   0.000  -0.000   0.000   0.000   0.000  -0.000   0.000   0.000
  0.000  -0.000  -0.000  -0.000  -0.000   0.000  -0.000   0.000  -0.000  -0.000  -0.000   0.000  -0.000  -0.000
  0.000  -0.000  -0.000  -0.000  -0.000  -0.000  -0.000   0.000  -0.000   0.000  -0.000  -0.000   0.000   0.000
  0.000  -0.000  -0.000  -0.000   0.000   0.000  -0.000   0.000  -0.000   0.000   0.000   0.000  -0.000  -0.000
  0.000  -0.000  -0.000   0.000  -0.000   0.000  -0.000  -0.000  -0.000  -0.000   0.000   0.000   0.000  -0.000
 -0.000   0.000  -0.000   0.000   0.000  -0.000  -0.000   0.000  -0.000  -0.000   0.000  -0.000   0.000  -0.000
  0.000  -0.000  -0.000  -0.000  -0.000  -0.000  -0.000   0.000  -0.000   0.000   0.000  -0.000   0.000   0.000
 -0.000   0.000   0.000   0.000  -0.000   0.000   0.000  -0.000   0.000  -0.000  -0.000   0.000  -0.000  -0.000
  0.000  -0.000  -0.000  -0.000  -0.000  -0.000  -0.000   0.000  -0.000   0.000   0.000  -0.000   0.000   0.000
  0.000  -0.000   0.000   0.000  -0.000  -0.000   0.000  -0.000   0.000   0.000  -0.000   0.000   0.000   0.000
  0.000  -0.000  -0.000   0.000   0.000   0.000   0.000  -0.000   0.000  -0.000  -0.000  -0.000   0.000   0.000
 -0.000   0.000  -0.000   0.000   0.000  -0.000  -0.000   0.000  -0.000   0.000  -0.000  -0.000  -0.000  -0.000
  0.000  -0.000   0.000  -0.000   0.000   0.000   0.000  -0.000   0.000   0.000   0.000  -0.000   0.000   0.000
  0.000  -0.000   0.000  -0.000  -0.000  -0.000   0.000  -0.000   0.000   0.000   0.000  -0.000   0.000   0.000


------------------------ aborting loop because EDIFF is reached ----------------------------------------


    CHARGE:  cpu time      0.0642: real time      0.0651
    FORLOC:  cpu time      0.0038: real time      0.0038
    FORNL :  cpu time      0.3942: real time      0.3971
    STRESS:  cpu time      1.1759: real time      1.1839
    FORCOR:  cpu time      0.0494: real time      0.0498
    FORHAR:  cpu time      0.0083: real time      0.0084
    MIXING:  cpu time      0.0007: real time      0.0007
    OFIELD:  cpu time      0.0000: real time      0.0000

 ---------------------------------------------------------------------------------------------

         DFTD3 V3.0 Rev 1        
 Edisp (eV)  -13.62036

 E6    (eV) :    -8.3924
 E8    (eV) :    -5.2280
 % E8        : 38.38
    FORVDW:  cpu time      0.2848: real time      0.2869

  FORCE on cell =-STRESS in cart. coord.  units (eV):
  Direction    XX          YY          ZZ          XY          YZ          ZX
  --------------------------------------------------------------------------------------
  Alpha Z   302.00286   302.00286   302.00286
  Ewald   -2929.96733 -2927.39414 -2987.36000    30.38139    -9.83621   -23.25065
  Hartree   740.72506   740.48471   709.24993    11.51741    -2.77741   -12.89768
  E(xc)    -947.75064  -947.72867  -947.84339     0.07386    -0.04954    -0.02321
  Local   -1518.68225 -1519.61045 -1434.58877   -39.51880    11.54649    36.33763
  n-local  1481.66732  1481.16597  1482.05012     0.48760    -0.11661    -0.38517
  augment  -356.83421  -356.74018  -357.15000     0.06228    -0.11621     0.14515
  Kinetic  3243.25493  3241.71663  3248.50445    -1.99283     2.01318    -1.70588
  Fock        0.00000     0.00000     0.00000     0.00000     0.00000     0.00000
  vdW       -14.40752   -14.37151   -14.40703    -0.01540    -0.01418     0.01225
  -------------------------------------------------------------------------------------
  Total       0.00822    -0.47479     0.45817     0.99550     0.64952    -1.76755
  in kB       0.01466    -0.84629     0.81668     1.77444     1.15775    -3.15060
  external pressure =       -0.00 kB  Pullay stress =        0.00 kB


 VOLUME and BASIS-vectors are now :
 -----------------------------------------------------------------------------
  energy-cutoff  :      520.00
  volume of cell :      898.86
      direct lattice vectors                 reciprocal lattice vectors
     9.650806255  0.000000000  0.000000000     0.103618286  0.000000000  0.000000000
     0.000000000  9.650806255  0.000000000     0.000000000  0.103618286  0.000000000
     0.000000000  0.000000000  9.650806255     0.000000000  0.000000000  0.103618286

  length of vectors
     9.650806255  9.650806255  9.650806255     0.103618286  0.103618286  0.103618286


 FORCES acting on ions
    electron-ion (+dipol)            ewald-force                    non-local-force                 convergence-correction
 -----------------------------------------------------------------------------------------------
   -.339E-01 -.156E+02 -.132E+02   -.106E+01 0.140E+02 0.118E+02   0.110E+01 0.159E+01 0.134E+01   0.416E-04 -.289E-05 0.153E-04
   -.382E+01 -.284E+01 0.675E+01   0.279E+01 0.379E+01 -.568E+01   0.103E+01 -.961E+00 -.107E+01   -.320E-04 0.358E-04 0.198E-04
   0.530E+01 0.853E+01 -.254E+01   -.477E+01 -.944E+01 0.319E+01   -.523E+00 0.911E+00 -.654E+00   0.206E-04 0.237E-04 0.369E-05
   0.248E+01 -.520E+01 0.210E+00   -.163E+01 0.400E+01 0.101E+01   -.846E+00 0.121E+01 -.122E+01   -.434E-04 0.655E-05 0.264E-04
   0.946E+01 0.935E+01 0.311E+01   -.810E+01 -.804E+01 -.378E+01   -.136E+01 -.131E+01 0.662E+00   0.205E-05 0.216E-04 -.740E-05
   0.377E+01 -.765E+01 0.905E+01   -.242E+01 0.630E+01 -.832E+01   -.135E+01 0.136E+01 -.724E+00   -.903E-05 0.311E-05 0.387E-05
   -.123E+02 0.553E+01 -.161E+00   0.107E+02 -.438E+01 0.120E+01   0.162E+01 -.115E+01 -.104E+01   -.205E-04 -.349E-04 0.198E-04
   0.154E+01 0.190E+01 -.204E+01   -.258E+01 -.288E+01 0.123E+01   0.105E+01 0.985E+00 0.805E+00   0.125E-04 0.191E-04 0.835E-05
   -.135E+01 -.109E+02 -.104E+02   0.437E+00 0.986E+01 0.909E+01   0.905E+00 0.101E+01 0.135E+01   0.373E-04 -.303E-04 0.135E-04
   -.117E+02 -.351E+01 0.654E+01   0.104E+02 0.393E+01 -.526E+01   0.125E+01 -.414E+00 -.128E+01   0.158E-04 -.705E-05 -.947E-05
   -.389E+01 -.478E+01 0.184E+01   0.288E+01 0.424E+01 -.306E+01   0.101E+01 0.535E+00 0.122E+01   0.926E-05 -.541E-05 0.157E-04
   -.389E+01 -.267E+01 0.146E+01   0.449E+01 0.330E+01 -.221E+01   -.601E+00 -.629E+00 0.764E+00   0.554E-04 0.767E-05 -.379E-04
   0.121E+02 0.880E+01 0.513E+01   -.108E+02 -.743E+01 -.634E+01   -.126E+01 -.137E+01 0.121E+01   0.191E-04 -.133E-05 -.464E-04
   -.552E+01 0.415E+01 0.761E+01   0.622E+01 -.472E+01 -.701E+01   -.705E+00 0.576E+00 -.591E+00   -.627E-04 0.103E-04 0.684E-05
   0.806E+01 -.870E+01 -.954E+01   -.671E+01 0.762E+01 0.105E+02   -.135E+01 0.108E+01 -.951E+00   -.120E-04 0.438E-05 -.109E-04
   0.705E+01 0.120E+01 -.856E+01   -.613E+01 0.112E+00 0.799E+01   -.916E+00 -.131E+01 0.570E+00   -.186E-05 0.228E-04 0.450E-04
   -.948E+01 -.200E+01 -.656E+01   0.997E+01 0.137E+01 0.717E+01   -.492E+00 0.620E+00 -.612E+00   0.458E-04 -.471E-04 -.296E-04
   -.734E+00 -.174E+01 0.318E+01   0.247E+00 0.251E+01 -.229E+01   0.486E+00 -.765E+00 -.894E+00   -.159E-04 -.168E-04 0.376E-05
   0.136E+01 -.697E+01 0.581E+01   -.331E+00 0.627E+01 -.480E+01   -.102E+01 0.689E+00 -.100E+01   0.173E-04 -.130E-05 -.843E-05
   -.896E+00 0.574E+01 0.112E+02   -.320E+00 -.488E+01 -.100E+02   0.121E+01 -.865E+00 -.122E+01   0.962E-05 -.165E-04 -.478E-05
   0.118E+01 -.311E+01 -.168E+01   -.171E+01 0.254E+01 0.564E+00   0.531E+00 0.572E+00 0.112E+01   -.997E-05 0.435E-05 0.162E-04
   0.454E+00 0.447E+01 -.999E+00   -.127E+01 -.508E+01 -.135E+00   0.810E+00 0.610E+00 0.114E+01   -.179E-04 0.279E-04 0.474E-04
   0.632E+01 0.197E+01 0.185E+00   -.541E+01 -.286E+01 0.738E+00   -.904E+00 0.894E+00 -.927E+00   0.325E-04 0.116E-04 -.144E-04
   0.247E+01 0.112E+02 -.857E+01   -.158E+01 -.973E+01 0.778E+01   -.888E+00 -.151E+01 0.779E+00   -.162E-04 -.122E-04 -.361E-05
   -.461E+00 0.110E+02 0.117E+01   0.604E+00 -.107E+02 -.114E+01   -.139E+00 -.309E+00 -.280E-01   -.223E-04 -.361E-04 -.680E-05
   0.730E+00 0.499E+00 0.599E+01   -.755E+00 -.642E+00 -.659E+01   0.207E-01 0.145E+00 0.597E+00   0.428E-04 0.212E-04 0.522E-04
   -.581E+00 0.199E+01 0.562E+00   0.619E+00 -.240E+01 -.147E+00   -.394E-01 0.411E+00 -.406E+00   -.363E-06 0.672E-05 -.347E-04
   -.447E+01 -.339E+01 -.587E+01   0.439E+01 0.332E+01 0.568E+01   0.811E-01 0.686E-01 0.192E+00   0.502E-05 0.253E-04 0.206E-04
   -.486E+02 0.202E+02 -.479E+02   0.525E+02 -.225E+02 0.510E+02   -.388E+01 0.229E+01 -.313E+01   -.254E-04 0.297E-04 -.165E-04
   -.251E+02 -.376E+02 0.570E+02   0.267E+02 0.403E+02 -.615E+02   -.160E+01 -.273E+01 0.451E+01   -.233E-04 0.337E-04 0.271E-04
   0.287E+02 0.596E+02 0.230E+02   -.312E+02 -.638E+02 -.249E+02   0.251E+01 0.422E+01 0.185E+01   -.203E-04 -.141E-04 -.802E-04
   0.430E+02 -.412E+02 -.347E+02   -.464E+02 0.442E+02 0.375E+02   0.347E+01 -.297E+01 -.280E+01   0.591E-04 -.142E-04 0.336E-04
   0.248E+02 -.222E+02 -.683E+02   -.269E+02 0.243E+02 0.728E+02   0.206E+01 -.210E+01 -.448E+01   0.301E-04 0.727E-04 0.751E-05
   0.619E+02 0.316E+02 0.290E+02   -.663E+02 -.342E+02 -.312E+02   0.442E+01 0.253E+01 0.222E+01   0.398E-04 -.832E-04 0.198E-04
   -.513E+02 -.398E+02 0.237E+02   0.552E+02 0.431E+02 -.261E+02   -.390E+01 -.324E+01 0.246E+01   -.396E-04 -.878E-04 -.135E-04
   -.409E+02 0.481E+02 -.407E+02   0.435E+02 -.512E+02 0.434E+02   -.257E+01 0.314E+01 -.279E+01   0.108E-04 -.388E-04 -.234E-04
   -.301E+02 -.443E+02 0.526E+02   0.327E+02 0.477E+02 -.556E+02   -.259E+01 -.341E+01 0.305E+01   0.443E-04 0.539E-04 0.412E-04
   -.281E+02 0.526E+02 -.242E+02   0.309E+02 -.564E+02 0.271E+02   -.285E+01 0.381E+01 -.296E+01   0.675E-04 0.844E-04 -.419E-04
   0.491E+02 -.387E+02 -.320E+02   -.527E+02 0.418E+02 0.346E+02   0.362E+01 -.314E+01 -.257E+01   0.232E-04 -.117E-05 -.557E-05
   0.323E+02 0.354E+02 0.540E+02   -.346E+02 -.384E+02 -.575E+02   0.229E+01 0.302E+01 0.348E+01   0.103E-04 0.199E-04 0.966E-05
   -.683E+02 -.171E+02 0.311E+02   0.727E+02 0.191E+02 -.331E+02   -.441E+01 -.207E+01 0.207E+01   0.156E-04 0.192E-04 -.169E-04
   -.271E+02 0.491E+02 -.457E+02   0.294E+02 -.524E+02 0.491E+02   -.236E+01 0.330E+01 -.343E+01   -.468E-04 0.403E-05 0.233E-04
   0.270E+02 -.583E+02 -.371E+02   -.288E+02 0.625E+02 0.395E+02   0.180E+01 -.414E+01 -.241E+01   -.538E-04 -.118E-04 -.117E-04
   0.420E+02 0.390E+02 0.357E+02   -.457E+02 -.415E+02 -.390E+02   0.373E+01 0.249E+01 0.330E+01   -.280E-04 0.415E-04 0.441E-04
   0.154E+02 0.256E+01 0.331E+01   -.157E+02 -.265E+01 -.335E+01   0.387E+00 0.903E-01 0.336E-01   0.739E-04 0.614E-04 0.279E-04
   -.145E+02 -.725E+01 -.982E+01   0.149E+02 0.741E+01 0.101E+02   -.343E+00 -.158E+00 -.270E+00   0.175E-04 -.645E-04 -.109E-03
   0.236E+01 0.163E+02 -.119E+01   -.239E+01 -.167E+02 0.114E+01   0.204E-01 0.411E+00 0.418E-01   -.121E-04 0.255E-04 0.756E-04
   -.147E+02 0.221E+02 -.101E+02   0.150E+02 -.225E+02 0.104E+02   -.321E+00 0.400E+00 -.286E+00   -.526E-04 0.110E-03 0.383E-05
   -.150E+02 -.203E+02 0.694E+01   0.152E+02 0.206E+02 -.702E+01   -.122E+00 -.222E+00 0.725E-01   -.191E-03 0.173E-05 -.190E-04
   0.222E+02 -.101E+02 0.484E+02   -.226E+02 0.102E+02 -.492E+02   0.344E+00 -.176E+00 0.872E+00   0.948E-04 -.178E-03 0.481E-04
   0.135E+02 -.208E+02 -.306E+02   -.137E+02 0.211E+02 0.309E+02   0.158E+00 -.291E+00 -.328E+00   -.105E-03 -.133E-03 -.661E-04
   -.297E+00 -.194E+02 0.200E+02   0.309E+00 0.199E+02 -.203E+02   -.125E-01 -.517E+00 0.275E+00   -.254E-04 -.150E-03 0.365E-04
 -----------------------------------------------------------------------------------------------
   0.144E+01 -.320E+01 0.210E+01   0.144E-13 -.426E-13 0.675E-13   -.144E+01 0.320E+01 -.210E+01   -.334E-04 -.179E-03 0.986E-04
 
 
 POSITION                                       TOTAL-FORCE (eV/Angst)
 -----------------------------------------------------------------------------------
      9.25756      3.32449      3.09232         0.000102      0.000094     -0.000040
      9.58550      6.92344      6.86342        -0.000077     -0.000062     -0.000242
      0.18096      2.81677      6.90570         0.000008      0.000133      0.000049
      0.22500      7.98958      2.04951         0.000017      0.000524     -0.000002
      1.67306      1.59670      9.27665         0.000066     -0.000150     -0.000038
      2.07874      8.00098      0.13184        -0.000173     -0.000251     -0.000206
      8.00227      1.82669      0.41788         0.000025     -0.000222      0.000194
      7.84449      7.43675      9.54181         0.000071     -0.000003      0.000009
      2.89896      9.51192      3.06570         0.000094     -0.000040     -0.000037
      3.31885      0.28023      6.48040         0.000110     -0.000061      0.000162
      7.88232      9.39170      7.71249        -0.000118     -0.000012     -0.000057
      6.91047      0.18024      2.68544        -0.000637      0.000079      0.000638
      1.79540      6.60442      4.44391        -0.000053      0.000067     -0.000173
      2.16948      2.66734      4.93399         0.000283     -0.000540     -0.000078
      6.46484      7.85373      5.31328        -0.000177     -0.000168      0.000037
      6.44741      1.91691      4.65542         0.000193      0.000262      0.000222
      2.27361      4.64678      6.99656        -0.000127      0.000024     -0.000551
      2.92995      5.19286      1.54226        -0.000070     -0.000008     -0.000079
      6.73123      4.66732      1.72227         0.000254     -0.000027     -0.000211
      7.70475      5.00208      6.48279        -0.000059     -0.000051      0.000220
      4.51026      2.94835      8.13567        -0.000167      0.000042      0.000225
      4.65304      7.45886      2.89607         0.000026     -0.000306     -0.000352
      4.96264      2.73578      1.79865         0.000047      0.000178      0.000222
      5.21895      6.39991      8.02317        -0.000075     -0.000045     -0.000020
      4.84450      4.83878      4.83515         0.000018     -0.000338     -0.000058
      4.90579      9.54939      9.58886         0.000164     -0.000012      0.000299
      0.07813      4.78262      0.07856        -0.000106      0.000196     -0.000146
      9.61588      0.03496      4.82263         0.000163      0.000069      0.000100
      1.31442      8.59336      5.92077         0.000003      0.000008     -0.000032
      0.97527      1.22468      3.48808        -0.000011     -0.000039     -0.000087
      8.40565      8.35974      3.83372        -0.000054     -0.000010      0.000013
      8.39830      1.21846      5.97744         0.000029      0.000039      0.000048
      8.71169      5.92043      1.45781         0.000117      0.000039      0.000007
      8.40751      3.72834      8.56625        -0.000060     -0.000048      0.000054
      1.29584      6.01646      8.61625         0.000016     -0.000081     -0.000119
      1.20654      3.46332      1.15572         0.000039     -0.000024     -0.000023
      6.13551      1.17403      8.56650         0.000015      0.000053     -0.000059
      6.02299      8.31141      1.14206         0.000076      0.000054      0.000033
      3.56718      1.01450      1.03822         0.000023      0.000089      0.000024
      3.84409      8.40211      8.27261         0.000018      0.000041      0.000061
      6.24168      5.91180      3.78928         0.000014      0.000007     -0.000026
      5.81366      3.60055      6.15769        -0.000059      0.000080      0.000061
      3.73844      6.17183      5.93540        -0.000007      0.000136     -0.000043
      3.63628      3.80218      3.53608        -0.000071      0.000075      0.000013
      7.35153      7.15825      7.33050        -0.000011      0.000020      0.000002
      7.15367      2.45876      2.48570        -0.000004     -0.000015      0.000003
      2.42826      7.34041      2.34548         0.000002      0.000034     -0.000032
      2.42971      2.35542      7.19524        -0.000037      0.000034     -0.000023
      9.54789      9.45611      0.00848         0.000110     -0.000038     -0.000105
      0.24708      4.74135      5.24354        -0.000024      0.000078      0.000043
      4.90176      9.59197      4.52725         0.000047      0.000057      0.000030
      4.85511      4.68086      0.15275         0.000025      0.000042      0.000071
 -----------------------------------------------------------------------------------
    total drift:                               -0.001833     -0.002207      0.001328


--------------------------------------------------------------------------------------------------------



  FREE ENERGIE OF THE ION-ELECTRON SYSTEM (eV)
  ---------------------------------------------------
  free  energy   TOTEN  =      -272.33726949 eV

  energy  without entropy=     -272.33726949  energy(sigma->0) =     -272.33726949
 
 d Force = 0.2266741E-06[ 0.160E-06, 0.293E-06]  d Energy = 0.3248465E-06-0.982E-07
 d Force = 0.1900216E-02[ 0.190E-02, 0.190E-02]  d Ewald  = 0.1900216E-02-0.418E-10


--------------------------------------------------------------------------------------------------------


    POTLOK:  cpu time      0.4455: real time      0.4470


--------------------------------------------------------------------------------------------------------


 stress matrix after NEB project (eV)
      0.00822      0.99550     -1.76755
      0.99550     -0.47479      0.64952
     -1.76756      0.64952      0.45817
  FORCES: max atom, RMS     0.000905    0.000263
  FORCE total and by dimension    0.001894    0.000638
  Stress total and by dimension    3.083781    1.767555
 Conjugate gradient step on ions:
 trial-energy change:   -0.000000  1 .order   -0.000000   -0.000000   -0.000000
  (g-gl).g = 0.193E-06      g.g   = 0.239E-06  gl.gl    = 0.752E-06
 g(Force)  = 0.239E-06   g(Stress)= 0.000E+00 ortho     = 0.455E-07
 gamma     =   0.25680
 trial     =   1.17143
 opt step  =   2.58235  (harmonic =   2.58235) maximal distance =0.00006247
 next E    =  -272.337269   (d E  =  -0.00000)


--------------------------------------------------------------------------------------------------------


  
 reached required accuracy - stopping structural energy minimisation
     LOOP+:  cpu time      7.1205: real time      7.2041
    4ORBIT:  cpu time      0.0000: real time      0.0000

 total amount of memory used by VASP MPI-rank0    48231. kBytes
=======================================================================

   base      :      30000. kBytes
   nonlr-proj:       6571. kBytes
   fftplans  :       1747. kBytes
   grid      :       5278. kBytes
   one-center:         62. kBytes
   wavefun   :       4573. kBytes
 
  
  
 General timing and accounting informations for this job:
 ========================================================
  
                  Total CPU time used (sec):       96.447
                            User time (sec):       95.329
                          System time (sec):        1.118
                         Elapsed time (sec):      102.173
  
                   Maximum memory used (kb):      378324.
                   Average memory used (kb):          N/A
  
                          Minor page faults:        59505
                          Major page faults:          141
                 Voluntary context switches:         4253
