unknown system                          
           1
     9.650806    0.000000    0.000000
     0.000000    9.650806    0.000000
     0.000000    0.000000    9.650806
   Li   P    S    Cl
    24     4    20     4
Direct configuration=     1
   0.95925097  0.34447672  0.32042130
   0.99323382  0.71739571  0.71117877
   0.01875093  0.29186725  0.71555573
   0.02331378  0.82786058  0.21236637
   0.17335857  0.16544965  0.96123076
   0.21539736  0.82905151  0.01366344
   0.82918087  0.18928079  0.04329840
   0.81283170  0.77058300  0.98870539
   0.30038402  0.98560930  0.31766291
   0.34389257  0.02903764  0.67148562
   0.81675345  0.97315194  0.79915503
   0.71605802  0.01867579  0.27825344
   0.18603626  0.68433764  0.46047215
   0.22479393  0.27639161  0.51125264
   0.66987821  0.81379217  0.55055255
   0.66806758  0.19862449  0.48238393
   0.23558932  0.48149093  0.72497761
   0.30359762  0.53807588  0.15980761
   0.69747556  0.48362009  0.17846047
   0.79835410  0.51830789  0.67173248
   0.46734772  0.30550330  0.84300131
   0.48213916  0.77287820  0.30008933
   0.51421995  0.28347538  0.18637017
   0.54077970  0.66314886  0.83134709
   0.50198033  0.50137755  0.50100858
   0.50833179  0.98948934  0.99358554
   0.00809306  0.49557122  0.00813850
   0.99638434  0.00362440  0.49971417
   0.13619624  0.89042935  0.61350013
   0.10105721  0.12690021  0.36143069
   0.87097869  0.86622043  0.39724038
   0.87021586  0.12625457  0.61937149
   0.90268759  0.61346323  0.15105395
   0.87117381  0.38632539  0.88761806
   0.13427171  0.62341657  0.89280390
   0.12502180  0.35886074  0.11975729
   0.63575264  0.12165194  0.88764556
   0.62408833  0.86121402  0.11833676
   0.36962383  0.10511942  0.10757793
   0.39831605  0.87061030  0.85719009
   0.64675263  0.61257355  0.39263774
   0.60240282  0.37308276  0.63804537
   0.38736750  0.63951536  0.61502006
   0.37678810  0.39397461  0.36640386
   0.76175415  0.74172612  0.75957288
   0.74124962  0.25477167  0.25756144
   0.25161250  0.76060081  0.24303651
   0.25176199  0.24406626  0.74555834
   0.98933237  0.97982557  0.00088097
   0.02560540  0.49128732  0.54332959
   0.50791057  0.99390028  0.46910320
   0.50307726  0.48501949  0.01582804
Direct configuration=     2
   0.95925140  0.34447693  0.32042106
   0.99323356  0.71739536  0.71117780
   0.01875100  0.29186770  0.71555598
   0.02331382  0.82786249  0.21236650
   0.17335886  0.16544905  0.96123067
   0.21539672  0.82905038  0.01366265
   0.82918098  0.18927990  0.04329907
   0.81283189  0.77058305  0.98870544
   0.30038440  0.98560905  0.31766273
   0.34389301  0.02903731  0.67148634
   0.81675296  0.97315187  0.79915487
   0.71605568  0.01867593  0.27825603
   0.18603616  0.68433785  0.46047163
   0.22479502  0.27638944  0.51125238
   0.66987753  0.81379128  0.55055268
   0.66806841  0.19862535  0.48238478
   0.23558877  0.48149104  0.72497553
   0.30359727  0.53807576  0.15980734
   0.69747659  0.48361992  0.17845978
   0.79835385  0.51830773  0.67173342
   0.46734703  0.30550330  0.84300217
   0.48213928  0.77287683  0.30008810
   0.51422009  0.28347599  0.18637102
   0.54077928  0.66314869  0.83134693
   0.50197977  0.50138253  0.50100914
   0.50833034  0.98949001  0.99358282
   0.00809476  0.49556896  0.00813987
   0.99638255  0.00362346  0.49971319
   0.13619692  0.89042915  0.61350017
   0.10105682  0.12689986  0.36142993
   0.87097945  0.86622143  0.39724174
   0.87021640  0.12625450  0.61937155
   0.90268841  0.61346375  0.15105468
   0.87117315  0.38632494  0.88761869
   0.13427210  0.62341621  0.89280301
   0.12502033  0.35886217  0.11975568
   0.63575204  0.12165141  0.88764606
   0.62408979  0.86121357  0.11833779
   0.36962425  0.10511981  0.10757803
   0.39831735  0.87061129  0.85719197
   0.64675196  0.61257210  0.39263830
   0.60240270  0.37308212  0.63804716
   0.38736942  0.63951430  0.61501813
   0.37678677  0.39397438  0.36640313
   0.76175365  0.74172584  0.75957306
   0.74125011  0.25477198  0.25756219
   0.25161227  0.76060078  0.24303577
   0.25176232  0.24406565  0.74555847
   0.98933373  0.97982582  0.00088005
   0.02560399  0.49128840  0.54332795
   0.50791075  0.99390138  0.46910442
   0.50307769  0.48502085  0.01582770
Direct configuration=     3
   0.95925153  0.34447699  0.32042099
   0.99323349  0.71739526  0.71117753
   0.01875102  0.29186783  0.71555605
   0.02331383  0.82786303  0.21236653
   0.17335895  0.16544888  0.96123065
   0.21539654  0.82905006  0.01366242
   0.82918102  0.18927964  0.04329927
   0.81283195  0.77058307  0.98870545
   0.30038451  0.98560897  0.31766268
   0.34389314  0.02903721  0.67148654
   0.81675281  0.97315185  0.79915483
   0.71605501  0.01867597  0.27825676
   0.18603613  0.68433792  0.46047149
   0.22479534  0.27638881  0.51125231
   0.66987733  0.81379103  0.55055272
   0.66806864  0.19862559  0.48238502
   0.23558862  0.48149107  0.72497493
   0.30359717  0.53807572  0.15980727
   0.69747688  0.48361987  0.17845958
   0.79835378  0.51830768  0.67173368
   0.46734683  0.30550329  0.84300242
   0.48213931  0.77287644  0.30008775
   0.51422013  0.28347616  0.18637126
   0.54077915  0.66314864  0.83134688
   0.50197961  0.50138396  0.50100930
   0.50832993  0.98949021  0.99358205
   0.00809525  0.49556832  0.00814026
   0.99638204  0.00362320  0.49971290
   0.13619712  0.89042909  0.61350018
   0.10105671  0.12689975  0.36142971
   0.87097967  0.86622171  0.39724212
   0.87021656  0.12625448  0.61937156
   0.90268864  0.61346390  0.15105489
   0.87117296  0.38632481  0.88761887
   0.13427221  0.62341611  0.89280275
   0.12501990  0.35886258  0.11975522
   0.63575186  0.12165125  0.88764620
   0.62409021  0.86121344  0.11833808
   0.36962437  0.10511993  0.10757806
   0.39831772  0.87061157  0.85719251
   0.64675176  0.61257169  0.39263846
   0.60240266  0.37308193  0.63804766
   0.38736997  0.63951399  0.61501757
   0.37678639  0.39397431  0.36640292
   0.76175351  0.74172576  0.75957311
   0.74125025  0.25477207  0.25756240
   0.25161220  0.76060076  0.24303556
   0.25176241  0.24406548  0.74555850
   0.98933412  0.97982590  0.00087978
   0.02560359  0.49128871  0.54332748
   0.50791081  0.99390170  0.46910477
   0.50307782  0.48502124  0.01582761
Direct configuration=     4
   0.95925177  0.34447711  0.32042086
   0.99323334  0.71739506  0.71117697
   0.01875106  0.29186809  0.71555620
   0.02331385  0.82786412  0.21236660
   0.17335912  0.16544853  0.96123060
   0.21539617  0.82904942  0.01366197
   0.82918108  0.18927913  0.04329965
   0.81283206  0.77058310  0.98870548
   0.30038472  0.98560883  0.31766257
   0.34389339  0.02903702  0.67148695
   0.81675253  0.97315181  0.79915473
   0.71605368  0.01867604  0.27825824
   0.18603607  0.68433804  0.46047119
   0.22479596  0.27638757  0.51125216
   0.66987695  0.81379052  0.55055279
   0.66806912  0.19862608  0.48238551
   0.23558830  0.48149113  0.72497374
   0.30359696  0.53807565  0.15980712
   0.69747747  0.48361977  0.17845918
   0.79835364  0.51830759  0.67173421
   0.46734644  0.30550329  0.84300291
   0.48213937  0.77287566  0.30008705
   0.51422021  0.28347650  0.18637174
   0.54077891  0.66314854  0.83134679
   0.50197929  0.50138681  0.50100962
   0.50832910  0.98949059  0.99358050
   0.00809622  0.49556703  0.00814104
   0.99638102  0.00362266  0.49971234
   0.13619751  0.89042897  0.61350020
   0.10105649  0.12689955  0.36142927
   0.87098010  0.86622228  0.39724290
   0.87021687  0.12625445  0.61937159
   0.90268911  0.61346419  0.15105531
   0.87117259  0.38632456  0.88761923
   0.13427243  0.62341591  0.89280224
   0.12501906  0.35886340  0.11975430
   0.63575152  0.12165095  0.88764649
   0.62409105  0.86121319  0.11833867
   0.36962461  0.10512015  0.10757812
   0.39831845  0.87061214  0.85719359
   0.64675138  0.61257086  0.39263878
   0.60240259  0.37308156  0.63804868
   0.38737106  0.63951338  0.61501647
   0.37678563  0.39397418  0.36640251
   0.76175323  0.74172561  0.75957321
   0.74125053  0.25477224  0.25756283
   0.25161207  0.76060074  0.24303514
   0.25176260  0.24406513  0.74555857
   0.98933489  0.97982604  0.00087925
   0.02560278  0.49128932  0.54332655
   0.50791091  0.99390233  0.46910547
   0.50307806  0.48502201  0.01582742
Direct configuration=     5
   0.95925215  0.34447747  0.32042072
   0.99323301  0.71739468  0.71117583
   0.01875104  0.29186863  0.71555644
   0.02331395  0.82786646  0.21236661
   0.17335943  0.16544775  0.96123039
   0.21539530  0.82904815  0.01366111
   0.82918122  0.18927808  0.04330052
   0.81283229  0.77058309  0.98870562
   0.30038517  0.98560860  0.31766239
   0.34389387  0.02903678  0.67148767
   0.81675201  0.97315171  0.79915451
   0.71605072  0.01867630  0.27826118
   0.18603577  0.68433832  0.46047040
   0.22479736  0.27638500  0.51125174
   0.66987611  0.81378967  0.55055304
   0.66806998  0.19862730  0.48238657
   0.23558760  0.48149113  0.72497127
   0.30359667  0.53807559  0.15980683
   0.69747867  0.48361958  0.17845818
   0.79835329  0.51830724  0.67173529
   0.46734571  0.30550342  0.84300386
   0.48213951  0.77287416  0.30008534
   0.51422036  0.28347729  0.18637281
   0.54077871  0.66314821  0.83134679
   0.50197926  0.50138637  0.50100953
   0.50832968  0.98949091  0.99358134
   0.00809602  0.49556719  0.00814061
   0.99638116  0.00362280  0.49971242
   0.13619772  0.89042888  0.61349990
   0.10105618  0.12689893  0.36142857
   0.87097956  0.86622206  0.39724320
   0.87021734  0.12625464  0.61937193
   0.90269025  0.61346463  0.15105549
   0.87117221  0.38632422  0.88762004
   0.13427247  0.62341510  0.89280116
   0.12501956  0.35886280  0.11975413
   0.63575151  0.12165123  0.88764641
   0.62409169  0.86121414  0.11833879
   0.36962515  0.10512081  0.10757835
   0.39831822  0.87061177  0.85719393
   0.64675181  0.61257058  0.39263827
   0.60240159  0.37308232  0.63804924
   0.38737088  0.63951485  0.61501613
   0.37678503  0.39397491  0.36640287
   0.76175295  0.74172547  0.75957342
   0.74125078  0.25477233  0.25756346
   0.25161197  0.76060092  0.24303436
   0.25176257  0.24406500  0.74555844
   0.98933572  0.97982565  0.00087819
   0.02560226  0.49129007  0.54332676
   0.50791157  0.99390310  0.46910551
   0.50307833  0.48502254  0.01582804
