  52  52   0  16
  0.1730560E+02  0.9654504E-09  0.9654504E-09  0.9654504E-09  0.2000000E-15
  1.000000000000000E-004
  CAR 
 unknown system                          
     12.63251664    -45.26973389  301      2.06535592      1.00000000
    -45.270  0.0000E+00  0.0000E+00  0.0000E+00  0.0000E+00
    -45.077  0.0000E+00  0.0000E+00  0.0000E+00  0.0000E+00
    -44.884  0.0000E+00  0.0000E+00  0.0000E+00  0.0000E+00
    -44.691  0.0000E+00  0.0000E+00  0.0000E+00  0.0000E+00
    -44.498  0.0000E+00  0.0000E+00  0.0000E+00  0.0000E+00
    -44.305  0.0000E+00  0.0000E+00  0.0000E+00  0.0000E+00
    -44.112  0.0000E+00  0.0000E+00  0.0000E+00  0.0000E+00
    -43.919  0.0000E+00  0.0000E+00  0.0000E+00  0.0000E+00
    -43.726  0.0000E+00  0.0000E+00  0.0000E+00  0.0000E+00
    -43.533  0.0000E+00  0.0000E+00  0.0000E+00  0.0000E+00
    -43.340  0.0000E+00  0.0000E+00  0.0000E+00  0.0000E+00
    -43.147  0.0000E+00  0.0000E+00  0.0000E+00  0.0000E+00
    -42.954  0.0000E+00  0.0000E+00  0.0000E+00  0.0000E+00
    -42.761  0.1824E-10  0.1824E-10  0.3520E-11  0.3520E-11
    -42.568  0.1141E-01  0.1141E-01  0.2202E-02  0.2202E-02
    -42.375  0.4360E-01  0.4360E-01  0.1062E-01  0.1062E-01
    -42.182  0.6545E-01  0.6545E-01  0.2326E-01  0.2326E-01
    -41.989  0.3783E-02  0.3783E-02  0.2400E-01  0.2400E-01
    -41.796  0.0000E+00  0.0000E+00  0.2400E-01  0.2400E-01
    -41.603  0.0000E+00  0.0000E+00  0.2400E-01  0.2400E-01
    -41.410  0.0000E+00  0.0000E+00  0.2400E-01  0.2400E-01
    -41.217  0.0000E+00  0.0000E+00  0.2400E-01  0.2400E-01
    -41.024  0.0000E+00  0.0000E+00  0.2400E-01  0.2400E-01
    -40.831  0.0000E+00  0.0000E+00  0.2400E-01  0.2400E-01
    -40.638  0.0000E+00  0.0000E+00  0.2400E-01  0.2400E-01
    -40.445  0.0000E+00  0.0000E+00  0.2400E-01  0.2400E-01
    -40.252  0.0000E+00  0.0000E+00  0.2400E-01  0.2400E-01
    -40.059  0.0000E+00  0.0000E+00  0.2400E-01  0.2400E-01
    -39.866  0.0000E+00  0.0000E+00  0.2400E-01  0.2400E-01
    -39.673  0.0000E+00  0.0000E+00  0.2400E-01  0.2400E-01
    -39.480  0.0000E+00  0.0000E+00  0.2400E-01  0.2400E-01
    -39.287  0.0000E+00  0.0000E+00  0.2400E-01  0.2400E-01
    -39.093  0.0000E+00  0.0000E+00  0.2400E-01  0.2400E-01
    -38.900  0.0000E+00  0.0000E+00  0.2400E-01  0.2400E-01
    -38.707  0.0000E+00  0.0000E+00  0.2400E-01  0.2400E-01
    -38.514  0.0000E+00  0.0000E+00  0.2400E-01  0.2400E-01
    -38.321  0.0000E+00  0.0000E+00  0.2400E-01  0.2400E-01
    -38.128  0.0000E+00  0.0000E+00  0.2400E-01  0.2400E-01
    -37.935  0.0000E+00  0.0000E+00  0.2400E-01  0.2400E-01
    -37.742  0.0000E+00  0.0000E+00  0.2400E-01  0.2400E-01
    -37.549  0.0000E+00  0.0000E+00  0.2400E-01  0.2400E-01
    -37.356  0.0000E+00  0.0000E+00  0.2400E-01  0.2400E-01
    -37.163  0.0000E+00  0.0000E+00  0.2400E-01  0.2400E-01
    -36.970  0.0000E+00  0.0000E+00  0.2400E-01  0.2400E-01
    -36.777  0.0000E+00  0.0000E+00  0.2400E-01  0.2400E-01
    -36.584  0.0000E+00  0.0000E+00  0.2400E-01  0.2400E-01
    -36.391  0.0000E+00  0.0000E+00  0.2400E-01  0.2400E-01
    -36.198  0.0000E+00  0.0000E+00  0.2400E-01  0.2400E-01
    -36.005  0.0000E+00  0.0000E+00  0.2400E-01  0.2400E-01
    -35.812  0.0000E+00  0.0000E+00  0.2400E-01  0.2400E-01
    -35.619  0.0000E+00  0.0000E+00  0.2400E-01  0.2400E-01
    -35.426  0.0000E+00  0.0000E+00  0.2400E-01  0.2400E-01
    -35.233  0.0000E+00  0.0000E+00  0.2400E-01  0.2400E-01
    -35.040  0.0000E+00  0.0000E+00  0.2400E-01  0.2400E-01
    -34.847  0.0000E+00  0.0000E+00  0.2400E-01  0.2400E-01
    -34.654  0.0000E+00  0.0000E+00  0.2400E-01  0.2400E-01
    -34.461  0.0000E+00  0.0000E+00  0.2400E-01  0.2400E-01
    -34.268  0.0000E+00  0.0000E+00  0.2400E-01  0.2400E-01
    -34.075  0.0000E+00  0.0000E+00  0.2400E-01  0.2400E-01
    -33.882  0.0000E+00  0.0000E+00  0.2400E-01  0.2400E-01
    -33.689  0.0000E+00  0.0000E+00  0.2400E-01  0.2400E-01
    -33.496  0.0000E+00  0.0000E+00  0.2400E-01  0.2400E-01
    -33.303  0.0000E+00  0.0000E+00  0.2400E-01  0.2400E-01
    -33.110  0.0000E+00  0.0000E+00  0.2400E-01  0.2400E-01
    -32.917  0.0000E+00  0.0000E+00  0.2400E-01  0.2400E-01
    -32.724  0.0000E+00  0.0000E+00  0.2400E-01  0.2400E-01
    -32.531  0.0000E+00  0.0000E+00  0.2400E-01  0.2400E-01
    -32.338  0.0000E+00  0.0000E+00  0.2400E-01  0.2400E-01
    -32.145  0.0000E+00  0.0000E+00  0.2400E-01  0.2400E-01
    -31.952  0.0000E+00  0.0000E+00  0.2400E-01  0.2400E-01
    -31.759  0.0000E+00  0.0000E+00  0.2400E-01  0.2400E-01
    -31.566  0.0000E+00  0.0000E+00  0.2400E-01  0.2400E-01
    -31.373  0.0000E+00  0.0000E+00  0.2400E-01  0.2400E-01
    -31.180  0.0000E+00  0.0000E+00  0.2400E-01  0.2400E-01
    -30.987  0.0000E+00  0.0000E+00  0.2400E-01  0.2400E-01
    -30.794  0.0000E+00  0.0000E+00  0.2400E-01  0.2400E-01
    -30.601  0.0000E+00  0.0000E+00  0.2400E-01  0.2400E-01
    -30.408  0.0000E+00  0.0000E+00  0.2400E-01  0.2400E-01
    -30.215  0.0000E+00  0.0000E+00  0.2400E-01  0.2400E-01
    -30.022  0.0000E+00  0.0000E+00  0.2400E-01  0.2400E-01
    -29.829  0.0000E+00  0.0000E+00  0.2400E-01  0.2400E-01
    -29.636  0.0000E+00  0.0000E+00  0.2400E-01  0.2400E-01
    -29.443  0.0000E+00  0.0000E+00  0.2400E-01  0.2400E-01
    -29.250  0.0000E+00  0.0000E+00  0.2400E-01  0.2400E-01
    -29.057  0.0000E+00  0.0000E+00  0.2400E-01  0.2400E-01
    -28.864  0.0000E+00  0.0000E+00  0.2400E-01  0.2400E-01
    -28.671  0.0000E+00  0.0000E+00  0.2400E-01  0.2400E-01
    -28.478  0.0000E+00  0.0000E+00  0.2400E-01  0.2400E-01
    -28.285  0.0000E+00  0.0000E+00  0.2400E-01  0.2400E-01
    -28.092  0.0000E+00  0.0000E+00  0.2400E-01  0.2400E-01
    -27.899  0.0000E+00  0.0000E+00  0.2400E-01  0.2400E-01
    -27.706  0.0000E+00  0.0000E+00  0.2400E-01  0.2400E-01
    -27.513  0.0000E+00  0.0000E+00  0.2400E-01  0.2400E-01
    -27.320  0.0000E+00  0.0000E+00  0.2400E-01  0.2400E-01
    -27.127  0.0000E+00  0.0000E+00  0.2400E-01  0.2400E-01
    -26.934  0.0000E+00  0.0000E+00  0.2400E-01  0.2400E-01
    -26.741  0.0000E+00  0.0000E+00  0.2400E-01  0.2400E-01
    -26.548  0.0000E+00  0.0000E+00  0.2400E-01  0.2400E-01
    -26.355  0.0000E+00  0.0000E+00  0.2400E-01  0.2400E-01
    -26.162  0.0000E+00  0.0000E+00  0.2400E-01  0.2400E-01
    -25.969  0.0000E+00  0.0000E+00  0.2400E-01  0.2400E-01
    -25.776  0.0000E+00  0.0000E+00  0.2400E-01  0.2400E-01
    -25.583  0.0000E+00  0.0000E+00  0.2400E-01  0.2400E-01
    -25.390  0.0000E+00  0.0000E+00  0.2400E-01  0.2400E-01
    -25.197  0.0000E+00  0.0000E+00  0.2400E-01  0.2400E-01
    -25.004  0.0000E+00  0.0000E+00  0.2400E-01  0.2400E-01
    -24.811  0.0000E+00  0.0000E+00  0.2400E-01  0.2400E-01
    -24.618  0.0000E+00  0.0000E+00  0.2400E-01  0.2400E-01
    -24.425  0.0000E+00  0.0000E+00  0.2400E-01  0.2400E-01
    -24.232  0.0000E+00  0.0000E+00  0.2400E-01  0.2400E-01
    -24.039  0.0000E+00  0.0000E+00  0.2400E-01  0.2400E-01
    -23.846  0.0000E+00  0.0000E+00  0.2400E-01  0.2400E-01
    -23.653  0.0000E+00  0.0000E+00  0.2400E-01  0.2400E-01
    -23.460  0.0000E+00  0.0000E+00  0.2400E-01  0.2400E-01
    -23.267  0.0000E+00  0.0000E+00  0.2400E-01  0.2400E-01
    -23.074  0.0000E+00  0.0000E+00  0.2400E-01  0.2400E-01
    -22.881  0.0000E+00  0.0000E+00  0.2400E-01  0.2400E-01
    -22.688  0.0000E+00  0.0000E+00  0.2400E-01  0.2400E-01
    -22.495  0.0000E+00  0.0000E+00  0.2400E-01  0.2400E-01
    -22.302  0.0000E+00  0.0000E+00  0.2400E-01  0.2400E-01
    -22.109  0.0000E+00  0.0000E+00  0.2400E-01  0.2400E-01
    -21.916  0.0000E+00  0.0000E+00  0.2400E-01  0.2400E-01
    -21.723  0.0000E+00  0.0000E+00  0.2400E-01  0.2400E-01
    -21.530  0.0000E+00  0.0000E+00  0.2400E-01  0.2400E-01
    -21.337  0.0000E+00  0.0000E+00  0.2400E-01  0.2400E-01
    -21.144  0.0000E+00  0.0000E+00  0.2400E-01  0.2400E-01
    -20.951  0.0000E+00  0.0000E+00  0.2400E-01  0.2400E-01
    -20.758  0.0000E+00  0.0000E+00  0.2400E-01  0.2400E-01
    -20.565  0.0000E+00  0.0000E+00  0.2400E-01  0.2400E-01
    -20.372  0.0000E+00  0.0000E+00  0.2400E-01  0.2400E-01
    -20.179  0.0000E+00  0.0000E+00  0.2400E-01  0.2400E-01
    -19.986  0.0000E+00  0.0000E+00  0.2400E-01  0.2400E-01
    -19.793  0.0000E+00  0.0000E+00  0.2400E-01  0.2400E-01
    -19.600  0.0000E+00  0.0000E+00  0.2400E-01  0.2400E-01
    -19.407  0.0000E+00  0.0000E+00  0.2400E-01  0.2400E-01
    -19.214  0.0000E+00  0.0000E+00  0.2400E-01  0.2400E-01
    -19.021  0.0000E+00  0.0000E+00  0.2400E-01  0.2400E-01
    -18.828  0.0000E+00  0.0000E+00  0.2400E-01  0.2400E-01
    -18.635  0.0000E+00  0.0000E+00  0.2400E-01  0.2400E-01
    -18.442  0.0000E+00  0.0000E+00  0.2400E-01  0.2400E-01
    -18.249  0.0000E+00  0.0000E+00  0.2400E-01  0.2400E-01
    -18.056  0.0000E+00  0.0000E+00  0.2400E-01  0.2400E-01
    -17.863  0.0000E+00  0.0000E+00  0.2400E-01  0.2400E-01
    -17.670  0.0000E+00  0.0000E+00  0.2400E-01  0.2400E-01
    -17.477  0.0000E+00  0.0000E+00  0.2400E-01  0.2400E-01
    -17.284  0.0000E+00  0.0000E+00  0.2400E-01  0.2400E-01
    -17.091  0.0000E+00  0.0000E+00  0.2400E-01  0.2400E-01
    -16.898  0.0000E+00  0.0000E+00  0.2400E-01  0.2400E-01
    -16.705  0.0000E+00  0.0000E+00  0.2400E-01  0.2400E-01
    -16.512  0.0000E+00  0.0000E+00  0.2400E-01  0.2400E-01
    -16.319  0.0000E+00  0.0000E+00  0.2400E-01  0.2400E-01
    -16.126  0.0000E+00  0.0000E+00  0.2400E-01  0.2400E-01
    -15.933  0.0000E+00  0.0000E+00  0.2400E-01  0.2400E-01
    -15.740  0.0000E+00  0.0000E+00  0.2400E-01  0.2400E-01
    -15.547  0.0000E+00  0.0000E+00  0.2400E-01  0.2400E-01
    -15.354  0.0000E+00  0.0000E+00  0.2400E-01  0.2400E-01
    -15.161  0.0000E+00  0.0000E+00  0.2400E-01  0.2400E-01
    -14.968  0.0000E+00  0.0000E+00  0.2400E-01  0.2400E-01
    -14.775  0.0000E+00  0.0000E+00  0.2400E-01  0.2400E-01
    -14.582  0.0000E+00  0.0000E+00  0.2400E-01  0.2400E-01
    -14.389  0.0000E+00  0.0000E+00  0.2400E-01  0.2400E-01
    -14.196  0.0000E+00  0.0000E+00  0.2400E-01  0.2400E-01
    -14.003  0.0000E+00  0.0000E+00  0.2400E-01  0.2400E-01
    -13.810  0.0000E+00  0.0000E+00  0.2400E-01  0.2400E-01
    -13.617  0.0000E+00  0.0000E+00  0.2400E-01  0.2400E-01
    -13.423  0.0000E+00  0.0000E+00  0.2400E-01  0.2400E-01
    -13.230  0.0000E+00  0.0000E+00  0.2400E-01  0.2400E-01
    -13.037  0.3455E-02  0.3455E-02  0.2467E-01  0.2467E-01
    -12.844  0.1565E-01  0.1565E-01  0.2769E-01  0.2769E-01
    -12.651  0.8789E-02  0.8789E-02  0.2938E-01  0.2938E-01
    -12.458  0.1349E-01  0.1349E-01  0.3200E-01  0.3200E-01
    -12.265  0.0000E+00  0.0000E+00  0.3200E-01  0.3200E-01
    -12.072  0.0000E+00  0.0000E+00  0.3200E-01  0.3200E-01
    -11.879  0.0000E+00  0.0000E+00  0.3200E-01  0.3200E-01
    -11.686  0.0000E+00  0.0000E+00  0.3200E-01  0.3200E-01
    -11.493  0.0000E+00  0.0000E+00  0.3200E-01  0.3200E-01
    -11.300  0.0000E+00  0.0000E+00  0.3200E-01  0.3200E-01
    -11.107  0.0000E+00  0.0000E+00  0.3200E-01  0.3200E-01
    -10.914  0.0000E+00  0.0000E+00  0.3200E-01  0.3200E-01
    -10.721  0.0000E+00  0.0000E+00  0.3200E-01  0.3200E-01
    -10.528  0.0000E+00  0.0000E+00  0.3200E-01  0.3200E-01
    -10.335  0.1749E-04  0.1749E-04  0.3200E-01  0.3200E-01
    -10.142  0.1565E-01  0.1565E-01  0.3502E-01  0.3502E-01
     -9.949  0.2110E-01  0.2110E-01  0.3910E-01  0.3910E-01
     -9.756  0.2272E-01  0.2272E-01  0.4349E-01  0.4349E-01
     -9.563  0.2666E-02  0.2666E-02  0.4400E-01  0.4400E-01
     -9.370  0.0000E+00  0.0000E+00  0.4400E-01  0.4400E-01
     -9.177  0.0000E+00  0.0000E+00  0.4400E-01  0.4400E-01
     -8.984  0.0000E+00  0.0000E+00  0.4400E-01  0.4400E-01
     -8.791  0.0000E+00  0.0000E+00  0.4400E-01  0.4400E-01
     -8.598  0.0000E+00  0.0000E+00  0.4400E-01  0.4400E-01
     -8.405  0.7589E-05  0.7588E-05  0.4400E-01  0.4400E-01
     -8.212  0.1985E-01  0.1985E-01  0.4783E-01  0.4783E-01
     -8.019  0.8649E-03  0.8649E-03  0.4800E-01  0.4800E-01
     -7.826  0.0000E+00  0.0000E+00  0.4800E-01  0.4800E-01
     -7.633  0.0000E+00  0.0000E+00  0.4800E-01  0.4800E-01
     -7.440  0.0000E+00  0.0000E+00  0.4800E-01  0.4800E-01
     -7.247  0.0000E+00  0.0000E+00  0.4800E-01  0.4800E-01
     -7.054  0.0000E+00  0.0000E+00  0.4800E-01  0.4800E-01
     -6.861  0.0000E+00  0.0000E+00  0.4800E-01  0.4800E-01
     -6.668  0.0000E+00  0.0000E+00  0.4800E-01  0.4800E-01
     -6.475  0.0000E+00  0.0000E+00  0.4800E-01  0.4800E-01
     -6.282  0.0000E+00  0.0000E+00  0.4800E-01  0.4800E-01
     -6.089  0.1870E-02  0.1870E-02  0.4836E-01  0.4836E-01
     -5.896  0.3311E-02  0.3311E-02  0.4900E-01  0.4900E-01
     -5.703  0.3061E-02  0.3061E-02  0.4959E-01  0.4959E-01
     -5.510  0.1033E-01  0.1033E-01  0.5159E-01  0.5159E-01
     -5.317  0.2149E-02  0.2149E-02  0.5200E-01  0.5200E-01
     -5.124  0.0000E+00  0.0000E+00  0.5200E-01  0.5200E-01
     -4.931  0.0000E+00  0.0000E+00  0.5200E-01  0.5200E-01
     -4.738  0.0000E+00  0.0000E+00  0.5200E-01  0.5200E-01
     -4.545  0.0000E+00  0.0000E+00  0.5200E-01  0.5200E-01
     -4.352  0.0000E+00  0.0000E+00  0.5200E-01  0.5200E-01
     -4.159  0.0000E+00  0.0000E+00  0.5200E-01  0.5200E-01
     -3.966  0.0000E+00  0.0000E+00  0.5200E-01  0.5200E-01
     -3.773  0.0000E+00  0.0000E+00  0.5200E-01  0.5200E-01
     -3.580  0.0000E+00  0.0000E+00  0.5200E-01  0.5200E-01
     -3.387  0.8916E-16  0.8916E-16  0.5200E-01  0.5200E-01
     -3.194  0.4902E-02  0.4902E-02  0.5295E-01  0.5295E-01
     -3.001  0.1064E-01  0.1064E-01  0.5500E-01  0.5500E-01
     -2.808  0.3743E-02  0.3743E-02  0.5572E-01  0.5572E-01
     -2.615  0.1144E-01  0.1144E-01  0.5793E-01  0.5793E-01
     -2.422  0.9592E-02  0.9592E-02  0.5978E-01  0.5978E-01
     -2.229  0.1744E-01  0.1744E-01  0.6315E-01  0.6315E-01
     -2.036  0.4404E-02  0.4404E-02  0.6400E-01  0.6400E-01
     -1.843  0.0000E+00  0.0000E+00  0.6400E-01  0.6400E-01
     -1.650  0.2163E-06  0.2163E-06  0.6400E-01  0.6400E-01
     -1.457  0.1361E-01  0.1361E-01  0.6663E-01  0.6663E-01
     -1.264  0.2381E-01  0.2381E-01  0.7122E-01  0.7122E-01
     -1.071  0.2456E-01  0.2456E-01  0.7596E-01  0.7596E-01
     -0.878  0.1800E-03  0.1800E-03  0.7600E-01  0.7600E-01
     -0.685  0.5412E-06  0.5411E-06  0.7600E-01  0.7600E-01
     -0.492  0.1034E-01  0.1034E-01  0.7800E-01  0.7800E-01
     -0.299  0.1056E-01  0.1056E-01  0.8003E-01  0.8003E-01
     -0.106  0.1489E-01  0.1489E-01  0.8291E-01  0.8291E-01
      0.087  0.2443E-01  0.2443E-01  0.8763E-01  0.8763E-01
      0.280  0.2305E-01  0.2305E-01  0.9208E-01  0.9208E-01
      0.473  0.1797E-01  0.1797E-01  0.9555E-01  0.9555E-01
      0.666  0.2305E-02  0.2306E-02  0.9600E-01  0.9600E-01
      0.859  0.9818E-02  0.9818E-02  0.9790E-01  0.9790E-01
      1.052  0.2299E-01  0.2299E-01  0.1023E+00  0.1023E+00
      1.245  0.1990E-01  0.1990E-01  0.1062E+00  0.1062E+00
      1.438  0.2585E-01  0.2585E-01  0.1112E+00  0.1112E+00
      1.631  0.2845E-01  0.2845E-01  0.1167E+00  0.1167E+00
      1.824  0.1571E-01  0.1571E-01  0.1197E+00  0.1197E+00
      2.017  0.1567E-02  0.1567E-02  0.1200E+00  0.1200E+00
      2.210  0.0000E+00  0.0000E+00  0.1200E+00  0.1200E+00
      2.403  0.0000E+00  0.0000E+00  0.1200E+00  0.1200E+00
      2.596  0.0000E+00  0.0000E+00  0.1200E+00  0.1200E+00
      2.789  0.0000E+00  0.0000E+00  0.1200E+00  0.1200E+00
      2.982  0.0000E+00  0.0000E+00  0.1200E+00  0.1200E+00
      3.175  0.0000E+00  0.0000E+00  0.1200E+00  0.1200E+00
      3.368  0.0000E+00  0.0000E+00  0.1200E+00  0.1200E+00
      3.561  0.0000E+00  0.0000E+00  0.1200E+00  0.1200E+00
      3.754  0.0000E+00  0.0000E+00  0.1200E+00  0.1200E+00
      3.947  0.0000E+00  0.0000E+00  0.1200E+00  0.1200E+00
      4.140  0.0000E+00  0.0000E+00  0.1200E+00  0.1200E+00
      4.333  0.1560E-11  0.1560E-11  0.1200E+00  0.1200E+00
      4.526  0.4886E-02  0.4886E-02  0.1209E+00  0.1209E+00
      4.719  0.2940E-03  0.2940E-03  0.1210E+00  0.1210E+00
      4.912  0.0000E+00  0.0000E+00  0.1210E+00  0.1210E+00
      5.105  0.8110E-08  0.8110E-08  0.1210E+00  0.1210E+00
      5.298  0.5074E-02  0.5074E-02  0.1220E+00  0.1220E+00
      5.491  0.1042E-01  0.1042E-01  0.1240E+00  0.1240E+00
      5.684  0.4584E-04  0.4584E-04  0.1240E+00  0.1240E+00
      5.877  0.1926E-03  0.1926E-03  0.1240E+00  0.1240E+00
      6.070  0.1221E-01  0.1221E-01  0.1264E+00  0.1264E+00
      6.263  0.1516E-01  0.1516E-01  0.1293E+00  0.1293E+00
      6.456  0.3878E-02  0.3878E-02  0.1301E+00  0.1301E+00
      6.649  0.1076E-01  0.1076E-01  0.1322E+00  0.1322E+00
      6.842  0.9254E-02  0.9254E-02  0.1339E+00  0.1339E+00
      7.035  0.1057E-01  0.1057E-01  0.1360E+00  0.1360E+00
      7.228  0.5260E-02  0.5260E-02  0.1370E+00  0.1370E+00
      7.421  0.4501E-02  0.4501E-02  0.1379E+00  0.1379E+00
      7.614  0.8996E-02  0.8996E-02  0.1396E+00  0.1396E+00
      7.807  0.1223E-01  0.1223E-01  0.1420E+00  0.1420E+00
      8.000  0.1296E-01  0.1296E-01  0.1445E+00  0.1445E+00
      8.193  0.1151E-01  0.1151E-01  0.1467E+00  0.1467E+00
      8.386  0.1488E-01  0.1488E-01  0.1496E+00  0.1496E+00
      8.579  0.1567E-01  0.1567E-01  0.1526E+00  0.1526E+00
      8.772  0.1499E-01  0.1499E-01  0.1555E+00  0.1555E+00
      8.965  0.1657E-01  0.1657E-01  0.1587E+00  0.1587E+00
      9.158  0.1608E-01  0.1608E-01  0.1618E+00  0.1618E+00
      9.351  0.1944E-01  0.1944E-01  0.1655E+00  0.1655E+00
      9.544  0.1820E-01  0.1821E-01  0.1691E+00  0.1691E+00
      9.737  0.1638E-01  0.1622E-01  0.1722E+00  0.1722E+00
      9.930  0.1502E-01  0.1539E-01  0.1751E+00  0.1752E+00
     10.123  0.4544E-02  0.4336E-02  0.1760E+00  0.1760E+00
     10.316  0.0000E+00  0.0000E+00  0.1760E+00  0.1760E+00
     10.509  0.0000E+00  0.0000E+00  0.1760E+00  0.1760E+00
     10.702  0.0000E+00  0.0000E+00  0.1760E+00  0.1760E+00
     10.895  0.0000E+00  0.0000E+00  0.1760E+00  0.1760E+00
     11.088  0.0000E+00  0.0000E+00  0.1760E+00  0.1760E+00
     11.281  0.0000E+00  0.0000E+00  0.1760E+00  0.1760E+00
     11.474  0.0000E+00  0.0000E+00  0.1760E+00  0.1760E+00
     11.667  0.0000E+00  0.0000E+00  0.1760E+00  0.1760E+00
     11.860  0.0000E+00  0.0000E+00  0.1760E+00  0.1760E+00
     12.053  0.0000E+00  0.0000E+00  0.1760E+00  0.1760E+00
     12.247  0.0000E+00  0.0000E+00  0.1760E+00  0.1760E+00
     12.440  0.0000E+00  0.0000E+00  0.1760E+00  0.1760E+00
     12.633  0.0000E+00  0.0000E+00  0.1760E+00  0.1760E+00
