 vasp.6.4.1 05Apr23 (build Jun 07 2023 15:38:11) complex                        
  
 executed on             LinuxIFC date 2023.10.20  08:21:03
 running  128 mpi-ranks, with    1 threads/rank, on    1 nodes
 distrk:  each k-point on  128 cores,    1 groups
 distr:  one band on NCORE=  32 cores,    4 groups


--------------------------------------------------------------------------------------------------------


 INCAR:
   GGA = PE
   PREC = Accu
   EDIFF = 1.e-6
   EDIFFG = -1.e-3
   ENCUT = 520.
   NELM = 100
   NELMDL = -10
   LASPH = .TRUE.
   LREAL = Auto
   LMAXMIX = 4
   ISPIN = 2
   LDIAG = .TRUE.
   LPLANE = .TRUE.
   IVDW = 12
   SIGMA = 0.03
   ISMEAR = 0
   NSW = 1000    number of steps for IOM
   IBRION = 2    ionic relax: 0-MD 1-quasi-New 2-CG
   ISIF = 2    ionic relaxation + stress tensor calcn.
   LCHARG = .FALSE.
   LWAVE = .FALSE.
   ALGO = F
   KPAR = 1
   NPAR = 4
   POTIM = 0.2

 POTCAR:    PAW_PBE Li_sv_GW 25Mar2010            
 POTCAR:    PAW_PBE P_GW 19Mar2012                
 POTCAR:    PAW_PBE S_GW 19Mar2012                
 POTCAR:    PAW_PBE Cl_GW 19Mar2012               
 -----------------------------------------------------------------------------
|                                                                             |
|           W    W    AA    RRRRR   N    N  II  N    N   GGGG   !!!           |
|           W    W   A  A   R    R  NN   N  II  NN   N  G    G  !!!           |
|           W    W  A    A  R    R  N N  N  II  N N  N  G       !!!           |
|           W WW W  AAAAAA  RRRRR   N  N N  II  N  N N  G  GGG   !            |
|           WW  WW  A    A  R   R   N   NN  II  N   NN  G    G                |
|           W    W  A    A  R    R  N    N  II  N    N   GGGG   !!!           |
|                                                                             |
|     You use a magnetic or noncollinear calculation, but did not specify     |
|     the initial magnetic moment with the MAGMOM tag. Note that a            |
|     default of 1 will be used for all atoms. This ferromagnetic setup       |
|     may break the symmetry of the crystal, in particular it may rule        |
|     out finding an antiferromagnetic solution. Thence, we recommend         |
|     setting the initial magnetic moment manually or verifying carefully     |
|     that this magnetic setup is desired.                                    |
|                                                                             |
 -----------------------------------------------------------------------------

 POTCAR:    PAW_PBE Li_sv_GW 25Mar2010            
   SHA256 =  24a6ace15a582615486b36ce4dc781b048409f4015b7684ed1273ae395fa2fdc Li_sv_GW/POTCAR       
   COPYR  = (c) Copyright 25Mar2010 Georg Kresse                                                    
   COPYR  = This file is part of the software VASP. Any use, copying, and all other rights are regul
   COPYR  = If you do not have a valid VASP license, you may not use, copy or distribute this file. 
   VRHFIN =Li: 1s2s                                                                                 
   LEXCH  = PE                                                                                      
   EATOM  =   200.9989 eV,   14.7730 Ry                                                             
                                                                                                    
   TITEL  = PAW_PBE Li_sv_GW 25Mar2010                                                              
   LULTRA =        F    use ultrasoft PP ?                                                          
   IUNSCR =        0    unscreen: 0-lin 1-nonlin 2-no                                               
   RPACOR =    0.000    partial core radius                                                         
   POMASS =    7.010; ZVAL   =    3.000    mass and valenz                                          
   RCORE  =    1.500    outmost cutoff radius                                                       
   RWIGS  =    1.600; RWIGS  =    0.847    wigner-seitz radius (au A)                               
   ENMAX  =  433.699; ENMIN  =  325.274 eV                                                          
   RCLOC  =    1.003    cutoff for local pot                                                        
   LCOR   =        T    correct aug charges                                                         
   LPAW   =        T    paw PP                                                                      
   EAUG   = 1041.699                                                                                
   RMAX   =    1.536    core radius for proj-oper                                                   
   RAUG   =    1.300    factor for augmentation sphere                                              
   RDEP   =    1.520    radius for radial grids                                                     
   RDEPT  =    1.300    core radius for aug-charge                                                  
                                                                                                    
   Atomic configuration                                                                             
    4 entries                                                                                       
     n  l   j            E        occ.                                                              
     1  0  0.50       -53.3604   2.0000                                                             
     1  0  0.50       -52.0001   0.0000                                                             
     2  1  0.50        -1.5636   1.0000                                                             
     3  2  1.50        -1.3606   0.0000                                                             
   Description                                                                                      
     l       E           TYP  RCUT    TYP  RCUT                                                     
     0    -53.3603633     23  1.200                                                                 
     0    -52.0001064     23  1.200                                                                 
     0    176.8757380     23  1.300                                                                 
     1     -1.5635925     23  1.500                                                                 
     1    108.8466080     23  1.500                                                                 
     2     81.6349560     23  1.500                                                                 
  local pseudopotential read in
  kinetic energy density of atom read in
  atomic valenz-charges read in
  non local Contribution for L=           0  read in
    real space projection operators read in
  non local Contribution for L=           0  read in
    real space projection operators read in
  non local Contribution for L=           0  read in
    real space projection operators read in
  non local Contribution for L=           1  read in
    real space projection operators read in
  non local Contribution for L=           1  read in
    real space projection operators read in
  non local Contribution for L=           2  read in
    real space projection operators read in
    PAW grid and wavefunctions read in
 
   number of l-projection  operators is LMAX  =           6
   number of lm-projection operators is LMMAX =          14
 
 POTCAR:    PAW_PBE P_GW 19Mar2012                
   SHA256 =  715c28f2291d37b61637ce89646c59f66f71c8b8d8bfba631e5feb9f7b42defe P_GW/POTCAR           
   COPYR  = (c) Copyright 19Mar2012 Georg Kresse                                                    
   COPYR  = This file is part of the software VASP. Any use, copying, and all other rights are regul
   COPYR  = If you do not have a valid VASP license, you may not use, copy or distribute this file. 
   VRHFIN =P : s2p3                                                                                 
   LEXCH  = PE                                                                                      
   EATOM  =   176.0430 eV,   12.9388 Ry                                                             
                                                                                                    
   TITEL  = PAW_PBE P_GW 19Mar2012                                                                  
   LULTRA =        F    use ultrasoft PP ?                                                          
   IUNSCR =        1    unscreen: 0-lin 1-nonlin 2-no                                               
   RPACOR =    1.400    partial core radius                                                         
   POMASS =   30.974; ZVAL   =    5.000    mass and valenz                                          
   RCORE  =    2.000    outmost cutoff radius                                                       
   RWIGS  =    1.900; RWIGS  =    1.005    wigner-seitz radius (au A)                               
   ENMAX  =  255.040; ENMIN  =  191.280 eV                                                          
   ICORE  =        3    local potential                                                             
   LCOR   =        T    correct aug charges                                                         
   LPAW   =        T    paw PP                                                                      
   EAUG   =  499.732                                                                                
   DEXC   =    0.000                                                                                
   RMAX   =    2.047    core radius for proj-oper                                                   
   RAUG   =    1.300    factor for augmentation sphere                                              
   RDEP   =    2.059    radius for radial grids                                                     
   RDEPT  =    1.900    core radius for aug-charge                                                  
                                                                                                    
   Atomic configuration                                                                             
    7 entries                                                                                       
     n  l   j            E        occ.                                                              
     1  0  0.50     -2084.0982   2.0000                                                             
     2  0  0.50      -173.9859   2.0000                                                             
     2  1  1.50      -124.4865   6.0000                                                             
     3  0  0.50       -13.9692   2.0000                                                             
     3  1  0.50        -5.5067   3.0000                                                             
     3  2  1.50        -6.8029   0.0000                                                             
     4  3  2.50        -1.3606   0.0000                                                             
   Description                                                                                      
     l       E           TYP  RCUT    TYP  RCUT                                                     
     0    -13.9691528     23  1.900                                                                 
     0    102.0436950     23  1.900                                                                 
     1     -5.5066939     23  1.900                                                                 
     1    102.0436950     23  1.900                                                                 
     2     -8.1634956     23  2.000                                                                 
     2     81.6349560     23  2.000                                                                 
     3     27.2116520     23  2.000                                                                 
  local pseudopotential read in
  partial core-charges read in
  partial kinetic energy density read in
  kinetic energy density of atom read in
  atomic valenz-charges read in
  non local Contribution for L=           0  read in
    real space projection operators read in
  non local Contribution for L=           0  read in
    real space projection operators read in
  non local Contribution for L=           1  read in
    real space projection operators read in
  non local Contribution for L=           1  read in
    real space projection operators read in
  non local Contribution for L=           2  read in
    real space projection operators read in
  non local Contribution for L=           2  read in
    real space projection operators read in
    PAW grid and wavefunctions read in
 
   number of l-projection  operators is LMAX  =           6
   number of lm-projection operators is LMMAX =          18
 
 POTCAR:    PAW_PBE S_GW 19Mar2012                
   SHA256 =  357db9cfb0783579b2eebe03197c2d807131fea8ea663b1fcfb6ce2fa75af011 S_GW/POTCAR           
   COPYR  = (c) Copyright 19Mar2012 Georg Kresse                                                    
   COPYR  = This file is part of the software VASP. Any use, copying, and all other rights are regul
   COPYR  = If you do not have a valid VASP license, you may not use, copy or distribute this file. 
   VRHFIN =S : s2p4                                                                                 
   LEXCH  = PE                                                                                      
   EATOM  =   276.8230 eV,   20.3459 Ry                                                             
                                                                                                    
   TITEL  = PAW_PBE S_GW 19Mar2012                                                                  
   LULTRA =        F    use ultrasoft PP ?                                                          
   IUNSCR =        1    unscreen: 0-lin 1-nonlin 2-no                                               
   RPACOR =    1.400    partial core radius                                                         
   POMASS =   32.066; ZVAL   =    6.000    mass and valenz                                          
   RCORE  =    1.900    outmost cutoff radius                                                       
   RWIGS  =    1.900; RWIGS  =    1.005    wigner-seitz radius (au A)                               
   ENMAX  =  258.689; ENMIN  =  194.016 eV                                                          
   ICORE  =        3    local potential                                                             
   LCOR   =        T    correct aug charges                                                         
   LPAW   =        T    paw PP                                                                      
   EAUG   =  488.319                                                                                
   DEXC   =    0.000                                                                                
   RMAX   =    1.942    core radius for proj-oper                                                   
   RAUG   =    1.300    factor for augmentation sphere                                              
   RDEP   =    1.954    radius for radial grids                                                     
   RDEPT  =    1.900    core radius for aug-charge                                                  
                                                                                                    
   Atomic configuration                                                                             
    7 entries                                                                                       
     n  l   j            E        occ.                                                              
     1  0  0.50     -2405.8406   2.0000                                                             
     2  0  0.50      -211.7007   2.0000                                                             
     2  1  1.50      -156.4958   6.0000                                                             
     3  0  0.50       -17.2562   2.0000                                                             
     3  1  0.50        -7.0085   4.0000                                                             
     3  2  1.50        -8.1635   0.0000                                                             
     4  3  2.50        -1.3606   0.0000                                                             
   Description                                                                                      
     l       E           TYP  RCUT    TYP  RCUT                                                     
     0    -17.2561639     23  1.700                                                                 
     0     88.4378690     23  1.900                                                                 
     1     -7.0085399     23  1.900                                                                 
     1     88.4378690     23  1.900                                                                 
     2    -10.8846608     23  1.900                                                                 
     2     54.4233040     23  1.900                                                                 
     3     27.2116520     23  1.800                                                                 
  local pseudopotential read in
  partial core-charges read in
  partial kinetic energy density read in
  kinetic energy density of atom read in
  atomic valenz-charges read in
  non local Contribution for L=           0  read in
    real space projection operators read in
  non local Contribution for L=           0  read in
    real space projection operators read in
  non local Contribution for L=           1  read in
    real space projection operators read in
  non local Contribution for L=           1  read in
    real space projection operators read in
  non local Contribution for L=           2  read in
    real space projection operators read in
  non local Contribution for L=           2  read in
    real space projection operators read in
    PAW grid and wavefunctions read in
 
   number of l-projection  operators is LMAX  =           6
   number of lm-projection operators is LMMAX =          18
 
 POTCAR:    PAW_PBE Cl_GW 19Mar2012               
   SHA256 =  3ef3b3169d6a9a89979f58b4cf17d927a58518fc660d8883d88cacaee8175441 Cl_GW/POTCAR          
   COPYR  = (c) Copyright 19Mar2012 Georg Kresse                                                    
   COPYR  = This file is part of the software VASP. Any use, copying, and all other rights are regul
   COPYR  = If you do not have a valid VASP license, you may not use, copy or distribute this file. 
   VRHFIN =Cl: s2p5                                                                                 
   LEXCH  = PE                                                                                      
   EATOM  =   409.7259 eV,   30.1140 Ry                                                             
                                                                                                    
   TITEL  = PAW_PBE Cl_GW 19Mar2012                                                                 
   LULTRA =        F    use ultrasoft PP ?                                                          
   IUNSCR =        1    unscreen: 0-lin 1-nonlin 2-no                                               
   RPACOR =    1.400    partial core radius                                                         
   POMASS =   35.453; ZVAL   =    7.000    mass and valenz                                          
   RCORE  =    1.900    outmost cutoff radius                                                       
   RWIGS  =    1.900; RWIGS  =    1.005    wigner-seitz radius (au A)                               
   ENMAX  =  262.472; ENMIN  =  196.854 eV                                                          
   ICORE  =        3    local potential                                                             
   LCOR   =        T    correct aug charges                                                         
   LPAW   =        T    paw PP                                                                      
   EAUG   =  456.703                                                                                
   DEXC   =    0.000                                                                                
   RMAX   =    1.945    core radius for proj-oper                                                   
   RAUG   =    1.300    factor for augmentation sphere                                              
   RDEP   =    2.020    radius for radial grids                                                     
   RDEPT  =    1.900    core radius for aug-charge                                                  
                                                                                                    
   Atomic configuration                                                                             
    7 entries                                                                                       
     n  l   j            E        occ.                                                              
     1  0  0.50     -2751.1850   2.0000                                                             
     2  0  0.50      -252.6861   2.0000                                                             
     2  1  1.50      -191.6157   6.0000                                                             
     3  0  0.50       -20.6916   2.0000                                                             
     3  1  0.50        -8.5949   5.0000                                                             
     3  2  1.50        -9.5241   0.0000                                                             
     4  3  2.50        -9.5241   0.0000                                                             
   Description                                                                                      
     l       E           TYP  RCUT    TYP  RCUT                                                     
     0    -20.6915657     23  1.700                                                                 
     0     95.2407820     23  1.800                                                                 
     1     -8.5948577     23  1.900                                                                 
     1     95.2407820     23  1.900                                                                 
     2    -10.8846608     23  1.900                                                                 
     2     54.4233040     23  1.900                                                                 
     3     27.2116520     23  1.900                                                                 
  local pseudopotential read in
  partial core-charges read in
  partial kinetic energy density read in
  kinetic energy density of atom read in
  atomic valenz-charges read in
  non local Contribution for L=           0  read in
    real space projection operators read in
  non local Contribution for L=           0  read in
    real space projection operators read in
  non local Contribution for L=           1  read in
    real space projection operators read in
  non local Contribution for L=           1  read in
    real space projection operators read in
  non local Contribution for L=           2  read in
    real space projection operators read in
  non local Contribution for L=           2  read in
    real space projection operators read in
    PAW grid and wavefunctions read in
 
   number of l-projection  operators is LMAX  =           6
   number of lm-projection operators is LMMAX =          18
 
 Optimization of the real space projectors (new method)

 maximal supplied QI-value         = 25.13
 optimisation between [QCUT,QGAM] = [ 11.56, 23.12] = [ 37.43,149.72] Ry 
 Optimized for a Real-space Cutoff    1.28 Angstroem

   l    n(q)    QCUT    max X(q) W(low)/X(q) W(high)/X(q)  e(spline) 
   0      9    11.561    87.733    0.11E-03    0.32E-04    0.56E-06
   0      9    11.561    82.800    0.11E-03    0.35E-04    0.56E-06
   0      9    11.561     2.509    0.22E-03    0.42E-04    0.79E-06
   1      8    11.561    12.580    0.94E-04    0.26E-03    0.21E-06
   1      8    11.561     1.319    0.33E-04    0.15E-03    0.19E-06
   2      8    11.561     1.993    0.36E-04    0.89E-04    0.26E-06
 Optimization of the real space projectors (new method)

 maximal supplied QI-value         = 18.90
 optimisation between [QCUT,QGAM] = [ 11.53, 23.24] = [ 37.21,151.29] Ry 
 Optimized for a Real-space Cutoff    1.21 Angstroem

   l    n(q)    QCUT    max X(q) W(low)/X(q) W(high)/X(q)  e(spline) 
   0      8    11.527     8.355    0.73E-04    0.70E-04    0.26E-07
   0      8    11.527     1.401    0.17E-03    0.17E-03    0.63E-07
   1      8    11.527     4.747    0.13E-03    0.17E-03    0.11E-06
   1      8    11.527     2.025    0.16E-03    0.18E-03    0.12E-06
   2      7    11.527     3.169    0.51E-04    0.25E-03    0.60E-07
   2      7    11.527     3.441    0.82E-04    0.22E-03    0.14E-06
 Optimization of the real space projectors (new method)

 maximal supplied QI-value         = 19.84
 optimisation between [QCUT,QGAM] = [ 11.51, 23.22] = [ 37.09,150.92] Ry 
 Optimized for a Real-space Cutoff    1.49 Angstroem

   l    n(q)    QCUT    max X(q) W(low)/X(q) W(high)/X(q)  e(spline) 
   0     10    11.508     7.541    0.34E-04    0.13E-04    0.69E-07
   0     10    11.508     1.809    0.49E-04    0.27E-04    0.14E-06
   1     10    11.508     4.107    0.27E-05    0.41E-05    0.14E-06
   1     10    11.508     2.196    0.26E-05    0.25E-05    0.22E-06
   2      9    11.508     4.265    0.18E-03    0.11E-03    0.81E-06
   2      9    11.508     1.925    0.97E-04    0.76E-04    0.47E-06
 Optimization of the real space projectors (new method)

 maximal supplied QI-value         = 19.84
 optimisation between [QCUT,QGAM] = [ 11.51, 23.22] = [ 37.09,150.92] Ry 
 Optimized for a Real-space Cutoff    1.21 Angstroem

   l    n(q)    QCUT    max X(q) W(low)/X(q) W(high)/X(q)  e(spline) 
   0      8    11.508     6.761    0.57E-04    0.57E-04    0.35E-07
   0      8    11.508     1.642    0.14E-03    0.14E-03    0.91E-07
   1      8    11.508     3.519    0.20E-04    0.72E-04    0.47E-07
   1      8    11.508     2.150    0.27E-04    0.11E-03    0.89E-07
   2      7    11.508     2.976    0.19E-03    0.33E-03    0.16E-06
   2      7    11.508     1.494    0.14E-03    0.29E-03    0.14E-06
  PAW_PBE Li_sv_GW 25Mar2010            :
 energy of atom  1       EATOM= -200.9989
 kinetic energy error for atom=    0.0127 (will be added to EATOM!!)
  PAW_PBE P_GW 19Mar2012                :
 energy of atom  2       EATOM= -176.0430
 kinetic energy error for atom=    0.0011 (will be added to EATOM!!)
  PAW_PBE S_GW 19Mar2012                :
 energy of atom  3       EATOM= -276.8230
 kinetic energy error for atom=    0.0024 (will be added to EATOM!!)
  PAW_PBE Cl_GW 19Mar2012               :
 energy of atom  4       EATOM= -409.7259
 kinetic energy error for atom=    0.0030 (will be added to EATOM!!)
 
 
 POSCAR: Li24 P4 S20 Cl4
  positions in direct lattice
  velocities in cartesian coordinates
 exchange correlation table for  LEXCH =        8
   RHO(1)=    0.500       N(1)  =     2000
   RHO(2)=  100.500       N(2)  =     4000

 VTST: version 4.1, (05/19/21)

 CHAIN: initializing optimizer
 
 OPT: Using VASP Conjugate-Gradient optimizer
 CHAIN: Read ICHAIN            0
 
 POSCAR: Li24 P4 S20 Cl4
  positions in direct lattice
  velocities in cartesian coordinates
 


--------------------------------------------------------------------------------------------------------


 ion  position               nearest neighbor table
   1  0.989  0.221  0.175-
   2  0.955  0.691  0.667-
   3  0.025  0.213  0.781-
   4  0.011  0.710  0.325-
   5  0.230  0.125  0.949-
   6  0.145  0.810  0.039-
   7  0.673  0.299  0.024-
   8  0.704  0.724  0.977-
   9  0.296  0.982  0.281-
  10  0.484  0.186  0.713-
  11  0.838  0.964  0.807-
  12  0.798  0.028  0.170-
  13  0.293  0.793  0.490-
  14  0.279  0.190  0.533-
  15  0.679  0.839  0.517-
  16  0.838  0.329  0.465-
  17  0.179  0.469  0.655-
  18  0.195  0.516  0.305-
  19  0.725  0.492  0.219-
  20  0.684  0.526  0.783-
  21  0.316  0.450  0.909-
  22  0.454  0.678  0.189-
  23  0.553  0.190  0.340-
  24  0.502  0.812  0.733-
  25  0.500  0.499  0.504-  44 2.05  41 2.05  42 2.05  43 2.07
  26  0.498  0.004  0.013-  40 2.04  38 2.05  39 2.05  37 2.06
  27  0.002  0.509  0.988-  34 2.05  35 2.06  36 2.06  33 2.06
  28  0.992  0.008  0.495-  29 2.03  31 2.05  32 2.05  30 2.06
  29  0.108  0.890  0.626-  28 2.03
  30  0.115  0.130  0.370-  28 2.06
  31  0.865  0.893  0.369-  28 2.05
  32  0.866  0.130  0.615-  28 2.05
  33  0.893  0.642  0.114-  27 2.06
  34  0.872  0.385  0.876-  27 2.05
  35  0.120  0.629  0.856-  27 2.06
  36  0.143  0.391  0.097-  27 2.06
  37  0.636  0.101  0.884-  26 2.06
  38  0.606  0.875  0.143-  26 2.05
  39  0.400  0.151  0.131-  26 2.05
  40  0.351  0.901  0.901-  26 2.04
  41  0.612  0.633  0.384-  25 2.05
  42  0.629  0.367  0.609-  25 2.05
  43  0.381  0.614  0.640-  25 2.07
  44  0.377  0.374  0.384-  25 2.05
  45  0.735  0.757  0.742-
  46  0.763  0.258  0.243-
  47  0.238  0.751  0.259-
  48  0.258  0.265  0.756-
  49  0.000  0.028  0.998-
  50  0.007  0.517  0.485-
  51  0.467  0.001  0.510-
  52  0.541  0.517  0.005-
 
  LATTYP: Found a simple cubic cell.
 ALAT       =     9.6545041478
  
  Lattice vectors:
  
 A1 = (   9.6545041478,   0.0000000000,   0.0000000000)
 A2 = (   0.0000000000,   9.6545041478,   0.0000000000)
 A3 = (   0.0000000000,   0.0000000000,   9.6545041478)


Analysis of symmetry for initial positions (statically):
=====================================================================
 Subroutine PRICEL returns:
 Original cell was already a primitive cell.
 

 Routine SETGRP: Setting up the symmetry group for a 
 simple cubic supercell.


 Subroutine GETGRP returns: Found  1 space group operations
 (whereof  1 operations were pure point group operations)
 out of a pool of 48 trial point group operations.


The static configuration has the point symmetry C_1 .


Analysis of symmetry for dynamics (positions and initial velocities):
=====================================================================
 Subroutine PRICEL returns:
 Original cell was already a primitive cell.
 

 Routine SETGRP: Setting up the symmetry group for a 
 simple cubic supercell.


 Subroutine GETGRP returns: Found  1 space group operations
 (whereof  1 operations were pure point group operations)
 out of a pool of 48 trial point group operations.


The dynamic configuration has the point symmetry C_1 .


Analysis of structural, dynamic, and magnetic symmetry:
=====================================================================
 Subroutine PRICEL returns:
 Original cell was already a primitive cell.
 

 Routine SETGRP: Setting up the symmetry group for a 
 simple cubic supercell.


 Subroutine GETGRP returns: Found  1 space group operations
 (whereof  1 operations were pure point group operations)
 out of a pool of 48 trial point group operations.


The overall configuration has the point symmetry C_1 .


 Subroutine INISYM returns: Found  1 space group operations
 (whereof  1 operations are pure point group operations),
 and found     1 'primitive' translations


----------------------------------------------------------------------------------------

                                     Primitive cell                                     

  volume of cell :     899.8910

  direct lattice vectors                    reciprocal lattice vectors
     9.654504148  0.000000000  0.000000000     0.103578598  0.000000000  0.000000000
     0.000000000  9.654504148  0.000000000     0.000000000  0.103578598  0.000000000
     0.000000000  0.000000000  9.654504148     0.000000000  0.000000000  0.103578598

  length of vectors
     9.654504148  9.654504148  9.654504148     0.103578598  0.103578598  0.103578598

  position of ions in fractional coordinates (direct lattice)
     0.989074516  0.221300422  0.175477424
     0.954505549  0.691466962  0.666790868
     0.024800142  0.213317251  0.781338934
     0.011425237  0.710293846  0.324686735
     0.229960224  0.124583674  0.949154187
     0.144961010  0.810415502  0.038855513
     0.672716548  0.299278932  0.023751519
     0.704443953  0.723835999  0.977332609
     0.295774127  0.982193319  0.280813167
     0.483647819  0.186207201  0.712994886
     0.838484761  0.964357801  0.806522767
     0.797932643  0.027658166  0.170325317
     0.293395305  0.792666049  0.489666361
     0.279393615  0.189915494  0.532949666
     0.679384256  0.839086140  0.516870327
     0.838135015  0.328648096  0.464706996
     0.178672991  0.469233997  0.654710324
     0.195483974  0.515546045  0.305281832
     0.724711260  0.491554389  0.218920670
     0.684276394  0.526083025  0.783119052
     0.315700550  0.450158211  0.909309391
     0.454380984  0.677578623  0.189342716
     0.553282227  0.189560126  0.339532139
     0.502372085  0.812068282  0.733209390
     0.500101017  0.498607725  0.504184602
     0.497698717  0.003614030  0.013419888
     0.002358340  0.508851453  0.987867460
     0.992105857  0.007718555  0.494647765
     0.107540778  0.889857889  0.625797773
     0.114970399  0.129686930  0.369666709
     0.864683460  0.892899677  0.368726195
     0.865750258  0.129608749  0.614956612
     0.892830950  0.641545832  0.114161196
     0.871647493  0.385178086  0.876111924
     0.119541960  0.628678391  0.856331586
     0.142592947  0.391352336  0.097341669
     0.636350017  0.101363915  0.883872509
     0.605625569  0.875329476  0.143291622
     0.399973636  0.151385473  0.130960430
     0.350899100  0.901108402  0.900573187
     0.611945420  0.632735833  0.383634663
     0.628856751  0.366510709  0.609256177
     0.381246674  0.614083497  0.639715018
     0.377427958  0.374292332  0.383665184
     0.734803208  0.756996206  0.742136866
     0.763030410  0.258418238  0.243287011
     0.238266438  0.750726342  0.258629385
     0.257720080  0.265351796  0.756303334
     0.000072110  0.028347927  0.997964226
     0.007114928  0.517397002  0.485053506
     0.467253425  0.001250361  0.510093354
     0.541318906  0.517499076  0.005237092

  ion indices of the primitive-cell ions
   primitive index   ion index
                 1           1
                 2           2
                 3           3
                 4           4
                 5           5
                 6           6
                 7           7
                 8           8
                 9           9
                10          10
                11          11
                12          12
                13          13
                14          14
                15          15
                16          16
                17          17
                18          18
                19          19
                20          20
                21          21
                22          22
                23          23
                24          24
                25          25
                26          26
                27          27
                28          28
                29          29
                30          30
                31          31
                32          32
                33          33
                34          34
                35          35
                36          36
                37          37
                38          38
                39          39
                40          40
                41          41
                42          42
                43          43
                44          44
                45          45
                46          46
                47          47
                48          48
                49          49
                50          50
                51          51
                52          52

----------------------------------------------------------------------------------------

 
 
 KPOINTS: Automatic mesh                          

Automatic generation of k-mesh.
 Grid dimensions read from file:
 generate k-points for:    2    2    2

 Generating k-lattice:

  Cartesian coordinates                     Fractional coordinates (reciprocal lattice)
     0.051789299  0.000000000  0.000000000     0.500000000  0.000000000  0.000000000
     0.000000000  0.051789299  0.000000000     0.000000000  0.500000000  0.000000000
     0.000000000  0.000000000  0.051789299     0.000000000  0.000000000  0.500000000

  Length of vectors
     0.051789299  0.051789299  0.051789299

  Shift w.r.t. Gamma in fractional coordinates (k-lattice)
     0.500000000  0.500000000  0.500000000

 
 Subroutine IBZKPT returns following result:
 ===========================================
 
 Found      4 irreducible k-points:
 
 Following reciprocal coordinates:
            Coordinates               Weight
  0.250000  0.250000  0.250000      2.000000
 -0.250000  0.250000  0.250000      2.000000
 -0.250000 -0.250000  0.250000      2.000000
  0.250000 -0.250000  0.250000      2.000000
 
 Following cartesian coordinates:
            Coordinates               Weight
  0.025895  0.025895  0.025895      2.000000
 -0.025895  0.025895  0.025895      2.000000
 -0.025895 -0.025895  0.025895      2.000000
  0.025895 -0.025895  0.025895      2.000000
 


--------------------------------------------------------------------------------------------------------




 Dimension of arrays:
   k-points           NKPTS =      4   k-points in BZ     NKDIM =      4   number of bands    NBANDS=    176
   number of dos      NEDOS =    301   number of ions     NIONS =     52
   non local maximal  LDIM  =      6   non local SUM 2l+1 LMDIM =     18
   total plane-waves  NPLWV = 373248
   max r-space proj   IRMAX =   5787   max aug-charges    IRDMAX=  17703
   dimension x,y,z NGX =    72 NGY =   72 NGZ =   72
   dimension x,y,z NGXF=   144 NGYF=  144 NGZF=  144
   support grid    NGXF=   144 NGYF=  144 NGZF=  144
   ions per type =              24   4  20   4
   NGX,Y,Z   is equivalent  to a cutoff of  12.40, 12.40, 12.40 a.u.
   NGXF,Y,Z  is equivalent  to a cutoff of  24.80, 24.80, 24.80 a.u.

 SYSTEM =  unknown system                          
 POSCAR =  Li24 P4 S20 Cl4                         

 Startparameter for this run:
   NWRITE =      2    write-flag & timer
   PREC   = accu      normal or accurate (medium, high low for compatibility)
   ISTART =      0    job   : 0-new  1-cont  2-samecut
   ICHARG =      2    charge: 1-file 2-atom 10-const
   ISPIN  =      2    spin polarized calculation?
   LNONCOLLINEAR =      F non collinear calculations
   LSORBIT =      F    spin-orbit coupling
   INIWAV =      1    electr: 0-lowe 1-rand  2-diag
   LASPH  =      T    aspherical Exc in radial PAW
 Electronic Relaxation 1
   ENCUT  =  520.0 eV  38.22 Ry    6.18 a.u.  17.95 17.95 17.95*2*pi/ulx,y,z
   ENINI  =  520.0     initial cutoff
   ENAUG  = 1041.7 eV  augmentation charge cutoff
   NELM   =    100;   NELMIN=  2; NELMDL=-10     # of ELM steps 
   EDIFF  = 0.1E-05   stopping-criterion for ELM
   LREAL  =      T    real-space projection
   NLSPLINE    = F    spline interpolate recip. space projectors
   LCOMPAT=      F    compatible to vasp.4.4
   GGA_COMPAT  = T    GGA compatible to vasp.4.4-vasp.4.6
   LMAXPAW     = -100 max onsite density
   LMAXMIX     =    4 max onsite mixed and CHGCAR
   VOSKOWN=      0    Vosko Wilk Nusair interpolation
   ROPT   =   -0.00025  -0.00025  -0.00025  -0.00025
 Ionic relaxation
   EDIFFG = -.1E-02   stopping-criterion for IOM
   NSW    =   1000    number of steps for IOM
   NBLOCK =      1;   KBLOCK =   1000    inner block; outer block 
   IBRION =      2    ionic relax: 0-MD 1-quasi-New 2-CG
   NFREE  =      1    steps in history (QN), initial steepest desc. (CG)
   ISIF   =      2    stress and relaxation
   IWAVPR =     11    prediction:  0-non 1-charg 2-wave 3-comb
   ISYM   =      2    0-nonsym 1-usesym 2-fastsym
   LCORR  =      T    Harris-Foulkes like correction to forces

   POTIM  = 0.2000    time-step for ionic-motion
   TEIN   =    0.0    initial temperature
   TEBEG  =    0.0;   TEEND  =   0.0 temperature during run
   SMASS  =  -3.00    Nose mass-parameter (am)
   estimated Nose-frequenzy (Omega)   =  0.10E-29 period in steps = 0.31E+47 mass=  -0.213E-26a.u.
   SCALEE = 1.0000    scale energy and forces
   NPACO  =    256;   APACO  = 10.0  distance and # of slots for P.C.
   PSTRESS=    0.0 pullay stress

  Mass of Ions in am
   POMASS =   7.01 30.97 32.07 35.45
  Ionic Valenz
   ZVAL   =   3.00  5.00  6.00  7.00
  Atomic Wigner-Seitz radii
   RWIGS  =  -1.00 -1.00 -1.00 -1.00
  virtual crystal weights 
   VCA    =   1.00  1.00  1.00  1.00
   NELECT =     240.0000    total number of electrons
   NUPDOWN=      -1.0000    fix difference up-down

 DOS related values:
   EMIN   =  10.00;   EMAX   =-10.00  energy-range for DOS
   EFERMI =   0.00;   METHOD = LEGACY      
   ISMEAR =     0;   SIGMA  =   0.03  broadening in eV -4-tet -1-fermi 0-gaus

 Electronic relaxation 2 (details)
   IALGO  =     68    algorithm
   LDIAG  =      T    sub-space diagonalisation (order eigenvalues)
   LSUBROT=      F    optimize rotation matrix (better conditioning)
   TURBO    =      0    0=normal 1=particle mesh
   IRESTART =      0    0=no restart 2=restart with 2 vectors
   NREBOOT  =      0    no. of reboots
   NMIN     =      0    reboot dimension
   EREF     =   0.00    reference energy to select bands
   IMIX   =      4    mixing-type and parameters
     AMIX     =   0.40;   BMIX     =  1.00
     AMIX_MAG =   1.60;   BMIX_MAG =  1.00
     AMIN     =   0.10
     WC   =   100.;   INIMIX=   1;  MIXPRE=   1;  MAXMIX= -45

 Intra band minimization:
   WEIMIN = 0.0010     energy-eigenvalue tresh-hold
   EBREAK =  0.14E-08  absolut break condition
   DEPER  =   0.30     relativ break condition  

   TIME   =   0.40     timestep for ELM

  volume/ion in A,a.u.               =      17.31       116.78
  Fermi-wavevector in a.u.,A,eV,Ry     =   1.053777  1.991349 15.108527  1.110445
  Thomas-Fermi vector in A             =   2.188911
 
 Write flags
   LWAVE        =      F    write WAVECAR
   LDOWNSAMPLE  =      F    k-point downsampling of WAVECAR
   LCHARG       =      F    write CHGCAR
   LVTOT        =      F    write LOCPOT, total local potential
   LVHAR        =      F    write LOCPOT, Hartree potential only
   LELF         =      F    write electronic localiz. function (ELF)
   LORBIT       =      0    0 simple, 1 ext, 2 COOP (PROOUT), +10 PAW based schemes


 Dipole corrections
   LMONO  =      F    monopole corrections only (constant potential shift)
   LDIPOL =      F    correct potential (dipole corrections)
   IDIPOL =      0    1-x, 2-y, 3-z, 4-all directions 
   EPSILON=  1.0000000 bulk dielectric constant

 Exchange correlation treatment:
   GGA     =    PE    GGA type
   LEXCH   =     8    internal setting for exchange type
   LIBXC   =     F    Libxc                    
   VOSKOWN =     0    Vosko Wilk Nusair interpolation
   LHFCALC =     F    Hartree Fock is set to
   LHFONE  =     F    Hartree Fock one center treatment
   AEXX    =    0.0000 exact exchange contribution

 Linear response parameters
   LEPSILON=     F    determine dielectric tensor
   LRPA    =     F    only Hartree local field effects (RPA)
   LNABLA  =     F    use nabla operator in PAW spheres
   LVEL    =     F    velocity operator in full k-point grid
   CSHIFT  =0.1000    complex shift for real part using Kramers Kronig
   OMEGAMAX=  -1.0    maximum frequency
   DEG_THRESHOLD= 0.2000000E-02 threshold for treating states as degnerate
   RTIME   =   -0.100 relaxation time in fs
  (WPLASMAI=    0.000 imaginary part of plasma frequency in eV, 0.658/RTIME)
   DFIELD  = 0.0000000 0.0000000 0.0000000 field for delta impulse in time
 
  Optional k-point grid parameters
   LKPOINTS_OPT  =     F    use optional k-point grid
   KPOINTS_OPT_MODE=     1    mode for optional k-point grid
 
 Orbital magnetization related:
   ORBITALMAG=     F  switch on orbital magnetization
   LCHIMAG   =     F  perturbation theory with respect to B field
   DQ        =  0.001000  dq finite difference perturbation B field
   LLRAUG    =     F  two centre corrections for induced B field
   LBONE     =     F  B-component reconstruction in AE one-centre
   LVGVCALC  =     T  calculate vGv susceptibility
   LVGVAPPL  =     F  apply vGv susceptibility instead of pGv for G=0

 Random number generation:
   RANDOM_GENERATOR = DEFAULT
   PCG_SEED         = not used


--------------------------------------------------------------------------------------------------------


 conjugate gradient relaxation of ions
 charge density and potential will be updated during run
 spin polarized calculation
 RMM-DIIS sequential band-by-band and
  variant of blocked Davidson during initial phase
 perform sub-space diagonalisation
    before iterative eigenvector-optimisation
 modified Broyden-mixing scheme, WC =      100.0
 initial mixing is a Kerker type mixing with AMIX =  0.4000 and BMIX =      1.0000
 Hartree-type preconditioning will be used
 using additional bands           56
 real space projection scheme for non local part
 use partial core corrections
 calculate Harris-corrections to forces 
   (improved forces if not selfconsistent)
 use gradient corrections 
 use of overlap-Matrix (Vanderbilt PP)
 Gauss-broadening in eV      SIGMA  =   0.03


--------------------------------------------------------------------------------------------------------


  energy-cutoff  :      520.00
  volume of cell :      899.89
      direct lattice vectors                 reciprocal lattice vectors
     9.654504148  0.000000000  0.000000000     0.103578598  0.000000000  0.000000000
     0.000000000  9.654504148  0.000000000     0.000000000  0.103578598  0.000000000
     0.000000000  0.000000000  9.654504148     0.000000000  0.000000000  0.103578598

  length of vectors
     9.654504148  9.654504148  9.654504148     0.103578598  0.103578598  0.103578598


 
 k-points in units of 2pi/SCALE and weight: Automatic mesh                          
   0.02589465  0.02589465  0.02589465       0.250
  -0.02589465  0.02589465  0.02589465       0.250
  -0.02589465 -0.02589465  0.02589465       0.250
   0.02589465 -0.02589465  0.02589465       0.250
 
 k-points in reciprocal lattice and weights: Automatic mesh                          
   0.25000000  0.25000000  0.25000000       0.250
  -0.25000000  0.25000000  0.25000000       0.250
  -0.25000000 -0.25000000  0.25000000       0.250
   0.25000000 -0.25000000  0.25000000       0.250
 
 position of ions in fractional coordinates (direct lattice) 
   0.98907452  0.22130042  0.17547742
   0.95450555  0.69146696  0.66679087
   0.02480014  0.21331725  0.78133893
   0.01142524  0.71029385  0.32468673
   0.22996022  0.12458367  0.94915419
   0.14496101  0.81041550  0.03885551
   0.67271655  0.29927893  0.02375152
   0.70444395  0.72383600  0.97733261
   0.29577413  0.98219332  0.28081317
   0.48364782  0.18620720  0.71299489
   0.83848476  0.96435780  0.80652277
   0.79793264  0.02765817  0.17032532
   0.29339531  0.79266605  0.48966636
   0.27939361  0.18991549  0.53294967
   0.67938426  0.83908614  0.51687033
   0.83813501  0.32864810  0.46470700
   0.17867299  0.46923400  0.65471032
   0.19548397  0.51554604  0.30528183
   0.72471126  0.49155439  0.21892067
   0.68427639  0.52608302  0.78311905
   0.31570055  0.45015821  0.90930939
   0.45438098  0.67757862  0.18934272
   0.55328223  0.18956013  0.33953214
   0.50237209  0.81206828  0.73320939
   0.50010102  0.49860772  0.50418460
   0.49769872  0.00361403  0.01341989
   0.00235834  0.50885145  0.98786746
   0.99210586  0.00771856  0.49464777
   0.10754078  0.88985789  0.62579777
   0.11497040  0.12968693  0.36966671
   0.86468346  0.89289968  0.36872620
   0.86575026  0.12960875  0.61495661
   0.89283095  0.64154583  0.11416120
   0.87164749  0.38517809  0.87611192
   0.11954196  0.62867839  0.85633159
   0.14259295  0.39135234  0.09734167
   0.63635002  0.10136392  0.88387251
   0.60562557  0.87532948  0.14329162
   0.39997364  0.15138547  0.13096043
   0.35089910  0.90110840  0.90057319
   0.61194542  0.63273583  0.38363466
   0.62885675  0.36651071  0.60925618
   0.38124667  0.61408350  0.63971502
   0.37742796  0.37429233  0.38366518
   0.73480321  0.75699621  0.74213687
   0.76303041  0.25841824  0.24328701
   0.23826644  0.75072634  0.25862939
   0.25772008  0.26535180  0.75630333
   0.00007211  0.02834793  0.99796423
   0.00711493  0.51739700  0.48505351
   0.46725343  0.00125036  0.51009335
   0.54131891  0.51749908  0.00523709
 
 position of ions in cartesian coordinates  (Angst):
   9.54902402  2.13654584  1.69414752
   9.21527778  6.67577065  6.43753520
   0.23943307  2.05947229  7.54343998
   0.11030500  6.85753488  3.13468943
   2.22015194  1.20279360  9.16361303
   1.39952668  7.82415983  0.37513071
   6.49474470  2.88938969  0.22930914
   6.80105707  6.98827766  9.43566173
   2.85555254  9.48258947  2.71111188
   4.66937987  1.79773820  6.88361208
   8.09515460  9.31039639  7.78657740
   7.70364401  0.26702588  1.64440648
   2.83258619  7.65279766  4.72748591
   2.69740681  1.83353992  5.14536476
   6.55911812  8.10096062  4.99012671
   8.09177798  3.17293441  4.48651562
   1.72499914  4.53022157  6.32090354
   1.88730083  4.97734143  2.94734471
   6.99672786  4.74571388  2.11357051
   6.60634928  5.07907074  7.56062613
   3.04793227  4.34605431  8.77893128
   4.38682310  6.54168563  1.82801004
   5.34166555  1.83010903  3.27801444
   4.85015338  7.84011660  7.07877310
   4.82822735  4.81381035  4.86765233
   4.80503433  0.03489166  0.12956236
   0.02276860  4.91270846  9.53737049
   9.57829011  0.07451882  4.77557890
   1.03825288  8.59113668  6.04176720
   1.10998219  1.25206301  3.56894877
   8.34809005  8.62050363  3.55986858
   8.35838945  1.25130820  5.93710116
   8.61984011  6.19380689  1.10216974
   8.41532433  3.71870343  8.45842620
   1.15411835  6.06957813  8.26745685
   1.37666420  3.77831275  0.93978555
   6.14364388  0.97861834  8.53335080
   5.84701457  8.45087205  1.38340956
   3.86154712  1.46155167  1.26435801
   3.38775682  8.69975480  8.69458757
   5.90802960  6.10875072  3.70380245
   6.07130011  3.53847916  5.88206629
   3.68074760  5.92867166  6.17613130
   3.64387979  3.61360687  3.70409711
   7.09416062  7.30842301  7.16496345
   7.36668025  2.49489995  2.34881546
   2.30034431  7.24789058  2.49693847
   2.48815958  2.56184001  7.30173367
   0.00069619  0.27368518  9.63484976
   0.06869110  4.99521151  4.68295108
   4.51110013  0.01207162  4.92469840
   5.22616563  4.99619697  0.05056153
 


--------------------------------------------------------------------------------------------------------


 k-point   1 :   0.2500 0.2500 0.2500  plane waves:   24252
 k-point   2 :  -0.2500 0.2500 0.2500  plane waves:   24252
 k-point   3 :  -0.2500-0.2500 0.2500  plane waves:   24252
 k-point   4 :   0.2500-0.2500 0.2500  plane waves:   24252

 maximum and minimum number of plane-waves per node :       778      744

 maximum number of plane-waves:     24252
 maximum index in each direction: 
   IXMAX=   18   IYMAX=   18   IZMAX=   17
   IXMIN=  -18   IYMIN=  -18   IZMIN=  -18


 real space projection operators:
  total allocation   :      28404.05 KBytes
  max/ min on nodes  :       1199.77        715.05


 parallel 3D FFT for wavefunctions:
    minimum data exchange during FFTs selected (reduces bandwidth)
 parallel 3D FFT for charge:
    minimum data exchange during FFTs selected (reduces bandwidth)


 total amount of memory used by VASP MPI-rank0    48169. kBytes
=======================================================================

   base      :      30000. kBytes
   nonlr-proj:       6509. kBytes
   fftplans  :       1747. kBytes
   grid      :       5278. kBytes
   one-center:         62. kBytes
   wavefun   :       4573. kBytes
 
     INWAV:  cpu time      0.0000: real time      0.0000
 Broyden mixing: mesh for mixing (old mesh)
   NGX = 35   NGY = 35   NGZ = 35
  (NGX  =144   NGY  =144   NGZ  =144)
  gives a total of  42875 points

 initial charge density was supplied:
 charge density of overlapping atoms calculated
 number of electron     240.0000000 magnetization      52.0000000
 keeping initial charge density in first step


--------------------------------------------------------------------------------------------------------


 Maximum index for non-local projection operator          572
 Maximum index for augmentation-charges          798 (set IRDMAX)


--------------------------------------------------------------------------------------------------------


 First call to EWALD:  gamma=   0.184
 Maximum number of real-space cells 3x 3x 3
 Maximum number of reciprocal cells 3x 3x 3

    FEWALD:  cpu time      0.0028: real time      0.0035


--------------------------------------- Ionic step        1  -------------------------------------------




--------------------------------------- Iteration      1(   1)  ---------------------------------------


    POTLOK:  cpu time      0.0530: real time      0.0801
    SETDIJ:  cpu time      0.4051: real time      0.4119
     EDDAV:  cpu time      2.2738: real time      2.3575
       DOS:  cpu time      0.0024: real time      0.0038
    --------------------------------------------
      LOOP:  cpu time      2.7342: real time      2.8532

 eigenvalue-minimisations  :  3080
 total energy-change (2. order) : 0.1593164E+04  (-0.1137968E+05)
 number of electron     240.0000000 magnetization      52.0000000
 augmentation part      240.0000000 magnetization      52.0000000

 Free energy of the ion-electron system (eV)
  ---------------------------------------------------
  alpha Z        PSCENC =       301.65597407
  Ewald energy   TEWEN  =     -8833.72131434
  -Hartree energ DENC   =     -2100.06681016
  -exchange      EXHF   =         0.00000000
  -V(xc)+E(xc)   XCENC  =       534.33657216
  PAW double counting   =      8141.38806575    -8271.61346273
  entropy T*S    EENTRO =        -0.00843508
  eigenvalues    EBANDS =      -881.94633374
  atomic energy  EATOM  =     12703.13999606
  Solvation  Ediel_sol  =         0.00000000
  ---------------------------------------------------
  free energy    TOTEN  =      1593.16425198 eV

  energy without entropy =     1593.17268706  energy(sigma->0) =     1593.16846952


--------------------------------------------------------------------------------------------------------




--------------------------------------- Iteration      1(   2)  ---------------------------------------


     EDDAV:  cpu time      2.6403: real time      2.6670
       DOS:  cpu time      0.0005: real time      0.0005
    --------------------------------------------
      LOOP:  cpu time      2.6407: real time      2.6675

 eigenvalue-minimisations  :  3848
 total energy-change (2. order) :-0.1648467E+04  (-0.1552546E+04)
 number of electron     240.0000000 magnetization      52.0000000
 augmentation part      240.0000000 magnetization      52.0000000

 Free energy of the ion-electron system (eV)
  ---------------------------------------------------
  alpha Z        PSCENC =       301.65597407
  Ewald energy   TEWEN  =     -8833.72131434
  -Hartree energ DENC   =     -2100.06681016
  -exchange      EXHF   =         0.00000000
  -V(xc)+E(xc)   XCENC  =       534.33657216
  PAW double counting   =      8141.38806575    -8271.61346273
  entropy T*S    EENTRO =        -0.00000000
  eigenvalues    EBANDS =     -2530.42135501
  atomic energy  EATOM  =     12703.13999606
  Solvation  Ediel_sol  =         0.00000000
  ---------------------------------------------------
  free energy    TOTEN  =       -55.30233420 eV

  energy without entropy =      -55.30233420  energy(sigma->0) =      -55.30233420


--------------------------------------------------------------------------------------------------------




--------------------------------------- Iteration      1(   3)  ---------------------------------------


     EDDAV:  cpu time      2.6443: real time      2.6653
       DOS:  cpu time      0.0004: real time      0.0004
    --------------------------------------------
      LOOP:  cpu time      2.6447: real time      2.6657

 eigenvalue-minimisations  :  3800
 total energy-change (2. order) :-0.1730644E+03  (-0.1710188E+03)
 number of electron     240.0000000 magnetization      52.0000000
 augmentation part      240.0000000 magnetization      52.0000000

 Free energy of the ion-electron system (eV)
  ---------------------------------------------------
  alpha Z        PSCENC =       301.65597407
  Ewald energy   TEWEN  =     -8833.72131434
  -Hartree energ DENC   =     -2100.06681016
  -exchange      EXHF   =         0.00000000
  -V(xc)+E(xc)   XCENC  =       534.33657216
  PAW double counting   =      8141.38806575    -8271.61346273
  entropy T*S    EENTRO =        -0.00000000
  eigenvalues    EBANDS =     -2703.48573885
  atomic energy  EATOM  =     12703.13999606
  Solvation  Ediel_sol  =         0.00000000
  ---------------------------------------------------
  free energy    TOTEN  =      -228.36671805 eV

  energy without entropy =     -228.36671805  energy(sigma->0) =     -228.36671805


--------------------------------------------------------------------------------------------------------




--------------------------------------- Iteration      1(   4)  ---------------------------------------


     EDDAV:  cpu time      3.1662: real time      3.1905
       DOS:  cpu time      0.0004: real time      0.0004
    --------------------------------------------
      LOOP:  cpu time      3.1666: real time      3.1909

 eigenvalue-minimisations  :  4760
 total energy-change (2. order) :-0.1321326E+02  (-0.1318896E+02)
 number of electron     240.0000000 magnetization      52.0000000
 augmentation part      240.0000000 magnetization      52.0000000

 Free energy of the ion-electron system (eV)
  ---------------------------------------------------
  alpha Z        PSCENC =       301.65597407
  Ewald energy   TEWEN  =     -8833.72131434
  -Hartree energ DENC   =     -2100.06681016
  -exchange      EXHF   =         0.00000000
  -V(xc)+E(xc)   XCENC  =       534.33657216
  PAW double counting   =      8141.38806575    -8271.61346273
  entropy T*S    EENTRO =        -0.00000000
  eigenvalues    EBANDS =     -2716.69899522
  atomic energy  EATOM  =     12703.13999606
  Solvation  Ediel_sol  =         0.00000000
  ---------------------------------------------------
  free energy    TOTEN  =      -241.57997442 eV

  energy without entropy =     -241.57997442  energy(sigma->0) =     -241.57997442


--------------------------------------------------------------------------------------------------------




--------------------------------------- Iteration      1(   5)  ---------------------------------------


     EDDAV:  cpu time      2.9623: real time      2.9849
       DOS:  cpu time      0.0004: real time      0.0004
    --------------------------------------------
      LOOP:  cpu time      2.9628: real time      2.9853

 eigenvalue-minimisations  :  4456
 total energy-change (2. order) :-0.2427952E+00  (-0.2426867E+00)
 number of electron     240.0000000 magnetization      52.0000000
 augmentation part      240.0000000 magnetization      52.0000000

 Free energy of the ion-electron system (eV)
  ---------------------------------------------------
  alpha Z        PSCENC =       301.65597407
  Ewald energy   TEWEN  =     -8833.72131434
  -Hartree energ DENC   =     -2100.06681016
  -exchange      EXHF   =         0.00000000
  -V(xc)+E(xc)   XCENC  =       534.33657216
  PAW double counting   =      8141.38806575    -8271.61346273
  entropy T*S    EENTRO =        -0.00000000
  eigenvalues    EBANDS =     -2716.94179039
  atomic energy  EATOM  =     12703.13999606
  Solvation  Ediel_sol  =         0.00000000
  ---------------------------------------------------
  free energy    TOTEN  =      -241.82276959 eV

  energy without entropy =     -241.82276959  energy(sigma->0) =     -241.82276959


--------------------------------------------------------------------------------------------------------




--------------------------------------- Iteration      1(   6)  ---------------------------------------


     EDDAV:  cpu time      3.0778: real time      3.1006
       DOS:  cpu time      0.0004: real time      0.0004
    --------------------------------------------
      LOOP:  cpu time      3.0782: real time      3.1010

 eigenvalue-minimisations  :  4664
 total energy-change (2. order) :-0.1146323E-01  (-0.1146197E-01)
 number of electron     240.0000000 magnetization      52.0000000
 augmentation part      240.0000000 magnetization      52.0000000

 Free energy of the ion-electron system (eV)
  ---------------------------------------------------
  alpha Z        PSCENC =       301.65597407
  Ewald energy   TEWEN  =     -8833.72131434
  -Hartree energ DENC   =     -2100.06681016
  -exchange      EXHF   =         0.00000000
  -V(xc)+E(xc)   XCENC  =       534.33657216
  PAW double counting   =      8141.38806575    -8271.61346273
  entropy T*S    EENTRO =        -0.00000000
  eigenvalues    EBANDS =     -2716.95325362
  atomic energy  EATOM  =     12703.13999606
  Solvation  Ediel_sol  =         0.00000000
  ---------------------------------------------------
  free energy    TOTEN  =      -241.83423282 eV

  energy without entropy =     -241.83423282  energy(sigma->0) =     -241.83423282


--------------------------------------------------------------------------------------------------------




--------------------------------------- Iteration      1(   7)  ---------------------------------------


     EDDAV:  cpu time      3.2383: real time      3.2682
       DOS:  cpu time      0.0004: real time      0.0004
    --------------------------------------------
      LOOP:  cpu time      3.2387: real time      3.2686

 eigenvalue-minimisations  :  4568
 total energy-change (2. order) :-0.3865514E-03  (-0.3865268E-03)
 number of electron     240.0000000 magnetization      52.0000000
 augmentation part      240.0000000 magnetization      52.0000000

 Free energy of the ion-electron system (eV)
  ---------------------------------------------------
  alpha Z        PSCENC =       301.65597407
  Ewald energy   TEWEN  =     -8833.72131434
  -Hartree energ DENC   =     -2100.06681016
  -exchange      EXHF   =         0.00000000
  -V(xc)+E(xc)   XCENC  =       534.33657216
  PAW double counting   =      8141.38806575    -8271.61346273
  entropy T*S    EENTRO =        -0.00000000
  eigenvalues    EBANDS =     -2716.95364017
  atomic energy  EATOM  =     12703.13999606
  Solvation  Ediel_sol  =         0.00000000
  ---------------------------------------------------
  free energy    TOTEN  =      -241.83461937 eV

  energy without entropy =     -241.83461937  energy(sigma->0) =     -241.83461937


--------------------------------------------------------------------------------------------------------




--------------------------------------- Iteration      1(   8)  ---------------------------------------


     EDDAV:  cpu time      3.0430: real time      3.0781
       DOS:  cpu time      0.0004: real time      0.0004
    --------------------------------------------
      LOOP:  cpu time      3.0434: real time      3.0785

 eigenvalue-minimisations  :  4592
 total energy-change (2. order) :-0.2240979E-04  (-0.2240904E-04)
 number of electron     240.0000000 magnetization      52.0000000
 augmentation part      240.0000000 magnetization      52.0000000

 Free energy of the ion-electron system (eV)
  ---------------------------------------------------
  alpha Z        PSCENC =       301.65597407
  Ewald energy   TEWEN  =     -8833.72131434
  -Hartree energ DENC   =     -2100.06681016
  -exchange      EXHF   =         0.00000000
  -V(xc)+E(xc)   XCENC  =       534.33657216
  PAW double counting   =      8141.38806575    -8271.61346273
  entropy T*S    EENTRO =        -0.00000000
  eigenvalues    EBANDS =     -2716.95366258
  atomic energy  EATOM  =     12703.13999606
  Solvation  Ediel_sol  =         0.00000000
  ---------------------------------------------------
  free energy    TOTEN  =      -241.83464178 eV

  energy without entropy =     -241.83464178  energy(sigma->0) =     -241.83464178


--------------------------------------------------------------------------------------------------------




--------------------------------------- Iteration      1(   9)  ---------------------------------------


     EDDAV:  cpu time      2.9892: real time      3.0125
       DOS:  cpu time      0.0004: real time      0.0004
    --------------------------------------------
      LOOP:  cpu time      2.9896: real time      3.0129

 eigenvalue-minimisations  :  4512
 total energy-change (2. order) :-0.1436232E-05  (-0.1436315E-05)
 number of electron     240.0000000 magnetization      52.0000000
 augmentation part      240.0000000 magnetization      52.0000000

 Free energy of the ion-electron system (eV)
  ---------------------------------------------------
  alpha Z        PSCENC =       301.65597407
  Ewald energy   TEWEN  =     -8833.72131434
  -Hartree energ DENC   =     -2100.06681016
  -exchange      EXHF   =         0.00000000
  -V(xc)+E(xc)   XCENC  =       534.33657216
  PAW double counting   =      8141.38806575    -8271.61346273
  entropy T*S    EENTRO =        -0.00000000
  eigenvalues    EBANDS =     -2716.95366402
  atomic energy  EATOM  =     12703.13999606
  Solvation  Ediel_sol  =         0.00000000
  ---------------------------------------------------
  free energy    TOTEN  =      -241.83464321 eV

  energy without entropy =     -241.83464321  energy(sigma->0) =     -241.83464321


--------------------------------------------------------------------------------------------------------




--------------------------------------- Iteration      1(  10)  ---------------------------------------


     EDDAV:  cpu time      2.0676: real time      2.0832
       DOS:  cpu time      0.0004: real time      0.0004
    CHARGE:  cpu time      0.0683: real time      0.0746
    MIXING:  cpu time      0.0018: real time      0.0031
    --------------------------------------------
      LOOP:  cpu time      2.1381: real time      2.1614

 eigenvalue-minimisations  :  2616
 total energy-change (2. order) :-0.6039772E-07  (-0.6038434E-07)
 number of electron     240.0000018 magnetization      27.2456318
 augmentation part        1.4835803 magnetization      27.6879729

 Broyden mixing:
  rms(total) = 0.63984E+01    rms(broyden)= 0.63978E+01
  rms(prec ) = 0.66355E+01
  weight for this iteration     100.00

 Free energy of the ion-electron system (eV)
  ---------------------------------------------------
  alpha Z        PSCENC =       301.65597407
  Ewald energy   TEWEN  =     -8833.72131434
  -Hartree energ DENC   =     -2100.06681016
  -exchange      EXHF   =         0.00000000
  -V(xc)+E(xc)   XCENC  =       534.33657216
  PAW double counting   =      8141.38806575    -8271.61346273
  entropy T*S    EENTRO =        -0.00000000
  eigenvalues    EBANDS =     -2716.95366408
  atomic energy  EATOM  =     12703.13999606
  Solvation  Ediel_sol  =         0.00000000
  ---------------------------------------------------
  free energy    TOTEN  =      -241.83464327 eV

  energy without entropy =     -241.83464327  energy(sigma->0) =     -241.83464327


--------------------------------------------------------------------------------------------------------




--------------------------------------- Iteration      1(  11)  ---------------------------------------


    POTLOK:  cpu time      0.0545: real time      0.0554
    SETDIJ:  cpu time      0.3986: real time      0.4008
    EDDIAG:  cpu time      0.3659: real time      0.3692
  RMM-DIIS:  cpu time      1.1601: real time      1.1701
    ORTHCH:  cpu time      0.0676: real time      0.0690
       DOS:  cpu time      0.0005: real time      0.0005
    CHARGE:  cpu time      0.0655: real time      0.0681
    MIXING:  cpu time      0.0011: real time      0.0026
    --------------------------------------------
      LOOP:  cpu time      2.1139: real time      2.1357

 eigenvalue-minimisations  :  2816
 total energy-change (2. order) : 0.5557695E+01  (-0.4672525E+01)
 number of electron     240.0000018 magnetization      16.3400025
 augmentation part        1.6991884 magnetization      16.5225135

 Broyden mixing:
  rms(total) = 0.32912E+01    rms(broyden)= 0.32910E+01
  rms(prec ) = 0.34064E+01
  weight for this iteration     100.00

 eigenvalues of (default mixing * dielectric matrix)
  average eigenvalue GAMMA=   0.7247
  0.7247

 Free energy of the ion-electron system (eV)
  ---------------------------------------------------
  alpha Z        PSCENC =       301.65597407
  Ewald energy   TEWEN  =     -8833.72131434
  -Hartree energ DENC   =     -2148.35237611
  -exchange      EXHF   =         0.00000000
  -V(xc)+E(xc)   XCENC  =       542.59098519
  PAW double counting   =      8926.02487966    -9062.28450003
  entropy T*S    EENTRO =        -0.00000000
  eigenvalues    EBANDS =     -2665.33059272
  atomic energy  EATOM  =     12703.13999606
  Solvation  Ediel_sol  =         0.00000000
  ---------------------------------------------------
  free energy    TOTEN  =      -236.27694821 eV

  energy without entropy =     -236.27694821  energy(sigma->0) =     -236.27694821


--------------------------------------------------------------------------------------------------------




--------------------------------------- Iteration      1(  12)  ---------------------------------------


    POTLOK:  cpu time      0.0530: real time      0.0540
    SETDIJ:  cpu time      0.3982: real time      0.4002
    EDDIAG:  cpu time      0.3585: real time      0.3617
  RMM-DIIS:  cpu time      1.2179: real time      1.2277
    ORTHCH:  cpu time      0.0698: real time      0.0704
       DOS:  cpu time      0.0004: real time      0.0004
    CHARGE:  cpu time      0.0649: real time      0.0669
    MIXING:  cpu time      0.0011: real time      0.0011
    --------------------------------------------
      LOOP:  cpu time      2.1638: real time      2.1824

 eigenvalue-minimisations  :  2948
 total energy-change (2. order) :-0.1972276E+02  (-0.2126513E+01)
 number of electron     240.0000018 magnetization       0.5169374
 augmentation part        1.7991388 magnetization       0.8569740

 Broyden mixing:
  rms(total) = 0.20173E+01    rms(broyden)= 0.20173E+01
  rms(prec ) = 0.20784E+01
  weight for this iteration     100.00

 eigenvalues of (default mixing * dielectric matrix)
  average eigenvalue GAMMA=   1.1501
  1.6295  0.6706

 Free energy of the ion-electron system (eV)
  ---------------------------------------------------
  alpha Z        PSCENC =       301.65597407
  Ewald energy   TEWEN  =     -8833.72131434
  -Hartree energ DENC   =     -2172.35068705
  -exchange      EXHF   =         0.00000000
  -V(xc)+E(xc)   XCENC  =       536.26341266
  PAW double counting   =      9277.24926392    -9417.09129190
  entropy T*S    EENTRO =        -0.00000000
  eigenvalues    EBANDS =     -2651.14506509
  atomic energy  EATOM  =     12703.13999606
  Solvation  Ediel_sol  =         0.00000000
  ---------------------------------------------------
  free energy    TOTEN  =      -255.99971167 eV

  energy without entropy =     -255.99971167  energy(sigma->0) =     -255.99971167


--------------------------------------------------------------------------------------------------------




--------------------------------------- Iteration      1(  13)  ---------------------------------------


    POTLOK:  cpu time      0.0526: real time      0.0535
    SETDIJ:  cpu time      0.3990: real time      0.4010
    EDDIAG:  cpu time      0.3568: real time      0.3593
  RMM-DIIS:  cpu time      1.2062: real time      1.2163
    ORTHCH:  cpu time      0.0684: real time      0.0695
       DOS:  cpu time      0.0004: real time      0.0004
    CHARGE:  cpu time      0.0658: real time      0.0675
    MIXING:  cpu time      0.0012: real time      0.0012
    --------------------------------------------
      LOOP:  cpu time      2.1503: real time      2.1688

 eigenvalue-minimisations  :  2900
 total energy-change (2. order) :-0.2478228E+01  (-0.8922303E+00)
 number of electron     240.0000018 magnetization      -1.8910176
 augmentation part        1.9021652 magnetization      -1.7852911

 Broyden mixing:
  rms(total) = 0.67236E+00    rms(broyden)= 0.67236E+00
  rms(prec ) = 0.70440E+00
  weight for this iteration     100.00

 eigenvalues of (default mixing * dielectric matrix)
  average eigenvalue GAMMA=   1.3038
  2.5115  0.7473  0.6527

 Free energy of the ion-electron system (eV)
  ---------------------------------------------------
  alpha Z        PSCENC =       301.65597407
  Ewald energy   TEWEN  =     -8833.72131434
  -Hartree energ DENC   =     -2199.72461008
  -exchange      EXHF   =         0.00000000
  -V(xc)+E(xc)   XCENC  =       537.80878458
  PAW double counting   =      9777.33869651    -9921.13362224
  entropy T*S    EENTRO =        -0.00000000
  eigenvalues    EBANDS =     -2623.84184389
  atomic energy  EATOM  =     12703.13999606
  Solvation  Ediel_sol  =         0.00000000
  ---------------------------------------------------
  free energy    TOTEN  =      -258.47793933 eV

  energy without entropy =     -258.47793933  energy(sigma->0) =     -258.47793933


--------------------------------------------------------------------------------------------------------




--------------------------------------- Iteration      1(  14)  ---------------------------------------


    POTLOK:  cpu time      0.0524: real time      0.0534
    SETDIJ:  cpu time      0.3978: real time      0.3993
    EDDIAG:  cpu time      0.3578: real time      0.3603
  RMM-DIIS:  cpu time      1.5671: real time      1.5796
    ORTHCH:  cpu time      0.0678: real time      0.0686
       DOS:  cpu time      0.0004: real time      0.0004
    CHARGE:  cpu time      0.0647: real time      0.0662
    MIXING:  cpu time      0.0010: real time      0.0010
    --------------------------------------------
      LOOP:  cpu time      2.5091: real time      2.5288

 eigenvalue-minimisations  :  3747
 total energy-change (2. order) :-0.1976033E+00  (-0.1956772E+00)
 number of electron     240.0000018 magnetization      -0.8605242
 augmentation part        1.8707525 magnetization      -0.8337819

 Broyden mixing:
  rms(total) = 0.32249E+00    rms(broyden)= 0.32249E+00
  rms(prec ) = 0.35728E+00
  weight for this iteration     100.00

 eigenvalues of (default mixing * dielectric matrix)
  average eigenvalue GAMMA=   1.2691
  2.6223  1.1724  0.6899  0.5918

 Free energy of the ion-electron system (eV)
  ---------------------------------------------------
  alpha Z        PSCENC =       301.65597407
  Ewald energy   TEWEN  =     -8833.72131434
  -Hartree energ DENC   =     -2201.03182793
  -exchange      EXHF   =         0.00000000
  -V(xc)+E(xc)   XCENC  =       538.25695398
  PAW double counting   =      9854.17183944    -9998.77681227
  entropy T*S    EENTRO =        -0.00000000
  eigenvalues    EBANDS =     -2622.37035163
  atomic energy  EATOM  =     12703.13999606
  Solvation  Ediel_sol  =         0.00000000
  ---------------------------------------------------
  free energy    TOTEN  =      -258.67554262 eV

  energy without entropy =     -258.67554262  energy(sigma->0) =     -258.67554262


--------------------------------------------------------------------------------------------------------




--------------------------------------- Iteration      1(  15)  ---------------------------------------


    POTLOK:  cpu time      0.0521: real time      0.0532
    SETDIJ:  cpu time      0.3968: real time      0.3986
    EDDIAG:  cpu time      0.3564: real time      0.3588
  RMM-DIIS:  cpu time      1.2714: real time      1.2826
    ORTHCH:  cpu time      0.0676: real time      0.0680
       DOS:  cpu time      0.0004: real time      0.0004
    CHARGE:  cpu time      0.0651: real time      0.0666
    MIXING:  cpu time      0.0013: real time      0.0013
    --------------------------------------------
      LOOP:  cpu time      2.2113: real time      2.2296

 eigenvalue-minimisations  :  3061
 total energy-change (2. order) : 0.2690884E-01  (-0.3342551E-01)
 number of electron     240.0000018 magnetization      -0.2340449
 augmentation part        1.8215918 magnetization      -0.2075099

 Broyden mixing:
  rms(total) = 0.67876E-01    rms(broyden)= 0.67873E-01
  rms(prec ) = 0.80110E-01
  weight for this iteration     100.00

 eigenvalues of (default mixing * dielectric matrix)
  average eigenvalue GAMMA=   1.2722
  2.5441  1.5840  0.9462  0.6851  0.6017

 Free energy of the ion-electron system (eV)
  ---------------------------------------------------
  alpha Z        PSCENC =       301.65597407
  Ewald energy   TEWEN  =     -8833.72131434
  -Hartree energ DENC   =     -2196.35651724
  -exchange      EXHF   =         0.00000000
  -V(xc)+E(xc)   XCENC  =       537.89157410
  PAW double counting   =      9824.96262942    -9969.38326472
  entropy T*S    EENTRO =        -0.00000000
  eigenvalues    EBANDS =     -2626.83771114
  atomic energy  EATOM  =     12703.13999606
  Solvation  Ediel_sol  =         0.00000000
  ---------------------------------------------------
  free energy    TOTEN  =      -258.64863378 eV

  energy without entropy =     -258.64863378  energy(sigma->0) =     -258.64863378


--------------------------------------------------------------------------------------------------------




--------------------------------------- Iteration      1(  16)  ---------------------------------------


    POTLOK:  cpu time      0.0519: real time      0.0529
    SETDIJ:  cpu time      0.3982: real time      0.3994
    EDDIAG:  cpu time      0.3561: real time      0.3581
  RMM-DIIS:  cpu time      1.2832: real time      1.2938
    ORTHCH:  cpu time      0.0679: real time      0.0683
       DOS:  cpu time      0.0005: real time      0.0005
    CHARGE:  cpu time      0.0651: real time      0.0671
    MIXING:  cpu time      0.0012: real time      0.0012
    --------------------------------------------
      LOOP:  cpu time      2.2241: real time      2.2412

 eigenvalue-minimisations  :  3078
 total energy-change (2. order) :-0.1993200E-01  (-0.1035539E-01)
 number of electron     240.0000018 magnetization      -0.1105431
 augmentation part        1.7990996 magnetization      -0.0963340

 Broyden mixing:
  rms(total) = 0.30750E-01    rms(broyden)= 0.30747E-01
  rms(prec ) = 0.37181E-01
  weight for this iteration     100.00

 eigenvalues of (default mixing * dielectric matrix)
  average eigenvalue GAMMA=   1.2500
  2.4612  1.9385  1.0371  0.6202  0.6989  0.7439

 Free energy of the ion-electron system (eV)
  ---------------------------------------------------
  alpha Z        PSCENC =       301.65597407
  Ewald energy   TEWEN  =     -8833.72131434
  -Hartree energ DENC   =     -2195.80139450
  -exchange      EXHF   =         0.00000000
  -V(xc)+E(xc)   XCENC  =       537.80644810
  PAW double counting   =      9813.55441809    -9957.74824745
  entropy T*S    EENTRO =        -0.00000000
  eigenvalues    EBANDS =     -2627.55444581
  atomic energy  EATOM  =     12703.13999606
[...]
  0.373  -0.383  -0.001   0.499  -0.105   0.058   0.004  -0.001   0.001   0.006  -0.003  -0.005  -0.005   0.001
  0.392  -0.403  -0.001  -0.105   0.488  -0.097  -0.001   0.004  -0.001  -0.005  -0.003   0.003   0.004   0.004
 -0.280   0.288   0.001   0.058  -0.097   0.840   0.001  -0.001   0.007   0.006  -0.005   0.004   0.005  -0.009
  0.003  -0.003  -0.000   0.004  -0.001   0.001   0.000  -0.000   0.000   0.000  -0.000  -0.000  -0.000   0.000
  0.003  -0.003  -0.000  -0.001   0.004  -0.001  -0.000   0.000  -0.000  -0.000  -0.000   0.000   0.000   0.000
 -0.002   0.001   0.000   0.001  -0.001   0.007   0.000  -0.000   0.000   0.000  -0.000   0.000   0.000  -0.000
  0.010  -0.009  -0.000   0.006  -0.005   0.006   0.000  -0.000   0.000   0.000  -0.000  -0.000  -0.000  -0.000
 -0.012   0.012   0.000  -0.003  -0.003  -0.005  -0.000  -0.000  -0.000  -0.000   0.000   0.000  -0.000  -0.000
 -0.013   0.013   0.000  -0.005   0.003   0.004  -0.000   0.000   0.000  -0.000   0.000   0.000   0.000  -0.000
 -0.013   0.013   0.000  -0.005   0.004   0.005  -0.000   0.000   0.000  -0.000  -0.000   0.000   0.000  -0.000
  0.020  -0.021  -0.000   0.001   0.004  -0.009   0.000   0.000  -0.000  -0.000  -0.000  -0.000  -0.000   0.000
 total augmentation occupancy for first ion, spin component:           2
 -0.000   0.000   0.000   0.000  -0.000   0.000  -0.000  -0.000   0.000   0.000  -0.000   0.000  -0.000  -0.000
  0.000  -0.000  -0.000  -0.000   0.000  -0.000   0.000   0.000  -0.000  -0.000   0.000  -0.000   0.000   0.000
  0.000  -0.000  -0.000   0.000  -0.000  -0.000   0.000   0.000  -0.000   0.000  -0.000  -0.000  -0.000   0.000
  0.000  -0.000   0.000  -0.000   0.000   0.000   0.000   0.000  -0.000  -0.000  -0.000  -0.000  -0.000   0.000
 -0.000   0.000  -0.000   0.000  -0.000  -0.000  -0.000  -0.000  -0.000  -0.000   0.000   0.000  -0.000   0.000
  0.000  -0.000  -0.000   0.000  -0.000  -0.000   0.000   0.000   0.000  -0.000  -0.000  -0.000  -0.000   0.000
 -0.000   0.000   0.000   0.000  -0.000   0.000   0.000  -0.000   0.000   0.000  -0.000   0.000   0.000  -0.000
 -0.000   0.000   0.000   0.000  -0.000   0.000  -0.000  -0.000   0.000   0.000   0.000   0.000  -0.000  -0.000
  0.000  -0.000  -0.000  -0.000  -0.000   0.000   0.000   0.000   0.000  -0.000  -0.000  -0.000   0.000   0.000
  0.000  -0.000   0.000  -0.000  -0.000  -0.000   0.000   0.000  -0.000   0.000   0.000  -0.000  -0.000  -0.000
 -0.000   0.000  -0.000  -0.000   0.000  -0.000  -0.000   0.000  -0.000   0.000   0.000  -0.000   0.000   0.000
  0.000  -0.000  -0.000  -0.000   0.000  -0.000   0.000   0.000  -0.000  -0.000  -0.000   0.000   0.000   0.000
 -0.000   0.000  -0.000  -0.000  -0.000  -0.000   0.000  -0.000   0.000  -0.000   0.000   0.000   0.000   0.000
 -0.000   0.000   0.000   0.000   0.000   0.000  -0.000  -0.000   0.000  -0.000   0.000   0.000   0.000  -0.000


------------------------ aborting loop because EDIFF is reached ----------------------------------------


    CHARGE:  cpu time      0.0664: real time      0.0670
    FORLOC:  cpu time      0.0039: real time      0.0039
    FORNL :  cpu time      0.3987: real time      0.4012
    STRESS:  cpu time      1.1961: real time      1.2034
    FORCOR:  cpu time      0.0504: real time      0.0508
    FORHAR:  cpu time      0.0083: real time      0.0083
    MIXING:  cpu time      0.0007: real time      0.0007
    OFIELD:  cpu time      0.0000: real time      0.0000

 ---------------------------------------------------------------------------------------------

         DFTD3 V3.0 Rev 1        
 Edisp (eV)  -13.59345

 E6    (eV) :    -8.3784
 E8    (eV) :    -5.2150
 % E8        : 38.36
    FORVDW:  cpu time      0.2944: real time      0.2961

  FORCE on cell =-STRESS in cart. coord.  units (eV):
  Direction    XX          YY          ZZ          XY          YZ          ZX
  --------------------------------------------------------------------------------------
  Alpha Z   301.65597   301.65597   301.65597
  Ewald   -2906.27038 -2954.17904 -2973.34612   -26.51737    18.82518   -17.03516
  Hartree   745.80852   730.78382   721.76246   -16.33002     5.99385   -19.09784
  E(xc)    -947.66275  -947.81346  -947.85087    -0.05137     0.06564    -0.02663
  Local   -1545.66921 -1485.98014 -1458.97149    42.39618   -23.68323    38.19960
  n-local  1482.34687  1481.46569  1481.23565     0.02871     0.15316     0.46051
  augment  -356.84870  -356.94722  -357.03825    -0.03941     0.03727    -0.04412
  Kinetic  3241.81088  3244.86088  3246.71788     0.30322    -0.67397    -0.87844
  Fock        0.00000     0.00000     0.00000     0.00000     0.00000     0.00000
  vdW       -14.39766   -14.41226   -14.37706     0.02066    -0.00859     0.00346
  -------------------------------------------------------------------------------------
  Total       0.77355    -0.56575    -0.21183    -0.18942     0.70929     1.58137
  in kB       1.37724    -1.00727    -0.37715    -0.33724     1.26283     2.81549
  external pressure =       -0.00 kB  Pullay stress =        0.00 kB


 VOLUME and BASIS-vectors are now :
 -----------------------------------------------------------------------------
  energy-cutoff  :      520.00
  volume of cell :      899.89
      direct lattice vectors                 reciprocal lattice vectors
     9.654504148  0.000000000  0.000000000     0.103578598  0.000000000  0.000000000
     0.000000000  9.654504148  0.000000000     0.000000000  0.103578598  0.000000000
     0.000000000  0.000000000  9.654504148     0.000000000  0.000000000  0.103578598

  length of vectors
     9.654504148  9.654504148  9.654504148     0.103578598  0.103578598  0.103578598


 FORCES acting on ions
    electron-ion (+dipol)            ewald-force                    non-local-force                 convergence-correction
 -----------------------------------------------------------------------------------------------
   -.582E+01 -.562E+00 -.199E+01   0.506E+01 0.155E+01 0.298E+01   0.756E+00 -.995E+00 -.991E+00   0.610E-04 -.629E-05 -.230E-04
   0.549E+01 0.656E+01 0.280E+01   -.619E+01 -.537E+01 -.188E+01   0.698E+00 -.118E+01 -.923E+00   0.463E-04 -.463E-04 0.610E-04
   0.448E+00 0.411E+01 0.357E+01   0.199E+00 -.318E+01 -.467E+01   -.643E+00 -.939E+00 0.110E+01   0.357E-04 0.111E-04 0.148E-04
   0.780E+01 0.267E+01 -.243E+01   -.711E+01 -.136E+01 0.163E+01   -.689E+00 -.131E+01 0.797E+00   0.164E-04 -.460E-05 0.644E-04
   0.984E+01 -.129E+01 -.429E+00   -.879E+01 0.203E+01 -.957E+00   -.105E+01 -.741E+00 0.139E+01   -.132E-04 -.368E-04 -.920E-05
   0.466E+01 -.491E+01 0.443E+01   -.338E+01 0.417E+01 -.352E+01   -.127E+01 0.738E+00 -.906E+00   0.134E-03 -.350E-04 -.875E-04
   0.112E+02 -.226E+01 0.618E+01   -.100E+02 0.119E+01 -.515E+01   -.121E+01 0.107E+01 -.103E+01   0.941E-04 0.954E-05 -.115E-03
   -.269E+01 -.716E+01 0.195E+01   0.326E+01 0.792E+01 -.262E+01   -.583E+00 -.770E+00 0.667E+00   -.613E-04 0.319E-04 -.843E-04
   -.264E+01 0.120E+01 0.161E+01   0.149E+01 -.185E+01 -.225E+01   0.116E+01 0.647E+00 0.641E+00   0.189E-04 -.279E-04 -.291E-04
   -.554E+01 0.493E+01 0.101E+01   0.501E+01 -.389E+01 0.860E-01   0.524E+00 -.104E+01 -.110E+01   0.965E-07 0.402E-05 0.610E-04
   -.938E+01 0.571E+01 -.660E+01   0.782E+01 -.655E+01 0.563E+01   0.156E+01 0.840E+00 0.958E+00   -.285E-05 0.349E-04 0.197E-04
   -.529E+01 0.674E+01 0.548E+01   0.438E+01 -.614E+01 -.388E+01   0.905E+00 -.593E+00 -.161E+01   -.191E-04 0.330E-04 -.668E-04
   -.561E+01 -.189E+01 -.660E+01   0.441E+01 0.109E+01 0.576E+01   0.121E+01 0.793E+00 0.832E+00   -.451E-04 0.312E-04 0.589E-04
   0.213E+01 0.334E+01 -.315E+01   -.329E+01 -.221E+01 0.396E+01   0.117E+01 -.113E+01 -.814E+00   0.357E-05 -.437E-04 0.747E-04
   0.635E+01 -.969E+01 0.190E+01   -.484E+01 0.853E+01 -.156E+01   -.152E+01 0.116E+01 -.329E+00   0.213E-04 0.241E-04 -.390E-04
   -.828E+01 -.104E+02 -.353E+01   0.722E+01 0.931E+01 0.275E+01   0.106E+01 0.113E+01 0.779E+00   0.170E-04 0.175E-04 0.378E-04
   0.114E+02 0.402E+01 0.761E+01   -.103E+02 -.483E+01 -.657E+01   -.118E+01 0.816E+00 -.104E+01   0.754E-06 -.606E-05 0.528E-04
   0.314E+00 0.859E+01 0.127E+01   0.840E+00 -.797E+01 -.212E+01   -.116E+01 -.612E+00 0.853E+00   0.233E-04 -.314E-04 0.393E-05
   -.927E-01 -.223E+01 -.824E+01   0.781E+00 0.124E+01 0.903E+01   -.693E+00 0.986E+00 -.788E+00   0.292E-04 0.632E-05 -.940E-04
   0.327E+01 0.338E+01 0.473E+01   -.227E+01 -.269E+01 -.588E+01   -.101E+01 -.682E+00 0.115E+01   0.708E-05 -.180E-04 0.671E-05
   -.218E+02 -.815E+01 -.837E+01   0.207E+02 0.673E+01 0.750E+01   0.111E+01 0.142E+01 0.866E+00   -.634E-04 0.456E-04 -.639E-04
   0.106E+02 0.105E+02 0.108E+02   -.116E+02 -.921E+01 -.942E+01   0.971E+00 -.128E+01 -.141E+01   -.694E-04 0.196E-04 -.966E-05
   -.681E+01 0.107E+02 -.999E+01   0.788E+01 -.943E+01 0.847E+01   -.108E+01 -.128E+01 0.152E+01   -.535E-04 -.376E-04 0.296E-04
   0.837E+01 -.616E+01 0.233E+01   -.743E+01 0.509E+01 -.133E+01   -.940E+00 0.108E+01 -.100E+01   -.105E-03 -.109E-03 0.197E-03
   -.463E+01 -.470E+01 -.106E+01   0.497E+01 0.433E+01 0.875E+00   -.337E+00 0.366E+00 0.180E+00   -.702E-04 0.533E-05 0.399E-04
   -.220E+00 0.637E+01 0.463E+01   -.137E+00 -.652E+01 -.445E+01   0.353E+00 0.156E+00 -.186E+00   -.101E-03 -.543E-04 -.459E-04
   0.203E+01 -.376E+01 -.283E+01   -.189E+01 0.358E+01 0.254E+01   -.126E+00 0.196E+00 0.290E+00   0.407E-04 0.103E-03 -.356E-03
   -.107E+01 -.262E+01 -.302E+00   0.112E+01 0.217E+01 0.827E+00   -.550E-01 0.457E+00 -.518E+00   0.156E-03 0.253E-04 0.400E-04
   -.472E+02 0.262E+02 -.662E+02   0.500E+02 -.280E+02 0.707E+02   -.281E+01 0.183E+01 -.453E+01   0.154E-03 0.893E-05 0.602E-04
   -.238E+02 -.469E+02 0.379E+02   0.266E+02 0.504E+02 -.409E+02   -.289E+01 -.354E+01 0.297E+01   -.881E-05 -.125E-03 0.850E-04
   0.437E+02 0.310E+02 0.363E+02   -.470E+02 -.336E+02 -.394E+02   0.329E+01 0.262E+01 0.310E+01   0.134E-03 0.960E-04 0.108E-03
   0.547E+02 -.384E+02 -.264E+02   -.585E+02 0.411E+02 0.284E+02   0.385E+01 -.271E+01 -.207E+01   0.849E-04 0.115E-04 0.145E-03
   0.203E+02 -.516E+02 -.364E+02   -.226E+02 0.557E+02 0.393E+02   0.234E+01 -.409E+01 -.291E+01   -.112E-03 -.143E-03 -.136E-03
   0.350E+02 0.385E+02 0.492E+02   -.379E+02 -.418E+02 -.525E+02   0.290E+01 0.330E+01 0.337E+01   -.612E-04 0.605E-05 0.357E-04
   -.414E+02 -.582E+02 0.346E+02   0.443E+02 0.613E+02 -.370E+02   -.285E+01 -.316E+01 0.240E+01   -.103E-03 -.939E-04 0.158E-03
   -.589E+02 0.324E+02 -.396E+02   0.629E+02 -.353E+02 0.416E+02   -.401E+01 0.287E+01 -.210E+01   0.699E-04 -.172E-03 -.503E-05
   -.421E+02 -.271E+02 0.509E+02   0.456E+02 0.293E+02 -.542E+02   -.349E+01 -.224E+01 0.325E+01   0.133E-03 0.102E-03 -.537E-04
   -.264E+02 0.344E+02 -.543E+02   0.285E+02 -.367E+02 0.582E+02   -.209E+01 0.225E+01 -.390E+01   -.110E-03 0.179E-04 -.208E-03
   0.287E+02 -.711E+02 -.330E+02   -.305E+02 0.754E+02 0.351E+02   0.178E+01 -.423E+01 -.203E+01   -.112E-03 -.192E-03 0.679E-05
   0.562E+02 0.524E+02 0.469E+02   -.598E+02 -.545E+02 -.499E+02   0.352E+01 0.212E+01 0.297E+01   -.136E-03 -.178E-03 0.356E-04
   -.452E+02 -.410E+02 0.224E+02   0.481E+02 0.449E+02 -.250E+02   -.295E+01 -.386E+01 0.258E+01   -.134E-03 -.859E-04 -.167E-04
   -.462E+02 0.442E+02 -.318E+02   0.496E+02 -.476E+02 0.338E+02   -.344E+01 0.336E+01 -.205E+01   0.104E-04 0.848E-04 0.848E-04
   0.274E+02 -.347E+02 -.548E+02   -.307E+02 0.367E+02 0.589E+02   0.331E+01 -.198E+01 -.405E+01   -.665E-04 0.698E-04 0.940E-04
   0.357E+02 0.301E+02 0.545E+02   -.382E+02 -.330E+02 -.581E+02   0.253E+01 0.291E+01 0.355E+01   0.384E-04 -.331E-06 0.255E-04
   -.104E+02 -.732E+00 0.958E+01   0.106E+02 0.707E+00 -.979E+01   -.233E+00 0.273E-01 0.209E+00   0.117E-04 -.128E-03 0.272E-03
   0.154E+01 -.211E+00 -.179E+02   -.160E+01 0.806E-01 0.183E+02   0.604E-01 0.130E+00 -.343E+00   0.140E-04 0.395E-04 -.115E-03
   -.629E+01 -.262E-01 0.186E+02   0.638E+01 0.918E-01 -.190E+02   -.948E-01 -.703E-01 0.433E+00   0.102E-03 0.163E-03 -.711E-04
   -.663E+01 0.867E+01 -.114E+01   0.682E+01 -.880E+01 0.139E+01   -.197E+00 0.127E+00 -.248E+00   -.153E-03 -.211E-04 -.193E-04
   0.410E+00 0.280E+02 0.275E+01   -.555E+00 -.285E+02 -.269E+01   0.149E+00 0.503E+00 -.572E-01   0.932E-04 0.131E-03 -.157E-03
   0.268E+02 0.206E+02 -.286E+01   -.275E+02 -.210E+02 0.275E+01   0.628E+00 0.465E+00 0.109E+00   0.340E-04 0.154E-04 0.218E-03
   -.223E+02 0.667E+01 -.651E+01   0.226E+02 -.681E+01 0.653E+01   -.335E+00 0.139E+00 -.108E-01   -.228E-03 0.202E-03 -.336E-03
   0.448E+02 0.767E+01 0.235E+01   -.453E+02 -.782E+01 -.235E+01   0.514E+00 0.149E+00 0.737E-02   0.132E-03 0.679E-04 -.107E-03
 -----------------------------------------------------------------------------------------------
   0.263E+01 0.378E+01 -.516E-01   0.568E-13 -.107E-13 -.613E-13   -.263E+01 -.378E+01 0.423E-01   -.109E-03 -.177E-03 -.157E-03
 
 
 POSITION                                       TOTAL-FORCE (eV/Angst)
 -----------------------------------------------------------------------------------
      9.54904      2.13653      1.69414         0.000068     -0.000022     -0.000046
      9.21525      6.67574      6.43752        -0.000163     -0.000136     -0.000076
      0.23942      2.05952      7.54346        -0.000068      0.000149      0.000055
      0.11029      6.85752      3.13470        -0.000106     -0.000022      0.000001
      2.22016      1.20276      9.16361         0.000038     -0.000100      0.000019
      1.39946      7.82413      0.37518        -0.000275     -0.000095      0.000229
      6.49463      2.88937      0.22934        -0.000467     -0.000077      0.000175
      6.80099      6.98829      9.43567        -0.000231      0.000044      0.000048
      2.85560      9.48258      2.71113         0.000145      0.000013      0.000040
      4.66939      1.79773      6.88365         0.000048     -0.000021      0.000144
      8.09523      9.31035      7.78656         0.000304     -0.000222     -0.000095
      7.70363      0.26703      1.64435        -0.000067      0.000010     -0.000183
      2.83256      7.65277      4.72752        -0.000073     -0.000131      0.000050
      2.69743      1.83355      5.14536         0.000058      0.000049     -0.000030
      6.55916      8.10094      4.99011         0.000174     -0.000080     -0.000089
      8.09179      3.17292      4.48651         0.000030     -0.000053     -0.000031
      1.72504      4.53021      6.32087         0.000172     -0.000023     -0.000121
      1.88728      4.97733      2.94734        -0.000084     -0.000053     -0.000035
      6.99678      4.74573      2.11356         0.000218      0.000055     -0.000058
      6.60628      5.07907      7.56064        -0.000302     -0.000015      0.000044
      3.04791      4.34607      8.77893        -0.000049      0.000029      0.000003
      4.38680      6.54164      1.82804        -0.000044     -0.000146      0.000134
      5.34169      1.83013      3.27806         0.000106      0.000052      0.000140
      4.85016      7.84029      7.07868         0.000051      0.000717     -0.000329
      4.82822      4.81380      4.86759         0.000135      0.000066      0.000403
      4.80504      0.03492      0.12959        -0.000006     -0.000251      0.000250
      0.02280      4.91277      9.53733        -0.000111      0.000353     -0.000681
      9.57825      0.07458      4.77547         0.000204     -0.000211      0.000310
      1.03828      8.59107      6.04185        -0.000027     -0.000081      0.000065
      1.10998      1.25204      3.56898        -0.000013     -0.000098      0.000096
      8.34811      8.62055      3.55985         0.000159      0.000163      0.000044
      8.35839      1.25131      5.93710         0.000089     -0.000068     -0.000081
      8.61987      6.19386      1.10210         0.000153      0.000113     -0.000220
      8.41527      3.71871      8.45843         0.000092      0.000160      0.000067
      1.15418      6.06965      8.26734         0.000011     -0.000042     -0.000087
      1.37662      3.77837      0.93973        -0.000112      0.000164     -0.000138
      6.14369      0.97855      8.53336        -0.000075     -0.000162      0.000123
      5.84698      8.45086      1.38348        -0.000201      0.000135      0.000023
      3.86158      1.46157      1.26435         0.000152     -0.000052     -0.000162
      3.38772      8.69970      8.69462         0.000004     -0.000069      0.000072
      5.90805      6.10873      3.70382         0.000020     -0.000129      0.000019
      6.07132      3.53843      5.88206        -0.000078     -0.000055     -0.000071
      3.68079      5.92871      6.17620         0.000145     -0.000118     -0.000002
      3.64390      3.61363      3.70412         0.000000      0.000122      0.000072
      7.09414      7.30841      7.16495        -0.000014      0.000019     -0.000019
      7.36669      2.49490      2.34882         0.000014      0.000007     -0.000027
      2.30034      7.24789      2.49696        -0.000040     -0.000069      0.000117
      2.48817      2.56183      7.30175         0.000028     -0.000021     -0.000000
      0.00071      0.27366      9.63485        -0.000034      0.000045      0.000047
      0.06868      4.99518      4.68295         0.000003      0.000028     -0.000069
      4.51113      0.01204      4.92475        -0.000025      0.000181     -0.000141
      5.22611      4.99620      0.05058         0.000043     -0.000053      0.000002
 -----------------------------------------------------------------------------------
    total drift:                                0.000861      0.002952     -0.009461


--------------------------------------------------------------------------------------------------------



  FREE ENERGIE OF THE ION-ELECTRON SYSTEM (eV)
  ---------------------------------------------------
  free  energy   TOTEN  =      -272.26956169 eV

  energy  without entropy=     -272.26956169  energy(sigma->0) =     -272.26956169
 
 d Force = 0.3706704E-06[ 0.254E-06, 0.488E-06]  d Energy = 0.7445743E-06-0.374E-06
 d Force = 0.9105893E-02[ 0.911E-02, 0.911E-02]  d Ewald  = 0.9105893E-02 0.146E-10


--------------------------------------------------------------------------------------------------------


    POTLOK:  cpu time      0.4509: real time      0.4524


--------------------------------------------------------------------------------------------------------


 stress matrix after NEB project (eV)
      0.77355     -0.18942      1.58137
     -0.18942     -0.56575      0.70929
      1.58137      0.70929     -0.21183
  FORCES: max atom, RMS     0.000790    0.000260
  FORCE total and by dimension    0.001875    0.000717
  Stress total and by dimension    2.653819    1.581372


--------------------------------------------------------------------------------------------------------


  
 reached required accuracy - stopping structural energy minimisation
     LOOP+:  cpu time      7.4109: real time      7.4955
    4ORBIT:  cpu time      0.0000: real time      0.0000

 total amount of memory used by VASP MPI-rank0    48169. kBytes
=======================================================================

   base      :      30000. kBytes
   nonlr-proj:       6509. kBytes
   fftplans  :       1747. kBytes
   grid      :       5278. kBytes
   one-center:         62. kBytes
   wavefun   :       4573. kBytes
 
  
  
 General timing and accounting informations for this job:
 ========================================================
  
                  Total CPU time used (sec):      110.737
                            User time (sec):      109.556
                          System time (sec):        1.180
                         Elapsed time (sec):      114.546
  
                   Maximum memory used (kb):      377720.
                   Average memory used (kb):          N/A
  
                          Minor page faults:        58750
                          Major page faults:          139
                 Voluntary context switches:         5554
