<?xml version="1.0" encoding="ISO-8859-1"?>
<modeling>
 <generator>
  <i name="program" type="string">vasp </i>
  <i name="version" type="string">6.4.1  </i>
  <i name="subversion" type="string">05Apr23 (build Jun 07 2023 15:38:11) complex                          parallel </i>
  <i name="platform" type="string">LinuxIFC </i>
  <i name="date" type="string">2023 10 20 </i>
  <i name="time" type="string">08:21:03 </i>
 </generator>
 <incar>
  <i type="string" name="PREC">Accu</i>
  <i type="string" name="ALGO">F</i>
  <i type="logical" name="LDIAG"> T  </i>
  <i type="int" name="ISPIN">     2</i>
  <i type="int" name="NELM">   100</i>
  <i type="int" name="NELMDL">   -10</i>
  <i type="int" name="IBRION">     2</i>
  <i name="EDIFF">      0.00000100</i>
  <i name="EDIFFG">     -0.00100000</i>
  <i type="int" name="NSW">  1000</i>
  <i type="int" name="ISIF">     2</i>
  <i name="ENCUT">    520.00000000</i>
  <i name="POTIM">      0.20000000</i>
  <i type="string" name="LREAL">Auto</i>
  <i type="logical" name="LPLANE"> T  </i>
  <i type="int" name="ISMEAR">     0</i>
  <i name="SIGMA">      0.03000000</i>
  <i type="int" name="LMAXMIX">     4</i>
  <i type="logical" name="LWAVE"> F  </i>
  <i type="logical" name="LCHARG"> F  </i>
  <i type="logical" name="LASPH"> T  </i>
  <i type="string" name="GGA">PE</i>
  <i type="int" name="IVDW">    12</i>
 </incar>
 <primitive_cell>
  <structure name="primitive_cell" >
   <crystal>
    <varray name="basis" >
     <v>       9.65450415       0.00000000       0.00000000 </v>
     <v>       0.00000000       9.65450415       0.00000000 </v>
     <v>       0.00000000       0.00000000       9.65450415 </v>
    </varray>
    <i name="volume">    899.89102493 </i>
    <varray name="rec_basis" >
     <v>       0.10357860       0.00000000       0.00000000 </v>
     <v>       0.00000000       0.10357860       0.00000000 </v>
     <v>       0.00000000       0.00000000       0.10357860 </v>
    </varray>
   </crystal>
   <varray name="positions" >
    <v>       0.98907452       0.22130042       0.17547742 </v>
    <v>       0.95450555       0.69146696       0.66679087 </v>
    <v>       0.02480014       0.21331725       0.78133893 </v>
    <v>       0.01142524       0.71029385       0.32468673 </v>
    <v>       0.22996022       0.12458367       0.94915419 </v>
    <v>       0.14496101       0.81041550       0.03885551 </v>
    <v>       0.67271655       0.29927893       0.02375152 </v>
    <v>       0.70444395       0.72383600       0.97733261 </v>
    <v>       0.29577413       0.98219332       0.28081317 </v>
    <v>       0.48364782       0.18620720       0.71299489 </v>
    <v>       0.83848476       0.96435780       0.80652277 </v>
    <v>       0.79793264       0.02765817       0.17032532 </v>
    <v>       0.29339531       0.79266605       0.48966636 </v>
    <v>       0.27939361       0.18991549       0.53294967 </v>
    <v>       0.67938426       0.83908614       0.51687033 </v>
    <v>       0.83813501       0.32864810       0.46470700 </v>
    <v>       0.17867299       0.46923400       0.65471032 </v>
    <v>       0.19548397       0.51554604       0.30528183 </v>
    <v>       0.72471126       0.49155439       0.21892067 </v>
    <v>       0.68427639       0.52608302       0.78311905 </v>
    <v>       0.31570055       0.45015821       0.90930939 </v>
    <v>       0.45438098       0.67757862       0.18934272 </v>
    <v>       0.55328223       0.18956013       0.33953214 </v>
    <v>       0.50237209       0.81206828       0.73320939 </v>
    <v>       0.50010102       0.49860772       0.50418460 </v>
    <v>       0.49769872       0.00361403       0.01341989 </v>
    <v>       0.00235834       0.50885145       0.98786746 </v>
    <v>       0.99210586       0.00771856       0.49464777 </v>
    <v>       0.10754078       0.88985789       0.62579777 </v>
    <v>       0.11497040       0.12968693       0.36966671 </v>
    <v>       0.86468346       0.89289968       0.36872620 </v>
    <v>       0.86575026       0.12960875       0.61495661 </v>
    <v>       0.89283095       0.64154583       0.11416120 </v>
    <v>       0.87164749       0.38517809       0.87611192 </v>
    <v>       0.11954196       0.62867839       0.85633159 </v>
    <v>       0.14259295       0.39135234       0.09734167 </v>
    <v>       0.63635002       0.10136392       0.88387251 </v>
    <v>       0.60562557       0.87532948       0.14329162 </v>
    <v>       0.39997364       0.15138547       0.13096043 </v>
    <v>       0.35089910       0.90110840       0.90057319 </v>
    <v>       0.61194542       0.63273583       0.38363466 </v>
    <v>       0.62885675       0.36651071       0.60925618 </v>
    <v>       0.38124667       0.61408350       0.63971502 </v>
    <v>       0.37742796       0.37429233       0.38366518 </v>
    <v>       0.73480321       0.75699621       0.74213687 </v>
    <v>       0.76303041       0.25841824       0.24328701 </v>
    <v>       0.23826644       0.75072634       0.25862939 </v>
    <v>       0.25772008       0.26535180       0.75630333 </v>
    <v>       0.00007211       0.02834793       0.99796423 </v>
    <v>       0.00711493       0.51739700       0.48505351 </v>
    <v>       0.46725343       0.00125036       0.51009335 </v>
    <v>       0.54131891       0.51749908       0.00523709 </v>
   </varray>
  </structure>
  <varray name="primitive_index" >
   <v type="int" >        1 </v>
   <v type="int" >        2 </v>
   <v type="int" >        3 </v>
   <v type="int" >        4 </v>
   <v type="int" >        5 </v>
   <v type="int" >        6 </v>
   <v type="int" >        7 </v>
   <v type="int" >        8 </v>
   <v type="int" >        9 </v>
   <v type="int" >       10 </v>
   <v type="int" >       11 </v>
   <v type="int" >       12 </v>
   <v type="int" >       13 </v>
   <v type="int" >       14 </v>
   <v type="int" >       15 </v>
   <v type="int" >       16 </v>
   <v type="int" >       17 </v>
   <v type="int" >       18 </v>
   <v type="int" >       19 </v>
   <v type="int" >       20 </v>
   <v type="int" >       21 </v>
   <v type="int" >       22 </v>
   <v type="int" >       23 </v>
   <v type="int" >       24 </v>
   <v type="int" >       25 </v>
   <v type="int" >       26 </v>
   <v type="int" >       27 </v>
   <v type="int" >       28 </v>
   <v type="int" >       29 </v>
   <v type="int" >       30 </v>
   <v type="int" >       31 </v>
   <v type="int" >       32 </v>
   <v type="int" >       33 </v>
   <v type="int" >       34 </v>
   <v type="int" >       35 </v>
   <v type="int" >       36 </v>
   <v type="int" >       37 </v>
   <v type="int" >       38 </v>
   <v type="int" >       39 </v>
   <v type="int" >       40 </v>
   <v type="int" >       41 </v>
   <v type="int" >       42 </v>
   <v type="int" >       43 </v>
   <v type="int" >       44 </v>
   <v type="int" >       45 </v>
   <v type="int" >       46 </v>
   <v type="int" >       47 </v>
   <v type="int" >       48 </v>
   <v type="int" >       49 </v>
   <v type="int" >       50 </v>
   <v type="int" >       51 </v>
   <v type="int" >       52 </v>
  </varray>
 </primitive_cell>
 <kpoints>
  <generation param="Monkhorst-Pack">
   <v type="int" name="divisions">       2        2        2 </v>
   <v name="usershift">      0.00000000       0.00000000       0.00000000 </v>
   <v name="genvec1">      0.50000000       0.00000000       0.00000000 </v>
   <v name="genvec2">      0.00000000       0.50000000       0.00000000 </v>
   <v name="genvec3">      0.00000000       0.00000000       0.50000000 </v>
   <v name="shift">      0.50000000       0.50000000       0.50000000 </v>
  </generation>
  <varray name="kpointlist" >
   <v>       0.25000000       0.25000000       0.25000000 </v>
   <v>      -0.25000000       0.25000000       0.25000000 </v>
   <v>      -0.25000000      -0.25000000       0.25000000 </v>
   <v>       0.25000000      -0.25000000       0.25000000 </v>
  </varray>
  <varray name="weights" >
   <v>       0.25000000 </v>
   <v>       0.25000000 </v>
   <v>       0.25000000 </v>
   <v>       0.25000000 </v>
  </varray>
 </kpoints>
 <parameters>
  <separator name="general" >
   <i type="string" name="SYSTEM">unknown system</i>
   <i type="logical" name="LCOMPAT"> F  </i>
  </separator>
  <separator name="electronic" >
   <i type="string" name="PREC">accu</i>
   <i name="ENMAX">    520.00000000</i>
   <i name="ENAUG">   1041.69900000</i>
   <i name="EDIFF">      0.00000100</i>
   <i type="int" name="IALGO">    68</i>
   <i type="int" name="IWAVPR">    11</i>
   <i type="int" name="NBANDS">   176</i>
   <i type="int" name="NBANDSLOW">    -1</i>
   <i type="int" name="NBANDSHIGH">    -1</i>
   <i name="NELECT">    240.00000000</i>
   <i type="int" name="TURBO">     0</i>
   <i type="int" name="IRESTART">     0</i>
   <i type="int" name="NREBOOT">     0</i>
   <i type="int" name="NMIN">     0</i>
   <i name="EREF">      0.00000000</i>
   <separator name="electronic smearing" >
    <i type="int" name="ISMEAR">     0</i>
    <i name="SIGMA">      0.03000000</i>
    <i name="KSPACING">      0.50000000</i>
    <i type="logical" name="KGAMMA"> T  </i>
    <i type="logical" name="KBLOWUP"> T  </i>
   </separator>
   <separator name="electronic projectors" >
    <i type="logical" name="LREAL"> T  </i>
    <v name="ROPT">     -0.00025000     -0.00025000     -0.00025000     -0.00025000</v>
    <i type="int" name="LMAXPAW">  -100</i>
    <i type="int" name="LMAXMIX">     4</i>
    <i type="logical" name="NLSPLINE"> F  </i>
   </separator>
   <separator name="electronic startup" >
    <i type="int" name="ISTART">     0</i>
    <i type="int" name="ICHARG">     2</i>
    <i type="int" name="INIWAV">     1</i>
   </separator>
   <separator name="electronic spin" >
    <i type="int" name="ISPIN">     2</i>
    <i type="logical" name="LNONCOLLINEAR"> F  </i>
    <v name="MAGMOM">      1.00000000      1.00000000      1.00000000      1.00000000      1.00000000      1.00000000      1.00000000      1.00000000      1.00000000      1.00000000      1.00000000      1.00000000      1.00000000      1.00000000      1.00000000      1.00000000      1.00000000      1.00000000      1.00000000      1.00000000
      1.00000000      1.00000000      1.00000000      1.00000000      1.00000000      1.00000000      1.00000000      1.00000000      1.00000000      1.00000000      1.00000000      1.00000000      1.00000000      1.00000000      1.00000000      1.00000000      1.00000000      1.00000000      1.00000000      1.00000000
      1.00000000      1.00000000      1.00000000      1.00000000      1.00000000      1.00000000      1.00000000      1.00000000      1.00000000      1.00000000      1.00000000      1.00000000</v>
    <i name="NUPDOWN">     -1.00000000</i>
    <i type="logical" name="LSORBIT"> F  </i>
    <v name="SAXIS">      0.00000000      0.00000000      1.00000000</v>
    <i type="logical" name="LSPIRAL"> F  </i>
    <v name="QSPIRAL">      0.00000000      0.00000000      0.00000000</v>
    <i type="logical" name="LZEROZ"> F  </i>
   </separator>
   <separator name="electronic exchange-correlation" >
    <i type="logical" name="LASPH"> T  </i>
    <i type="logical" name="LMETAGGA"> F  </i>
   </separator>
   <separator name="electronic convergence" >
    <i type="int" name="NELM">   100</i>
    <i type="int" name="NELMDL">   -10</i>
    <i type="int" name="NELMIN">     2</i>
    <i name="ENINI">    520.00000000</i>
    <separator name="electronic convergence detail" >
     <i type="logical" name="LDIAG"> T  </i>
     <i type="logical" name="LSUBROT"> F  </i>
     <i name="WEIMIN">      0.00100000</i>
     <i name="EBREAK">      0.00000000</i>
     <i name="DEPER">      0.30000000</i>
     <i type="int" name="NRMM">     4</i>
     <i name="TIME">      0.40000000</i>
    </separator>
   </separator>
   <separator name="electronic mixer" >
    <i name="AMIX">      0.40000000</i>
    <i name="BMIX">      1.00000000</i>
    <i name="AMIN">      0.10000000</i>
    <i name="AMIX_MAG">      1.60000000</i>
    <i name="BMIX_MAG">      1.00000000</i>
    <separator name="electronic mixer details" >
     <i type="int" name="IMIX">     4</i>
     <i type="logical" name="MIXFIRST"> F  </i>
     <i type="int" name="MAXMIX">   -45</i>
     <i name="WC">    100.00000000</i>
     <i type="int" name="INIMIX">     1</i>
     <i type="int" name="MIXPRE">     1</i>
     <i type="int" name="MREMOVE">     5</i>
    </separator>
   </separator>
   <separator name="electronic dipolcorrection" >
    <i type="logical" name="LDIPOL"> F  </i>
    <i type="logical" name="LMONO"> F  </i>
    <i type="int" name="IDIPOL">     0</i>
    <i name="EPSILON">      1.00000000</i>
    <v name="DIPOL">   -100.00000000   -100.00000000   -100.00000000</v>
    <i name="EFIELD">      0.00000000</i>
   </separator>
  </separator>
  <separator name="grids" >
   <i type="int" name="NGX">    72</i>
   <i type="int" name="NGY">    72</i>
   <i type="int" name="NGZ">    72</i>
   <i type="int" name="NGXF">   144</i>
   <i type="int" name="NGYF">   144</i>
   <i type="int" name="NGZF">   144</i>
   <i type="logical" name="ADDGRID"> F  </i>
  </separator>
  <separator name="ionic" >
   <i type="int" name="NSW">  1000</i>
   <i type="int" name="IBRION">     2</i>
   <i type="int" name="MDALGO">     0</i>
   <i type="int" name="ISIF">     2</i>
   <i name="PSTRESS">      0.00000000</i>
   <i name="EDIFFG">     -0.00100000</i>
   <i type="int" name="NFREE">     1</i>
   <i name="POTIM">      0.20000000</i>
   <i name="SMASS">     -3.00000000</i>
   <i name="SCALEE">      1.00000000</i>
  </separator>
  <separator name="ionic md" >
   <i name="TEBEG">      0.00010000</i>
   <i name="TEEND">      0.00010000</i>
   <i type="int" name="NBLOCK">     1</i>
   <i type="int" name="KBLOCK">  1000</i>
   <i type="int" name="NPACO">   256</i>
   <i name="APACO">     10.00000000</i>
  </separator>
  <separator name="symmetry" >
   <i type="int" name="ISYM">     2</i>
   <i name="SYMPREC">      0.00001000</i>
  </separator>
  <separator name="dos" >
   <i type="int" name="LORBIT">     0</i>
   <v name="RWIGS">     -1.00000000     -1.00000000     -1.00000000     -1.00000000</v>
   <i type="int" name="NEDOS">   301</i>
   <i name="EMIN">     10.00000000</i>
   <i name="EMAX">    -10.00000000</i>
   <i name="EFERMI">      0.00000000</i>
  </separator>
  <separator name="writing" >
   <i type="int" name="NWRITE">     2</i>
   <i type="logical" name="LWAVE"> F  </i>
   <i type="logical" name="LDOWNSAMPLE"> F  </i>
   <i type="logical" name="LCHARG"> F  </i>
   <i type="logical" name="LPARD"> F  </i>
   <i type="logical" name="LVTOT"> F  </i>
   <i type="logical" name="LVHAR"> F  </i>
   <i type="logical" name="LELF"> F  </i>
   <i type="logical" name="LOPTICS"> F  </i>
   <v name="STM">      0.00000000      0.00000000      0.00000000      0.00000000      0.00000000      0.00000000      0.00000000</v>
  </separator>
  <separator name="performance" >
   <i type="int" name="NPAR">     4</i>
   <i type="int" name="NSIM">     4</i>
   <i type="int" name="NBLK">    -1</i>
   <i type="logical" name="LPLANE"> T  </i>
   <i type="logical" name="LSCALAPACK"> T  </i>
   <i type="logical" name="LSCAAWARE"> F  </i>
   <i type="logical" name="LSCALU"> F  </i>
   <i type="logical" name="LASYNC"> F  </i>
   <i type="logical" name="LORBITALREAL"> F  </i>
  </separator>
  <separator name="miscellaneous" >
   <i type="int" name="IDIOT">     3</i>
   <i type="int" name="PHON_NSTRUCT">    -1</i>
   <i type="logical" name="LMUSIC"> F  </i>
   <v name="POMASS">      7.01000000     30.97400000     32.06600000     35.45300000</v>
   <v name="DARWINR">      0.00000000      0.00000000      0.00000000      0.00000000</v>
   <v name="DARWINV">      1.00000000      1.00000000      1.00000000      1.00000000</v>
   <i type="logical" name="LCORR"> T  </i>
  </separator>
  <i type="logical" name="GGA_COMPAT"> T  </i>
  <i type="logical" name="LBERRY"> F  </i>
  <i type="int" name="ICORELEVEL">     0</i>
  <i type="logical" name="LDAU"> F  </i>
  <i type="int" name="I_CONSTRAINED_M">     0</i>
  <separator name="electronic exchange-correlation" >
   <i type="string" name="GGA">PE</i>
   <i type="int" name="VOSKOWN">     0</i>
   <i type="logical" name="LHFCALC"> F  </i>
   <i type="string" name="PRECFOCK"></i>
   <i type="logical" name="LSYMGRAD"> F  </i>
   <i type="logical" name="LHFONE"> F  </i>
   <i type="logical" name="LRHFCALC"> F  </i>
   <i type="logical" name="LTHOMAS"> F  </i>
   <i type="logical" name="LMODELHF"> F  </i>
   <i type="logical" name="LFOCKACE"> F  </i>
   <i name="ENCUT4O">     -1.00000000</i>
   <i type="int" name="EXXOEP">     0</i>
   <i type="int" name="FOURORBIT">     0</i>
   <i name="AEXX">      0.00000000</i>
   <i name="HFALPHA">      0.00000000</i>
   <i name="MCALPHA">      0.00000000</i>
   <i name="ALDAX">      1.00000000</i>
   <i name="AGGAX">      1.00000000</i>
   <i name="ALDAC">      1.00000000</i>
   <i name="AGGAC">      1.00000000</i>
   <i type="int" name="NKREDX">     1</i>
   <i type="int" name="NKREDY">     1</i>
   <i type="int" name="NKREDZ">     1</i>
   <i type="logical" name="SHIFTRED"> F  </i>
   <i type="logical" name="ODDONLY"> F  </i>
   <i type="logical" name="EVENONLY"> F  </i>
   <i type="int" name="LMAXFOCK">     0</i>
   <i type="int" name="NMAXFOCKAE">     0</i>
   <i type="logical" name="LFOCKAEDFT"> F  </i>
   <i name="HFSCREEN">      0.00000000</i>
   <i name="HFSCREENC">      0.00000000</i>
   <i type="int" name="NBANDSGWLOW">     0</i>
  </separator>
  <separator name="vdW DFT" >
   <i type="logical" name="LUSE_VDW"> F  </i>
   <i type="int" name="IVDW_NL">     1</i>
   <i type="logical" name="LSPIN_VDW"> F  </i>
   <i name="Zab_VDW">     -0.84910000</i>
   <i name="PARAM1">      0.12340000</i>
   <i name="PARAM2">      1.00000000</i>
   <i name="PARAM3">      0.00000000</i>
  </separator>
  <separator name="model GW" >
   <i type="int" name="MODEL_GW">     0</i>
   <i name="MODEL_EPS0">     10.38335798</i>
   <i name="MODEL_ALPHA">      1.00000000</i>
  </separator>
  <separator name="linear response parameters" >
   <i type="logical" name="LEPSILON"> F  </i>
   <i type="logical" name="LRPA"> F  </i>
   <i type="logical" name="LNABLA"> F  </i>
   <i type="logical" name="LVEL"> F  </i>
   <i name="CSHIFT">      0.10000000</i>
   <i name="OMEGAMAX">     -1.00000000</i>
   <i name="DEG_THRESHOLD">      0.00200000</i>
   <i name="RTIME">     -0.10000000</i>
   <i name="WPLASMAI">      0.00000000</i>
   <v name="DFIELD">      0.00000000      0.00000000      0.00000000</v>
   <v name="WPLASMA">      0.00000000      0.00000000      0.00000000      0.00000000      0.00000000      0.00000000      0.00000000      0.00000000      0.00000000</v>
  </separator>
  <separator name="orbital magnetization" >
   <i type="logical" name="NUCIND"> F  </i>
   <v name="MAGPOS">      0.00000000      0.00000000      0.00000000</v>
   <i type="logical" name="LNICSALL"> T  </i>
   <i type="logical" name="ORBITALMAG"> F  </i>
   <i type="logical" name="LMAGBLOCH"> F  </i>
   <i type="logical" name="LCHIMAG"> F  </i>
   <i type="logical" name="LGAUGE"> T  </i>
   <i type="int" name="MAGATOM">     0</i>
   <v name="MAGDIPOL">      0.00000000      0.00000000      0.00000000</v>
   <v name="AVECCONST">      0.00000000      0.00000000      0.00000000</v>
  </separator>
  <separator name="response functions" >
   <i type="logical" name="LALL_IN_ONE"> F  </i>
   <i type="int" name="IALL_IN_ONE">    -1</i>
   <i type="int" name="NBANDS_WAVE">    -1</i>
   <i type="logical" name="LFINITE_TEMPERATURE"> F  </i>
   <i type="logical" name="LADDER"> F  </i>
   <i type="logical" name="LRPAFORCE"> F  </i>
   <i type="logical" name="LFXC"> F  </i>
   <i type="logical" name="LHARTREE"> T  </i>
   <i type="int" name="IBSE">     0</i>
   <v type="int" name="KPOINT">    -1     0     0     0</v>
   <i type="logical" name="LTCTC"> F  </i>
   <i type="logical" name="LTCTE"> F  </i>
   <i type="logical" name="LTETE"> F  </i>
   <i type="logical" name="LTRIPLET"> F  </i>
   <i type="logical" name="LFXCEPS"> F  </i>
   <i type="logical" name="LFXHEG"> F  </i>
   <i type="int" name="NATURALO">     2</i>
   <i type="logical" name="LHOLEGF"> F  </i>
   <i type="logical" name="L2ORDER"> F  </i>
   <i type="logical" name="LDMP1"> F  </i>
   <i type="logical" name="LMP2LT"> F  </i>
   <i type="logical" name="LSMP2LT"> F  </i>
   <i type="logical" name="LGWLF"> F  </i>
   <i name="ENCUTGW">     -1.60000002</i>
   <i name="ENCUTGWSOFT">     -1.60000002</i>
   <i name="ENCUTLF">     -1.00000000</i>
   <i type="logical" name="LESF_SPLINES"> F  </i>
   <i type="int" name="LMAXMP2">    -1</i>
   <i name="SCISSOR">      0.00000000</i>
   <i type="int" name="NOMEGA">     0</i>
   <i type="int" name="NOMEGAR">     0</i>
   <i type="int" name="NBANDSGW">    -1</i>
   <i type="int" name="NBANDSO">    -1</i>
   <i type="int" name="NBANDSV">    -1</i>
   <i type="int" name="NELMGW">     1</i>
   <i type="int" name="NELMHF">     1</i>
   <i type="int" name="DIM">     3</i>
   <i type="int" name="IESPILON">     4</i>
   <i type="int" name="ANTIRES">     0</i>
   <i name="OMEGAMAX">    -30.00000000</i>
   <i name="OMEGAMIN">    -30.00000000</i>
   <i name="OMEGATL">   -200.00000000</i>
   <i type="int" name="OMEGAGRID">     0</i>
   <i name="CSHIFT">     -0.10000000</i>
   <i type="logical" name="LSELFENERGY"> F  </i>
   <i type="logical" name="LSPECTRAL"> F  </i>
   <i type="logical" name="LSPECTRALGW"> F  </i>
   <i type="logical" name="LSINGLES"> F  </i>
   <i type="logical" name="LFERMIGW"> F  </i>
   <i type="logical" name="ODDONLYGW"> F  </i>
   <i type="logical" name="EVENONLYGW"> F  </i>
   <i type="int" name="NKREDLFX">     1</i>
   <i type="int" name="NKREDLFY">     1</i>
   <i type="int" name="NKREDLFZ">     1</i>
   <i type="int" name="MAXMEM">  2800</i>
   <i type="int" name="TELESCOPE">     0</i>
   <i type="int" name="NTAUPAR">    -1</i>
   <i type="int" name="NOMEGAPAR">    -1</i>
   <i name="DAMP_NEWTON">      0.80000001</i>
   <i name="LAMBDA">      1.00000000</i>
  </separator>
  <separator name="External order field" >
   <i name="OFIELD_KAPPA">      0.00000000</i>
   <v name="OFIELD_K">      0.00000000      0.00000000      0.00000000</v>
   <i name="OFIELD_Q6_NEAR">      0.00000000</i>
   <i name="OFIELD_Q6_FAR">      0.00000000</i>
   <i name="OFIELD_A">      0.00000000</i>
  </separator>
  <separator name="optional k-points parameters" >
   <i type="int" name="KPOINTS_OPT_MODE">     1</i>
   <i type="logical" name="LKPOINTS_OPT"> F  </i>
  </separator>
 </parameters>
 <atominfo>
  <atoms>      52 </atoms>
  <types>       4 </types>
  <array name="atoms" >
   <dimension dim="1">ion</dimension>
   <field type="string">element</field>
   <field type="int">atomtype</field>
   <set>
    <rc><c>Li</c><c>   1</c></rc>
    <rc><c>Li</c><c>   1</c></rc>
    <rc><c>Li</c><c>   1</c></rc>
    <rc><c>Li</c><c>   1</c></rc>
    <rc><c>Li</c><c>   1</c></rc>
    <rc><c>Li</c><c>   1</c></rc>
    <rc><c>Li</c><c>   1</c></rc>
    <rc><c>Li</c><c>   1</c></rc>
    <rc><c>Li</c><c>   1</c></rc>
    <rc><c>Li</c><c>   1</c></rc>
    <rc><c>Li</c><c>   1</c></rc>
    <rc><c>Li</c><c>   1</c></rc>
    <rc><c>Li</c><c>   1</c></rc>
    <rc><c>Li</c><c>   1</c></rc>
    <rc><c>Li</c><c>   1</c></rc>
    <rc><c>Li</c><c>   1</c></rc>
    <rc><c>Li</c><c>   1</c></rc>
    <rc><c>Li</c><c>   1</c></rc>
    <rc><c>Li</c><c>   1</c></rc>
    <rc><c>Li</c><c>   1</c></rc>
    <rc><c>Li</c><c>   1</c></rc>
    <rc><c>Li</c><c>   1</c></rc>
    <rc><c>Li</c><c>   1</c></rc>
    <rc><c>Li</c><c>   1</c></rc>
    <rc><c>P </c><c>   2</c></rc>
    <rc><c>P </c><c>   2</c></rc>
    <rc><c>P </c><c>   2</c></rc>
    <rc><c>P </c><c>   2</c></rc>
    <rc><c>S </c><c>   3</c></rc>
    <rc><c>S </c><c>   3</c></rc>
    <rc><c>S </c><c>   3</c></rc>
    <rc><c>S </c><c>   3</c></rc>
    <rc><c>S </c><c>   3</c></rc>
    <rc><c>S </c><c>   3</c></rc>
    <rc><c>S </c><c>   3</c></rc>
    <rc><c>S </c><c>   3</c></rc>
    <rc><c>S </c><c>   3</c></rc>
    <rc><c>S </c><c>   3</c></rc>
    <rc><c>S </c><c>   3</c></rc>
    <rc><c>S </c><c>   3</c></rc>
    <rc><c>S </c><c>   3</c></rc>
    <rc><c>S </c><c>   3</c></rc>
    <rc><c>S </c><c>   3</c></rc>
    <rc><c>S </c><c>   3</c></rc>
    <rc><c>S </c><c>   3</c></rc>
    <rc><c>S </c><c>   3</c></rc>
    <rc><c>S </c><c>   3</c></rc>
    <rc><c>S </c><c>   3</c></rc>
    <rc><c>Cl</c><c>   4</c></rc>
    <rc><c>Cl</c><c>   4</c></rc>
    <rc><c>Cl</c><c>   4</c></rc>
    <rc><c>Cl</c><c>   4</c></rc>
   </set>
  </array>
  <array name="atomtypes" >
   <dimension dim="1">type</dimension>
   <field type="int">atomspertype</field>
   <field type="string">element</field>
   <field>mass</field>
   <field>valence</field>
   <field type="string">pseudopotential</field>
   <set>
    <rc><c>  24</c><c>Li</c><c>      7.01000000</c><c>      3.00000000</c><c>  PAW_PBE Li_sv_GW 25Mar2010            </c></rc>
    <rc><c>   4</c><c>P </c><c>     30.97400000</c><c>      5.00000000</c><c>  PAW_PBE P_GW 19Mar2012                </c></rc>
    <rc><c>  20</c><c>S </c><c>     32.06600000</c><c>      6.00000000</c><c>  PAW_PBE S_GW 19Mar2012                </c></rc>
    <rc><c>   4</c><c>Cl</c><c>     35.45300000</c><c>      7.00000000</c><c>  PAW_PBE Cl_GW 19Mar2012               </c></rc>
   </set>
  </array>
 </atominfo>
 <structure name="initialpos" >
  <crystal>
   <varray name="basis" >
    <v>       9.65450415       0.00000000       0.00000000 </v>
    <v>       0.00000000       9.65450415       0.00000000 </v>
    <v>       0.00000000       0.00000000       9.65450415 </v>
   </varray>
   <i name="volume">    899.89102493 </i>
   <varray name="rec_basis" >
    <v>       0.10357860       0.00000000       0.00000000 </v>
    <v>       0.00000000       0.10357860       0.00000000 </v>
    <v>       0.00000000       0.00000000       0.10357860 </v>
   </varray>
  </crystal>
  <varray name="positions" >
   <v>       0.98907452       0.22130042       0.17547742 </v>
   <v>       0.95450555       0.69146696       0.66679087 </v>
   <v>       0.02480014       0.21331725       0.78133893 </v>
   <v>       0.01142524       0.71029385       0.32468673 </v>
   <v>       0.22996022       0.12458367       0.94915419 </v>
   <v>       0.14496101       0.81041550       0.03885551 </v>
   <v>       0.67271655       0.29927893       0.02375152 </v>
   <v>       0.70444395       0.72383600       0.97733261 </v>
   <v>       0.29577413       0.98219332       0.28081317 </v>
   <v>       0.48364782       0.18620720       0.71299489 </v>
   <v>       0.83848476       0.96435780       0.80652277 </v>
   <v>       0.79793264       0.02765817       0.17032532 </v>
   <v>       0.29339531       0.79266605       0.48966636 </v>
   <v>       0.27939361       0.18991549       0.53294967 </v>
   <v>       0.67938426       0.83908614       0.51687033 </v>
   <v>       0.83813501       0.32864810       0.46470700 </v>
   <v>       0.17867299       0.46923400       0.65471032 </v>
   <v>       0.19548397       0.51554604       0.30528183 </v>
   <v>       0.72471126       0.49155439       0.21892067 </v>
   <v>       0.68427639       0.52608302       0.78311905 </v>
   <v>       0.31570055       0.45015821       0.90930939 </v>
   <v>       0.45438098       0.67757862       0.18934272 </v>
   <v>       0.55328223       0.18956013       0.33953214 </v>
   <v>       0.50237209       0.81206828       0.73320939 </v>
   <v>       0.50010102       0.49860772       0.50418460 </v>
   <v>       0.49769872       0.00361403       0.01341989 </v>
   <v>       0.00235834       0.50885145       0.98786746 </v>
   <v>       0.99210586       0.00771856       0.49464777 </v>
   <v>       0.10754078       0.88985789       0.62579777 </v>
   <v>       0.11497040       0.12968693       0.36966671 </v>
   <v>       0.86468346       0.89289968       0.36872620 </v>
   <v>       0.86575026       0.12960875       0.61495661 </v>
   <v>       0.89283095       0.64154583       0.11416120 </v>
   <v>       0.87164749       0.38517809       0.87611192 </v>
   <v>       0.11954196       0.62867839       0.85633159 </v>
   <v>       0.14259295       0.39135234       0.09734167 </v>
   <v>       0.63635002       0.10136392       0.88387251 </v>
   <v>       0.60562557       0.87532948       0.14329162 </v>
   <v>       0.39997364       0.15138547       0.13096043 </v>
   <v>       0.35089910       0.90110840       0.90057319 </v>
   <v>       0.61194542       0.63273583       0.38363466 </v>
   <v>       0.62885675       0.36651071       0.60925618 </v>
   <v>       0.38124667       0.61408350       0.63971502 </v>
   <v>       0.37742796       0.37429233       0.38366518 </v>
   <v>       0.73480321       0.75699621       0.74213687 </v>
   <v>       0.76303041       0.25841824       0.24328701 </v>
   <v>       0.23826644       0.75072634       0.25862939 </v>
   <v>       0.25772008       0.26535180       0.75630333 </v>
   <v>       0.00007211       0.02834793       0.99796423 </v>
   <v>       0.00711493       0.51739700       0.48505351 </v>
   <v>       0.46725343       0.00125036       0.51009335 </v>
   <v>       0.54131891       0.51749908       0.00523709 </v>
  </varray>
 </structure>
 <calculation>
  <scstep>
   <time name="dav">    2.27    2.36</time>
   <time name="total">    2.73    2.85</time>
   <energy>
    <i name="alphaZ">    301.65597407 </i>
    <i name="ewald">  -8833.72131434 </i>
    <i name="hartreedc">  -2100.06681016 </i>
    <i name="XCdc">    534.33657216 </i>
    <i name="pawpsdc">   8141.38806575 </i>
    <i name="pawaedc">  -8271.61346273 </i>
    <i name="eentropy">     -0.00843508 </i>
    <i name="bandstr">   -881.94633374 </i>
    <i name="atom">  12703.13999606 </i>
    <i name="e_fr_energy">   1593.16425198 </i>
    <i name="e_wo_entrp">   1593.17268706 </i>
    <i name="e_0_energy">   1593.16846952 </i>
   </energy>
  </scstep>
  <scstep>
   <time name="dav">    2.64    2.67</time>
   <time name="total">    2.64    2.67</time>
   <energy>
    <i name="e_fr_energy">    -55.30233420 </i>
    <i name="e_wo_entrp">    -55.30233420 </i>
    <i name="e_0_energy">    -55.30233420 </i>
   </energy>
  </scstep>
  <scstep>
   <time name="dav">    2.64    2.67</time>
   <time name="total">    2.64    2.67</time>
   <energy>
    <i name="e_fr_energy">   -228.36671805 </i>
    <i name="e_wo_entrp">   -228.36671805 </i>
    <i name="e_0_energy">   -228.36671805 </i>
   </energy>
  </scstep>
  <scstep>
   <time name="dav">    3.17    3.19</time>
   <time name="total">    3.17    3.19</time>
   <energy>
    <i name="e_fr_energy">   -241.57997442 </i>
    <i name="e_wo_entrp">   -241.57997442 </i>
    <i name="e_0_energy">   -241.57997442 </i>
   </energy>
  </scstep>
  <scstep>
   <time name="dav">    2.96    2.98</time>
   <time name="total">    2.96    2.99</time>
   <energy>
    <i name="e_fr_energy">   -241.82276959 </i>
    <i name="e_wo_entrp">   -241.82276959 </i>
    <i name="e_0_energy">   -241.82276959 </i>
   </energy>
  </scstep>
  <scstep>
   <time name="dav">    3.08    3.10</time>
   <time name="total">    3.08    3.10</time>
   <energy>
    <i name="e_fr_energy">   -241.83423282 </i>
    <i name="e_wo_entrp">   -241.83423282 </i>
    <i name="e_0_energy">   -241.83423282 </i>
   </energy>
  </scstep>
  <scstep>
   <time name="dav">    3.24    3.27</time>
   <time name="total">    3.24    3.27</time>
   <energy>
    <i name="e_fr_energy">   -241.83461937 </i>
    <i name="e_wo_entrp">   -241.83461937 </i>
    <i name="e_0_energy">   -241.83461937 </i>
   </energy>
  </scstep>
  <scstep>
   <time name="dav">    3.04    3.08</time>
   <time name="total">    3.04    3.08</time>
   <energy>
    <i name="e_fr_energy">   -241.83464178 </i>
    <i name="e_wo_entrp">   -241.83464178 </i>
    <i name="e_0_energy">   -241.83464178 </i>
   </energy>
  </scstep>
  <scstep>
   <time name="dav">    2.99    3.01</time>
   <time name="total">    2.99    3.01</time>
   <energy>
    <i name="e_fr_energy">   -241.83464321 </i>
    <i name="e_wo_entrp">   -241.83464321 </i>
    <i name="e_0_energy">   -241.83464321 </i>
   </energy>
  </scstep>
  <scstep>
   <time name="dav">    2.07    2.08</time>
   <time name="total">    2.14    2.16</time>
   <energy>
    <i name="e_fr_energy">   -241.83464327 </i>
    <i name="e_wo_entrp">   -241.83464327 </i>
    <i name="e_0_energy">   -241.83464327 </i>
   </energy>
  </scstep>
  <scstep>
   <time name="diag">    0.37    0.37</time>
   <time name="diis">    1.16    1.17</time>
   <time name="orth">    0.07    0.07</time>
   <time name="total">    2.11    2.14</time>
   <energy>
    <i name="e_fr_energy">   -236.27694821 </i>
    <i name="e_wo_entrp">   -236.27694821 </i>
    <i name="e_0_energy">   -236.27694821 </i>
   </energy>
  </scstep>
  <scstep>
   <time name="diag">    0.36    0.36</time>
   <time name="diis">    1.22    1.23</time>
   <time name="orth">    0.07    0.07</time>
   <time name="total">    2.16    2.18</time>
   <energy>
    <i name="e_fr_energy">   -255.99971167 </i>
    <i name="e_wo_entrp">   -255.99971167 </i>
    <i name="e_0_energy">   -255.99971167 </i>
   </energy>
  </scstep>
  <scstep>
   <time name="diag">    0.36    0.36</time>
   <time name="diis">    1.21    1.22</time>
   <time name="orth">    0.07    0.07</time>
   <time name="total">    2.15    2.17</time>
   <energy>
    <i name="e_fr_energy">   -258.47793933 </i>
    <i name="e_wo_entrp">   -258.47793933 </i>
    <i name="e_0_energy">   -258.47793933 </i>
   </energy>
  </scstep>
  <scstep>
   <time name="diag">    0.36    0.36</time>
   <time name="diis">    1.57    1.58</time>
   <time name="orth">    0.07    0.07</time>
   <time name="total">    2.51    2.53</time>
   <energy>
    <i name="e_fr_energy">   -258.67554262 </i>
    <i name="e_wo_entrp">   -258.67554262 </i>
    <i name="e_0_energy">   -258.67554262 </i>
   </energy>
  </scstep>
  <scstep>
   <time name="diag">    0.36    0.36</time>
   <time name="diis">    1.27    1.28</time>
   <time name="orth">    0.07    0.07</time>
   <time name="total">    2.21    2.23</time>
   <energy>
    <i name="e_fr_energy">   -258.64863378 </i>
    <i name="e_wo_entrp">   -258.64863378 </i>
    <i name="e_0_energy">   -258.64863378 </i>
   </energy>
  </scstep>
  <scstep>
   <time name="diag">    0.36    0.36</time>
   <time name="diis">    1.28    1.29</time>
   <time name="orth">    0.07    0.07</time>
   <time name="total">    2.22    2.24</time>
   <energy>
    <i name="e_fr_energy">   -258.66856579 </i>
    <i name="e_wo_entrp">   -258.66856579 </i>
    <i name="e_0_energy">   -258.66856579 </i>
   </energy>
  </scstep>
  <scstep>
   <time name="diag">    0.36    0.36</time>
   <time name="diis">    1.44    1.46</time>
   <time name="orth">    0.07    0.07</time>
   <time name="total">    2.39    2.41</time>
   <energy>
    <i name="e_fr_energy">   -258.67435828 </i>
    <i name="e_wo_entrp">   -258.67435828 </i>
    <i name="e_0_energy">   -258.67435828 </i>
   </energy>
  </scstep>
  <scstep>
   <time name="diag">    0.36    0.37</time>
   <time name="diis">    1.40    1.41</time>
   <time name="orth">    0.07    0.07</time>
   <time name="total">    2.35    2.37</time>
   <energy>
    <i name="e_fr_energy">   -258.67555756 </i>
    <i name="e_wo_entrp">   -258.67555756 </i>
    <i name="e_0_energy">   -258.67555756 </i>
   </energy>
  </scstep>
  <scstep>
   <time name="diag">    0.36    0.36</time>
   <time name="diis">    1.64    1.65</time>
   <time name="orth">    0.07    0.07</time>
   <time name="total">    2.60    2.62</time>
   <energy>
    <i name="e_fr_energy">   -258.67599914 </i>
    <i name="e_wo_entrp">   -258.67599914 </i>
    <i name="e_0_energy">   -258.67599914 </i>
   </energy>
  </scstep>
  <scstep>
   <time name="diag">    0.36    0.37</time>
   <time name="diis">    1.60    1.61</time>
   <time name="orth">    0.07    0.07</time>
   <time name="total">    2.55    2.57</time>
   <energy>
    <i name="e_fr_energy">   -258.67608537 </i>
    <i name="e_wo_entrp">   -258.67608537 </i>
    <i name="e_0_energy">   -258.67608537 </i>
   </energy>
  </scstep>
  <scstep>
   <time name="diag">    0.36    0.37</time>
   <time name="diis">    1.65    1.67</time>
   <time name="orth">    0.38    0.38</time>
   <time name="total">    2.91    2.93</time>
   <energy>
    <i name="e_fr_energy">   -258.67610041 </i>
    <i name="e_wo_entrp">   -258.67610041 </i>
    <i name="e_0_energy">   -258.67610041 </i>
   </energy>
  </scstep>
  <scstep>
   <time name="diag">    0.36    0.37</time>
   <time name="diis">    1.99    2.01</time>
   <time name="orth">    2.97    2.98</time>
   <time name="total">    5.92    5.96</time>
   <energy>
    <i name="e_fr_energy">   -258.67610678 </i>
    <i name="e_wo_entrp">   -258.67610678 </i>
    <i name="e_0_energy">   -258.67610678 </i>
   </energy>
  </scstep>
  <scstep>
   <time name="diag">    0.36    0.36</time>
   <time name="diis">    1.27    1.28</time>
   <time name="orth">    0.07    0.07</time>
   <time name="total">    2.99    3.01</time>
   <energy>
    <i name="e_fr_energy">   -258.67610636 </i>
    <i name="e_wo_entrp">   -258.67610636 </i>
    <i name="e_0_energy">   -258.67610636 </i>
   </energy>
  </scstep>
  <scstep>
   <time name="diag">    0.36    0.36</time>
   <time name="diis">    0.97    0.98</time>
   <time name="orth">    0.07    0.07</time>
   <time name="total">    1.85    1.86</time>
   <energy>
    <i name="alphaZ">    301.65597407 </i>
    <i name="ewald">  -8833.72131434 </i>
    <i name="hartreedc">  -2198.37569908 </i>
    <i name="XCdc">    537.90013316 </i>
    <i name="pawpsdc">   9811.32965659 </i>
    <i name="pawaedc">  -9955.27986135 </i>
    <i name="eentropy">     -0.00000000 </i>
    <i name="bandstr">  -2625.32499061 </i>
    <i name="atom">  12703.13999606 </i>
    <i name="e_fr_energy">   -258.67610550 </i>
    <i name="e_wo_entrp">   -258.67610550 </i>
    <i name="e_0_energy">   -258.67610550 </i>
   </energy>
  </scstep>
  <structure>
   <crystal>
    <varray name="basis" >
     <v>       9.65450415       0.00000000       0.00000000 </v>
     <v>       0.00000000       9.65450415       0.00000000 </v>
     <v>       0.00000000       0.00000000       9.65450415 </v>
    </varray>
    <i name="volume">    899.89102493 </i>
    <varray name="rec_basis" >
     <v>       0.10357860       0.00000000       0.00000000 </v>
     <v>       0.00000000       0.10357860       0.00000000 </v>
     <v>       0.00000000       0.00000000       0.10357860 </v>
    </varray>
   </crystal>
   <varray name="positions" >
    <v>       0.98907452       0.22130042       0.17547742 </v>
    <v>       0.95450555       0.69146696       0.66679087 </v>
    <v>       0.02480014       0.21331725       0.78133893 </v>
    <v>       0.01142524       0.71029385       0.32468673 </v>
    <v>       0.22996022       0.12458367       0.94915419 </v>
    <v>       0.14496101       0.81041550       0.03885551 </v>
    <v>       0.67271655       0.29927893       0.02375152 </v>
    <v>       0.70444395       0.72383600       0.97733261 </v>
    <v>       0.29577413       0.98219332       0.28081317 </v>
    <v>       0.48364782       0.18620720       0.71299489 </v>
    <v>       0.83848476       0.96435780       0.80652277 </v>
    <v>       0.79793264       0.02765817       0.17032532 </v>
    <v>       0.29339531       0.79266605       0.48966636 </v>
    <v>       0.27939361       0.18991549       0.53294967 </v>
    <v>       0.67938426       0.83908614       0.51687033 </v>
    <v>       0.83813501       0.32864810       0.46470700 </v>
    <v>       0.17867299       0.46923400       0.65471032 </v>
    <v>       0.19548397       0.51554604       0.30528183 </v>
    <v>       0.72471126       0.49155439       0.21892067 </v>
    <v>       0.68427639       0.52608302       0.78311905 </v>
    <v>       0.31570055       0.45015821       0.90930939 </v>
    <v>       0.45438098       0.67757862       0.18934272 </v>
    <v>       0.55328223       0.18956013       0.33953214 </v>
    <v>       0.50237209       0.81206828       0.73320939 </v>
    <v>       0.50010102       0.49860772       0.50418460 </v>
    <v>       0.49769872       0.00361403       0.01341989 </v>
    <v>       0.00235834       0.50885145       0.98786746 </v>
    <v>       0.99210586       0.00771856       0.49464777 </v>
    <v>       0.10754078       0.88985789       0.62579777 </v>
    <v>       0.11497040       0.12968693       0.36966671 </v>
    <v>       0.86468346       0.89289968       0.36872620 </v>
    <v>       0.86575026       0.12960875       0.61495661 </v>
    <v>       0.89283095       0.64154583       0.11416120 </v>
    <v>       0.87164749       0.38517809       0.87611192 </v>
    <v>       0.11954196       0.62867839       0.85633159 </v>
    <v>       0.14259295       0.39135234       0.09734167 </v>
    <v>       0.63635002       0.10136392       0.88387251 </v>
    <v>       0.60562557       0.87532948       0.14329162 </v>
    <v>       0.39997364       0.15138547       0.13096043 </v>
    <v>       0.35089910       0.90110840       0.90057319 </v>
    <v>       0.61194542       0.63273583       0.38363466 </v>
    <v>       0.62885675       0.36651071       0.60925618 </v>
    <v>       0.38124667       0.61408350       0.63971502 </v>
    <v>       0.37742796       0.37429233       0.38366518 </v>
    <v>       0.73480321       0.75699621       0.74213687 </v>
    <v>       0.76303041       0.25841824       0.24328701 </v>
    <v>       0.23826644       0.75072634       0.25862939 </v>
    <v>       0.25772008       0.26535180       0.75630333 </v>
    <v>       0.00007211       0.02834793       0.99796423 </v>
    <v>       0.00711493       0.51739700       0.48505351 </v>
    <v>       0.46725343       0.00125036       0.51009335 </v>
    <v>       0.54131891       0.51749908       0.00523709 </v>
   </varray>
  </structure>
  <varray name="forces" >
   <v>       0.00017639      -0.00022528      -0.00005967 </v>
   <v>      -0.00045561      -0.00045809      -0.00016635 </v>
   <v>      -0.00018864       0.00053779       0.00024681 </v>
   <v>      -0.00024246      -0.00010028       0.00006660 </v>
   <v>       0.00011088      -0.00022021       0.00004598 </v>
   <v>      -0.00073397      -0.00031091       0.00064675 </v>
   <v>      -0.00134747      -0.00024091       0.00042668 </v>
   <v>      -0.00070627       0.00009721       0.00011800 </v>
   <v>       0.00050725       0.00001913       0.00015956 </v>
   <v>       0.00012774      -0.00007941       0.00041861 </v>
   <v>       0.00082854      -0.00043604      -0.00020654 </v>
   <v>      -0.00015919       0.00006615      -0.00057212 </v>
   <v>      -0.00018304      -0.00030576       0.00021557 </v>
   <v>       0.00029355       0.00024148      -0.00021522 </v>
   <v>       0.00058661      -0.00022391      -0.00029747 </v>
   <v>       0.00020423      -0.00017951      -0.00018641 </v>
   <v>       0.00049859      -0.00016263      -0.00036871 </v>
   <v>      -0.00024425      -0.00015878      -0.00006342 </v>
   <v>       0.00064675       0.00016772      -0.00013331 </v>
   <v>      -0.00077078      -0.00001103       0.00021599 </v>
   <v>      -0.00020204       0.00009891       0.00004714 </v>
   <v>      -0.00018773      -0.00052671       0.00045663 </v>
   <v>       0.00025033       0.00027050       0.00045117 </v>
   <v>       0.00011143       0.00201436      -0.00109096 </v>
   <v>      -0.00037609      -0.00054596      -0.00249096 </v>
   <v>       0.00059283       0.00124340       0.00093135 </v>
   <v>       0.00050144       0.00050799       0.00061837 </v>
   <v>      -0.00194314       0.00239519      -0.00408906 </v>
   <v>       0.00172596      -0.00209533       0.00258700 </v>
   <v>      -0.00056443      -0.00090333       0.00109682 </v>
   <v>       0.00080214       0.00103599       0.00035853 </v>
   <v>       0.00005745      -0.00009148       0.00000142 </v>
   <v>       0.00065196       0.00044768      -0.00098663 </v>
   <v>      -0.00084742      -0.00011573      -0.00024061 </v>
   <v>       0.00108328       0.00127917      -0.00179686 </v>
   <v>      -0.00075339       0.00100019      -0.00095905 </v>
   <v>       0.00042650      -0.00091118       0.00015249 </v>
   <v>      -0.00049310      -0.00008965       0.00083353 </v>
   <v>       0.00060496      -0.00016965      -0.00034477 </v>
   <v>      -0.00103107      -0.00112043      -0.00007867 </v>
   <v>       0.00003315      -0.00042996       0.00065296 </v>
   <v>       0.00057985      -0.00079850       0.00023340 </v>
   <v>       0.00012162       0.00086350       0.00145210 </v>
   <v>       0.00084183       0.00081312       0.00082498 </v>
   <v>      -0.00018070      -0.00009906      -0.00022749 </v>
   <v>       0.00014519      -0.00004178       0.00012908 </v>
   <v>       0.00000041       0.00003037       0.00011006 </v>
   <v>       0.00013550      -0.00003560       0.00023271 </v>
   <v>       0.00016447      -0.00069959      -0.00009774 </v>
   <v>      -0.00055913      -0.00076618       0.00007630 </v>
   <v>       0.00063472      -0.00050175       0.00069601 </v>
   <v>      -0.00127564      -0.00007524       0.00016945 </v>
  </varray>
  <varray name="stress" >
   <v>       1.39629577      -0.34181020       2.81904262 </v>
   <v>      -0.34180968      -0.98901263       1.25898420 </v>
   <v>       2.81904314       1.25898439      -0.35771975 </v>
  </varray>
  <energy>
   <i name="e_fr_energy">   -272.26955839 </i>
   <i name="e_wo_entrp">   -272.26955839 </i>
   <i name="e_0_energy">   -272.26955839 </i>
  </energy>
  <time name="totalsc">   68.64   69.37</time>
 </calculation>
 <calculation>
  <scstep>
   <time name="dav">    2.26    2.29</time>
   <time name="total">    2.78    2.81</time>
   <energy>
    <i name="alphaZ">    301.65597407 </i>
    <i name="ewald">  -8833.73131614 </i>
    <i name="hartreedc">  -2198.37141478 </i>
    <i name="XCdc">    537.90000289 </i>
    <i name="pawpsdc">   9811.31663753 </i>
    <i name="pawaedc">  -9955.26673393 </i>
    <i name="eentropy">     -0.00000000 </i>
    <i name="bandstr">  -2625.31925293 </i>
    <i name="atom">  12703.13999606 </i>
    <i name="e_fr_energy">   -258.67610723 </i>
    <i name="e_wo_entrp">   -258.67610723 </i>
    <i name="e_0_energy">   -258.67610723 </i>
   </energy>
  </scstep>
  <scstep>
   <time name="diag">    0.37    0.37</time>
   <time name="diis">    0.93    0.94</time>
   <time name="orth">    0.07    0.07</time>
   <time name="total">    1.82    1.83</time>
   <energy>
    <i name="alphaZ">    301.65597407 </i>
    <i name="ewald">  -8833.73131614 </i>
    <i name="hartreedc">  -2198.37299509 </i>
    <i name="XCdc">    537.89990083 </i>
    <i name="pawpsdc">   9811.29621277 </i>
    <i name="pawaedc">  -9955.24599784 </i>
    <i name="eentropy">     -0.00000000 </i>
    <i name="bandstr">  -2625.31788219 </i>
    <i name="atom">  12703.13999606 </i>
    <i name="e_fr_energy">   -258.67610754 </i>
    <i name="e_wo_entrp">   -258.67610754 </i>
    <i name="e_0_energy">   -258.67610754 </i>
   </energy>
  </scstep>
  <structure>
   <crystal>
    <varray name="basis" >
     <v>       9.65450415       0.00000000       0.00000000 </v>
     <v>       0.00000000       9.65450415       0.00000000 </v>
     <v>       0.00000000       0.00000000       9.65450415 </v>
    </varray>
    <i name="volume">    899.89102493 </i>
    <varray name="rec_basis" >
     <v>       0.10357860       0.00000000       0.00000000 </v>
     <v>       0.00000000       0.10357860       0.00000000 </v>
     <v>       0.00000000       0.00000000       0.10357860 </v>
    </varray>
   </crystal>
   <varray name="positions" >
    <v>       0.98907487       0.22129997       0.17547731 </v>
    <v>       0.95450464       0.69146605       0.66679054 </v>
    <v>       0.02479976       0.21331833       0.78133943 </v>
    <v>       0.01142475       0.71029365       0.32468687 </v>
    <v>       0.22996045       0.12458323       0.94915428 </v>
    <v>       0.14495954       0.81041488       0.03885681 </v>
    <v>       0.67271385       0.29927845       0.02375237 </v>
    <v>       0.70444254       0.72383619       0.97733284 </v>
    <v>       0.29577514       0.98219336       0.28081349 </v>
    <v>       0.48364807       0.18620704       0.71299572 </v>
    <v>       0.83848642       0.96435693       0.80652235 </v>
    <v>       0.79793232       0.02765830       0.17032417 </v>
    <v>       0.29339494       0.79266544       0.48966679 </v>
    <v>       0.27939420       0.18991598       0.53294924 </v>
    <v>       0.67938543       0.83908569       0.51686973 </v>
    <v>       0.83813542       0.32864774       0.46470662 </v>
    <v>       0.17867399       0.46923367       0.65470959 </v>
    <v>       0.19548349       0.51554573       0.30528171 </v>
    <v>       0.72471255       0.49155472       0.21892040 </v>
    <v>       0.68427485       0.52608300       0.78311948 </v>
    <v>       0.31570015       0.45015841       0.90930948 </v>
    <v>       0.45438061       0.67757757       0.18934363 </v>
    <v>       0.55328273       0.18956067       0.33953304 </v>
    <v>       0.50237231       0.81207231       0.73320721 </v>
    <v>       0.50010027       0.49860663       0.50417962 </v>
    <v>       0.49769990       0.00361651       0.01342175 </v>
    <v>       0.00235934       0.50885247       0.98786870 </v>
    <v>       0.99210197       0.00772334       0.49463959 </v>
    <v>       0.10754423       0.88985370       0.62580294 </v>
    <v>       0.11496927       0.12968512       0.36966890 </v>
    <v>       0.86468506       0.89290175       0.36872691 </v>
    <v>       0.86575037       0.12960857       0.61495661 </v>
    <v>       0.89283225       0.64154673       0.11415922 </v>
    <v>       0.87164580       0.38517785       0.87611144 </v>
    <v>       0.11954413       0.62868095       0.85632799 </v>
    <v>       0.14259144       0.39135433       0.09733975 </v>
    <v>       0.63635087       0.10136209       0.88387281 </v>
    <v>       0.60562458       0.87532930       0.14329329 </v>
    <v>       0.39997484       0.15138513       0.13095974 </v>
    <v>       0.35089704       0.90110616       0.90057303 </v>
    <v>       0.61194549       0.63273497       0.38363597 </v>
    <v>       0.62885791       0.36650911       0.60925664 </v>
    <v>       0.38124692       0.61408522       0.63971792 </v>
    <v>       0.37742964       0.37429396       0.38366683 </v>
    <v>       0.73480285       0.75699601       0.74213641 </v>
    <v>       0.76303070       0.25841815       0.24328727 </v>
    <v>       0.23826644       0.75072640       0.25862961 </v>
    <v>       0.25772035       0.26535172       0.75630380 </v>
    <v>       0.00007244       0.02834653       0.99796403 </v>
    <v>       0.00711381       0.51739547       0.48505366 </v>
    <v>       0.46725469       0.00124936       0.51009474 </v>
    <v>       0.54131636       0.51749893       0.00523743 </v>
   </varray>
  </structure>
  <varray name="forces" >
   <v>       0.00004191      -0.00014978      -0.00011029 </v>
   <v>      -0.00012826      -0.00022437      -0.00008571 </v>
   <v>      -0.00009953       0.00024265       0.00015318 </v>
   <v>      -0.00003005      -0.00012024       0.00010593 </v>
   <v>       0.00004505      -0.00031186      -0.00004204 </v>
   <v>      -0.00041611      -0.00023156       0.00033380 </v>
   <v>      -0.00082536      -0.00013457       0.00025040 </v>
   <v>      -0.00048782       0.00000647       0.00003576 </v>
   <v>       0.00032169      -0.00016922       0.00012416 </v>
   <v>       0.00005494      -0.00008198       0.00027949 </v>
   <v>       0.00058953      -0.00041602      -0.00014181 </v>
   <v>      -0.00014036       0.00000254      -0.00040920 </v>
   <v>      -0.00024132      -0.00024134       0.00033244 </v>
   <v>       0.00015392      -0.00001115       0.00012676 </v>
   <v>       0.00028880      -0.00016712      -0.00003284 </v>
   <v>       0.00002190      -0.00011983       0.00001501 </v>
   <v>       0.00027298      -0.00003064      -0.00017704 </v>
   <v>      -0.00017557      -0.00003475       0.00002303 </v>
   <v>       0.00036966       0.00002586      -0.00009533 </v>
   <v>      -0.00054076      -0.00006116       0.00013176 </v>
   <v>      -0.00016302       0.00008526      -0.00004525 </v>
   <v>      -0.00016048      -0.00034420       0.00023647 </v>
   <v>       0.00022229       0.00005264       0.00032929 </v>
   <v>      -0.00002116       0.00117842      -0.00058996 </v>
   <v>      -0.00007076      -0.00012925      -0.00027705 </v>
   <v>      -0.00000854       0.00004834       0.00016623 </v>
   <v>       0.00025038       0.00050572      -0.00060705 </v>
   <v>      -0.00009116       0.00016954      -0.00042473 </v>
   <v>      -0.00032243      -0.00010793      -0.00001408 </v>
   <v>       0.00041184       0.00004549      -0.00006085 </v>
   <v>      -0.00002265      -0.00004936      -0.00033430 </v>
   <v>       0.00005710      -0.00003099       0.00018103 </v>
   <v>       0.00003554       0.00037901      -0.00035081 </v>
   <v>      -0.00029514       0.00009480       0.00015595 </v>
   <v>       0.00034042       0.00039334      -0.00081705 </v>
   <v>      -0.00026607       0.00024509      -0.00029015 </v>
   <v>       0.00028848      -0.00040762       0.00005908 </v>
   <v>      -0.00022827      -0.00020239       0.00047082 </v>
   <v>       0.00001323       0.00019036       0.00007902 </v>
   <v>      -0.00000755      -0.00024645       0.00032847 </v>
   <v>       0.00022776      -0.00004405      -0.00000453 </v>
   <v>      -0.00004777      -0.00020503       0.00001102 </v>
   <v>       0.00032095       0.00009666       0.00030184 </v>
   <v>      -0.00019866      -0.00008716      -0.00001188 </v>
   <v>      -0.00014471      -0.00014254       0.00003407 </v>
   <v>       0.00006699       0.00001497      -0.00012948 </v>
   <v>      -0.00006414      -0.00003291       0.00034181 </v>
   <v>      -0.00001341      -0.00011351       0.00002674 </v>
   <v>       0.00006920       0.00040116       0.00005067 </v>
   <v>       0.00058396       0.00038884       0.00001977 </v>
   <v>      -0.00040478      -0.00009671       0.00025844 </v>
   <v>       0.00056730       0.00017852       0.00008896 </v>
  </varray>
  <varray name="stress" >
   <v>       1.38517305      -0.33730484       2.81608144 </v>
   <v>      -0.33730433      -0.99959562       1.26208552 </v>
   <v>       2.81608217       1.26208549      -0.36913938 </v>
  </varray>
  <energy>
   <i name="e_fr_energy">   -272.26956009 </i>
   <i name="e_wo_entrp">   -272.26956009 </i>
   <i name="e_0_energy">   -272.26956009 </i>
  </energy>
  <time name="totalsc">    7.68    7.77</time>
 </calculation>
 <calculation>
  <scstep>
   <time name="dav">    2.11    2.13</time>
   <time name="total">    2.63    2.65</time>
   <energy>
    <i name="alphaZ">    301.65597407 </i>
    <i name="ewald">  -8833.73319943 </i>
    <i name="hartreedc">  -2198.37230011 </i>
    <i name="XCdc">    537.89974152 </i>
    <i name="pawpsdc">   9811.27728330 </i>
    <i name="pawaedc">  -9955.22664531 </i>
    <i name="eentropy">     -0.00000000 </i>
    <i name="bandstr">  -2625.31695793 </i>
    <i name="atom">  12703.13999606 </i>
    <i name="e_fr_energy">   -258.67610782 </i>
    <i name="e_wo_entrp">   -258.67610782 </i>
    <i name="e_0_energy">   -258.67610782 </i>
   </energy>
  </scstep>
  <scstep>
   <time name="diag">    0.37    0.37</time>
   <time name="diis">    0.81    0.81</time>
   <time name="orth">    0.07    0.07</time>
   <time name="total">    1.69    1.71</time>
   <energy>
    <i name="alphaZ">    301.65597407 </i>
    <i name="ewald">  -8833.73319943 </i>
    <i name="hartreedc">  -2198.37212772 </i>
    <i name="XCdc">    537.89963322 </i>
    <i name="pawpsdc">   9811.26252269 </i>
    <i name="pawaedc">  -9955.21171932 </i>
    <i name="eentropy">     -0.00000000 </i>
    <i name="bandstr">  -2625.31718740 </i>
    <i name="atom">  12703.13999606 </i>
    <i name="e_fr_energy">   -258.67610784 </i>
    <i name="e_wo_entrp">   -258.67610784 </i>
    <i name="e_0_energy">   -258.67610784 </i>
   </energy>
  </scstep>
  <structure>
   <crystal>
    <varray name="basis" >
     <v>       9.65450415       0.00000000       0.00000000 </v>
     <v>       0.00000000       9.65450415       0.00000000 </v>
     <v>       0.00000000       0.00000000       9.65450415 </v>
    </varray>
    <i name="volume">    899.89102493 </i>
    <varray name="rec_basis" >
     <v>       0.10357860       0.00000000       0.00000000 </v>
     <v>       0.00000000       0.10357860       0.00000000 </v>
     <v>       0.00000000       0.00000000       0.10357860 </v>
    </varray>
   </crystal>
   <varray name="positions" >
    <v>       0.98907494       0.22129989       0.17547728 </v>
    <v>       0.95450447       0.69146587       0.66679047 </v>
    <v>       0.02479969       0.21331853       0.78133952 </v>
    <v>       0.01142466       0.71029361       0.32468689 </v>
    <v>       0.22996049       0.12458315       0.94915430 </v>
    <v>       0.14495927       0.81041476       0.03885705 </v>
    <v>       0.67271335       0.29927836       0.02375253 </v>
    <v>       0.70444228       0.72383623       0.97733289 </v>
    <v>       0.29577533       0.98219336       0.28081355 </v>
    <v>       0.48364812       0.18620701       0.71299588 </v>
    <v>       0.83848673       0.96435677       0.80652228 </v>
    <v>       0.79793226       0.02765832       0.17032396 </v>
    <v>       0.29339487       0.79266532       0.48966687 </v>
    <v>       0.27939431       0.18991607       0.53294916 </v>
    <v>       0.67938565       0.83908561       0.51686962 </v>
    <v>       0.83813550       0.32864767       0.46470655 </v>
    <v>       0.17867418       0.46923361       0.65470945 </v>
    <v>       0.19548339       0.51554567       0.30528168 </v>
    <v>       0.72471280       0.49155479       0.21892035 </v>
    <v>       0.68427456       0.52608300       0.78311956 </v>
    <v>       0.31570007       0.45015845       0.90930950 </v>
    <v>       0.45438054       0.67757737       0.18934380 </v>
    <v>       0.55328282       0.18956077       0.33953321 </v>
    <v>       0.50237235       0.81207307       0.73320680 </v>
    <v>       0.50010012       0.49860643       0.50417869 </v>
    <v>       0.49770013       0.00361698       0.01342210 </v>
    <v>       0.00235953       0.50885266       0.98786893 </v>
    <v>       0.99210124       0.00772424       0.49463805 </v>
    <v>       0.10754488       0.88985291       0.62580392 </v>
    <v>       0.11496906       0.12968478       0.36966931 </v>
    <v>       0.86468537       0.89290214       0.36872705 </v>
    <v>       0.86575039       0.12960853       0.61495662 </v>
    <v>       0.89283250       0.64154690       0.11415885 </v>
    <v>       0.87164548       0.38517781       0.87611135 </v>
    <v>       0.11954453       0.62868143       0.85632732 </v>
    <v>       0.14259116       0.39135471       0.09733939 </v>
    <v>       0.63635103       0.10136175       0.88387287 </v>
    <v>       0.60562440       0.87532926       0.14329360 </v>
    <v>       0.39997507       0.15138507       0.13095961 </v>
    <v>       0.35089665       0.90110574       0.90057300 </v>
    <v>       0.61194550       0.63273481       0.38363621 </v>
    <v>       0.62885813       0.36650881       0.60925673 </v>
    <v>       0.38124696       0.61408555       0.63971847 </v>
    <v>       0.37742996       0.37429426       0.38366714 </v>
    <v>       0.73480278       0.75699597       0.74213633 </v>
    <v>       0.76303075       0.25841814       0.24328732 </v>
    <v>       0.23826644       0.75072641       0.25862965 </v>
    <v>       0.25772040       0.26535171       0.75630389 </v>
    <v>       0.00007250       0.02834627       0.99796399 </v>
    <v>       0.00711360       0.51739518       0.48505369 </v>
    <v>       0.46725493       0.00124917       0.51009501 </v>
    <v>       0.54131588       0.51749890       0.00523749 </v>
   </varray>
  </structure>
  <varray name="forces" >
   <v>       0.00013919      -0.00022506      -0.00012803 </v>
   <v>      -0.00027652      -0.00035716      -0.00014184 </v>
   <v>      -0.00013987       0.00040378       0.00020041 </v>
   <v>      -0.00018248      -0.00015945       0.00012638 </v>
   <v>       0.00009063      -0.00038604      -0.00002857 </v>
   <v>      -0.00068257      -0.00033942       0.00055548 </v>
   <v>      -0.00131141      -0.00022040       0.00037515 </v>
   <v>      -0.00068768       0.00005918       0.00004958 </v>
   <v>       0.00048593      -0.00013816       0.00016142 </v>
   <v>       0.00009961      -0.00010318       0.00039609 </v>
   <v>       0.00087463      -0.00055512      -0.00021978 </v>
   <v>      -0.00017679       0.00000877      -0.00058327 </v>
   <v>      -0.00026572      -0.00032404       0.00036267 </v>
   <v>       0.00026367       0.00008613       0.00002098 </v>
   <v>       0.00045929      -0.00020824      -0.00012850 </v>
   <v>       0.00012404      -0.00017071      -0.00005769 </v>
   <v>       0.00041516      -0.00008383      -0.00029506 </v>
   <v>      -0.00027197      -0.00012462      -0.00002405 </v>
   <v>       0.00057409       0.00010554      -0.00013454 </v>
   <v>      -0.00076186      -0.00003832       0.00016675 </v>
   <v>      -0.00020971       0.00014506      -0.00002968 </v>
   <v>      -0.00020765      -0.00048940       0.00032983 </v>
   <v>       0.00029565       0.00013937       0.00047623 </v>
   <v>       0.00004747       0.00194085      -0.00101524 </v>
   <v>      -0.00002240      -0.00005546      -0.00003563 </v>
   <v>      -0.00006978      -0.00010134       0.00005508 </v>
   <v>       0.00025324       0.00058001      -0.00080482 </v>
   <v>       0.00004761       0.00002583      -0.00013197 </v>
   <v>      -0.00014096      -0.00025484       0.00018211 </v>
   <v>       0.00026069      -0.00000658      -0.00001718 </v>
   <v>       0.00005247       0.00019007      -0.00037969 </v>
   <v>       0.00003983       0.00001698       0.00004858 </v>
   <v>       0.00012794       0.00044508      -0.00044366 </v>
   <v>      -0.00035598       0.00011916       0.00012875 </v>
   <v>       0.00041188       0.00048531      -0.00086556 </v>
   <v>      -0.00029289       0.00035502      -0.00034169 </v>
   <v>       0.00033729      -0.00047756       0.00009787 </v>
   <v>      -0.00024116      -0.00015903       0.00057739 </v>
   <v>       0.00009063       0.00025118       0.00006382 </v>
   <v>      -0.00008018      -0.00033734       0.00033818 </v>
   <v>       0.00023556      -0.00011497       0.00000567 </v>
   <v>       0.00002958      -0.00029789      -0.00003827 </v>
   <v>       0.00037005       0.00016858       0.00037122 </v>
   <v>      -0.00010417       0.00002812      -0.00002867 </v>
   <v>      -0.00015780      -0.00013836      -0.00000371 </v>
   <v>       0.00009094      -0.00000223      -0.00009222 </v>
   <v>      -0.00006144      -0.00003722       0.00029276 </v>
   <v>       0.00001062      -0.00008957       0.00004930 </v>
   <v>       0.00010479       0.00023190       0.00004699 </v>
   <v>       0.00045735       0.00020559       0.00000864 </v>
   <v>      -0.00023171      -0.00016091       0.00033006 </v>
   <v>       0.00014291       0.00016493       0.00015195 </v>
  </varray>
  <varray name="stress" >
   <v>       1.38218301      -0.33772136       2.81608808 </v>
   <v>      -0.33772101      -1.00228261       1.26210920 </v>
   <v>       2.81608895       1.26210939      -0.37199232 </v>
  </varray>
  <energy>
   <i name="e_fr_energy">   -272.26956031 </i>
   <i name="e_wo_entrp">   -272.26956031 </i>
   <i name="e_0_energy">   -272.26956031 </i>
  </energy>
  <time name="totalsc">    7.40    7.49</time>
 </calculation>
 <calculation>
  <scstep>
   <time name="dav">    2.36    2.38</time>
   <time name="total">    2.88    2.90</time>
   <energy>
    <i name="alphaZ">    301.65597407 </i>
    <i name="ewald">  -8833.73696532 </i>
    <i name="hartreedc">  -2198.36886538 </i>
    <i name="XCdc">    537.89950422 </i>
    <i name="pawpsdc">   9811.25331679 </i>
    <i name="pawaedc">  -9955.20240718 </i>
    <i name="eentropy">     -0.00000000 </i>
    <i name="bandstr">  -2625.31666135 </i>
    <i name="atom">  12703.13999606 </i>
    <i name="e_fr_energy">   -258.67610808 </i>
    <i name="e_wo_entrp">   -258.67610808 </i>
    <i name="e_0_energy">   -258.67610808 </i>
   </energy>
  </scstep>
  <scstep>
   <time name="diag">    0.36    0.37</time>
   <time name="diis">    0.77    0.78</time>
   <time name="orth">    0.07    0.07</time>
   <time name="total">    1.66    1.67</time>
   <energy>
    <i name="alphaZ">    301.65597407 </i>
    <i name="ewald">  -8833.73696532 </i>
    <i name="hartreedc">  -2198.36846720 </i>
    <i name="XCdc">    537.89944884 </i>
    <i name="pawpsdc">   9811.24497850 </i>
    <i name="pawaedc">  -9955.19400121 </i>
    <i name="eentropy">     -0.00000000 </i>
    <i name="bandstr">  -2625.31707182 </i>
    <i name="atom">  12703.13999606 </i>
    <i name="e_fr_energy">   -258.67610809 </i>
    <i name="e_wo_entrp">   -258.67610809 </i>
    <i name="e_0_energy">   -258.67610809 </i>
   </energy>
  </scstep>
  <structure>
   <crystal>
    <varray name="basis" >
     <v>       9.65450415       0.00000000       0.00000000 </v>
     <v>       0.00000000       9.65450415       0.00000000 </v>
     <v>       0.00000000       0.00000000       9.65450415 </v>
    </varray>
    <i name="volume">    899.89102493 </i>
    <varray name="rec_basis" >
     <v>       0.10357860       0.00000000       0.00000000 </v>
     <v>       0.00000000       0.10357860       0.00000000 </v>
     <v>       0.00000000       0.00000000       0.10357860 </v>
    </varray>
   </crystal>
   <varray name="positions" >
    <v>       0.98907507       0.22129972       0.17547724 </v>
    <v>       0.95450412       0.69146553       0.66679035 </v>
    <v>       0.02479955       0.21331893       0.78133971 </v>
    <v>       0.01142448       0.71029353       0.32468694 </v>
    <v>       0.22996057       0.12458299       0.94915433 </v>
    <v>       0.14495871       0.81041453       0.03885754 </v>
    <v>       0.67271233       0.29927818       0.02375285 </v>
    <v>       0.70444174       0.72383630       0.97733298 </v>
    <v>       0.29577571       0.98219338       0.28081367 </v>
    <v>       0.48364822       0.18620695       0.71299620 </v>
    <v>       0.83848735       0.96435644       0.80652212 </v>
    <v>       0.79793214       0.02765837       0.17032353 </v>
    <v>       0.29339473       0.79266509       0.48966704 </v>
    <v>       0.27939453       0.18991625       0.53294899 </v>
    <v>       0.67938609       0.83908544       0.51686940 </v>
    <v>       0.83813565       0.32864753       0.46470641 </v>
    <v>       0.17867455       0.46923349       0.65470917 </v>
    <v>       0.19548321       0.51554555       0.30528163 </v>
    <v>       0.72471328       0.49155491       0.21892025 </v>
    <v>       0.68427398       0.52608299       0.78311973 </v>
    <v>       0.31569992       0.45015852       0.90930954 </v>
    <v>       0.45438040       0.67757698       0.18934414 </v>
    <v>       0.55328301       0.18956097       0.33953355 </v>
    <v>       0.50237243       0.81207458       0.73320598 </v>
    <v>       0.50009984       0.49860602       0.50417681 </v>
    <v>       0.49770057       0.00361792       0.01342280 </v>
    <v>       0.00235991       0.50885304       0.98786939 </v>
    <v>       0.99209978       0.00772605       0.49463497 </v>
    <v>       0.10754618       0.88985133       0.62580587 </v>
    <v>       0.11496863       0.12968410       0.36967014 </v>
    <v>       0.86468597       0.89290292       0.36872732 </v>
    <v>       0.86575044       0.12960846       0.61495662 </v>
    <v>       0.89283299       0.64154723       0.11415811 </v>
    <v>       0.87164484       0.38517772       0.87611117 </v>
    <v>       0.11954535       0.62868239       0.85632596 </v>
    <v>       0.14259059       0.39135546       0.09733867 </v>
    <v>       0.63635135       0.10136106       0.88387299 </v>
    <v>       0.60562403       0.87532920       0.14329423 </v>
    <v>       0.39997553       0.15138494       0.13095935 </v>
    <v>       0.35089588       0.90110490       0.90057294 </v>
    <v>       0.61194552       0.63273449       0.38363671 </v>
    <v>       0.62885857       0.36650821       0.60925691 </v>
    <v>       0.38124705       0.61408620       0.63971956 </v>
    <v>       0.37743059       0.37429488       0.38366776 </v>
    <v>       0.73480264       0.75699590       0.74213615 </v>
    <v>       0.76303086       0.25841811       0.24328741 </v>
    <v>       0.23826644       0.75072644       0.25862973 </v>
    <v>       0.25772050       0.26535168       0.75630406 </v>
    <v>       0.00007262       0.02834574       0.99796392 </v>
    <v>       0.00711318       0.51739461       0.48505374 </v>
    <v>       0.46725541       0.00124879       0.51009553 </v>
    <v>       0.54131492       0.51749884       0.00523762 </v>
   </varray>
  </structure>
  <varray name="forces" >
   <v>       0.00009936      -0.00017447      -0.00015461 </v>
   <v>      -0.00021908      -0.00029018      -0.00013837 </v>
   <v>      -0.00012986       0.00037655       0.00016450 </v>
   <v>      -0.00012253      -0.00013633       0.00012006 </v>
   <v>       0.00006203      -0.00036832      -0.00008799 </v>
   <v>      -0.00058045      -0.00028055       0.00042431 </v>
   <v>      -0.00114163      -0.00016814       0.00029674 </v>
   <v>      -0.00065450       0.00007204       0.00000992 </v>
   <v>       0.00045755      -0.00016481       0.00013769 </v>
   <v>       0.00008909      -0.00008082       0.00034719 </v>
   <v>       0.00082929      -0.00053217      -0.00023106 </v>
   <v>      -0.00017833       0.00001512      -0.00057628 </v>
   <v>      -0.00028833      -0.00028536       0.00039291 </v>
   <v>       0.00023745       0.00005453       0.00009048 </v>
   <v>       0.00039921      -0.00017517      -0.00008900 </v>
   <v>       0.00009055      -0.00013297      -0.00002931 </v>
   <v>       0.00038937      -0.00002550      -0.00026641 </v>
   <v>      -0.00025901      -0.00006816      -0.00002708 </v>
   <v>       0.00053074       0.00010710      -0.00013982 </v>
   <v>      -0.00073760      -0.00003012       0.00012250 </v>
   <v>      -0.00016431       0.00016472      -0.00008563 </v>
   <v>      -0.00021036      -0.00044385       0.00027795 </v>
   <v>       0.00030451       0.00012520       0.00045799 </v>
   <v>       0.00000116       0.00169076      -0.00088655 </v>
   <v>       0.00011311       0.00013831       0.00077351 </v>
   <v>      -0.00027634      -0.00051834      -0.00024139 </v>
   <v>       0.00018306       0.00065332      -0.00128164 </v>
   <v>       0.00069212      -0.00072111       0.00119341 </v>
   <v>      -0.00073358       0.00031405      -0.00042595 </v>
   <v>       0.00047042       0.00026405      -0.00029880 </v>
   <v>      -0.00017494       0.00007931      -0.00068760 </v>
   <v>      -0.00000337       0.00007387      -0.00000148 </v>
   <v>       0.00013056       0.00063209      -0.00047045 </v>
   <v>      -0.00031104       0.00025772       0.00022590 </v>
   <v>       0.00029973       0.00040433      -0.00075538 </v>
   <v>      -0.00016447       0.00031409      -0.00026468 </v>
   <v>       0.00042996      -0.00050978       0.00008271 </v>
   <v>      -0.00030808      -0.00010562       0.00068997 </v>
   <v>       0.00006248       0.00044939       0.00017314 </v>
   <v>       0.00009898      -0.00023159       0.00056532 </v>
   <v>       0.00035359      -0.00004622      -0.00009944 </v>
   <v>      -0.00008345      -0.00020522      -0.00020842 </v>
   <v>       0.00061778       0.00003196       0.00023586 </v>
   <v>      -0.00030362      -0.00014311      -0.00028022 </v>
   <v>      -0.00020767      -0.00012843      -0.00007168 </v>
   <v>       0.00011708      -0.00001474      -0.00005382 </v>
   <v>      -0.00007142      -0.00003284       0.00025785 </v>
   <v>       0.00004867      -0.00007680       0.00008982 </v>
   <v>       0.00012127       0.00005925       0.00006493 </v>
   <v>       0.00023833      -0.00007947      -0.00003616 </v>
   <v>      -0.00001519      -0.00024809       0.00049133 </v>
   <v>      -0.00012833       0.00014051       0.00020321 </v>
  </varray>
  <varray name="stress" >
   <v>       1.38044163      -0.33610067       2.81487771 </v>
   <v>      -0.33610017      -1.00363335       1.26333082 </v>
   <v>       2.81487860       1.26333104      -0.37365414 </v>
  </varray>
  <energy>
   <i name="e_fr_energy">   -272.26956044 </i>
   <i name="e_wo_entrp">   -272.26956044 </i>
   <i name="e_0_energy">   -272.26956044 </i>
  </energy>
  <time name="totalsc">    7.63    7.70</time>
 </calculation>
 <calculation>
  <scstep>
   <time name="dav">    2.30    2.32</time>
   <time name="total">    2.82    2.84</time>
   <energy>
    <i name="alphaZ">    301.65597407 </i>
    <i name="ewald">  -8833.74279415 </i>
    <i name="hartreedc">  -2198.36352215 </i>
    <i name="XCdc">    537.89930557 </i>
    <i name="pawpsdc">   9811.23892308 </i>
    <i name="pawaedc">  -9955.18788717 </i>
    <i name="eentropy">     -0.00000000 </i>
    <i name="bandstr">  -2625.31610499 </i>
    <i name="atom">  12703.13999606 </i>
    <i name="e_fr_energy">   -258.67610969 </i>
    <i name="e_wo_entrp">   -258.67610969 </i>
    <i name="e_0_energy">   -258.67610969 </i>
   </energy>
  </scstep>
  <scstep>
   <time name="diag">    0.37    0.37</time>
   <time name="diis">    0.76    0.77</time>
   <time name="orth">    0.07    0.07</time>
   <time name="total">    1.65    1.66</time>
   <energy>
    <i name="alphaZ">    301.65597407 </i>
    <i name="ewald">  -8833.74279415 </i>
    <i name="hartreedc">  -2198.36329063 </i>
    <i name="XCdc">    537.89927847 </i>
    <i name="pawpsdc">   9811.23188876 </i>
    <i name="pawaedc">  -9955.18081345 </i>
    <i name="eentropy">     -0.00000000 </i>
    <i name="bandstr">  -2625.31634889 </i>
    <i name="atom">  12703.13999606 </i>
    <i name="e_fr_energy">   -258.67610977 </i>
    <i name="e_wo_entrp">   -258.67610977 </i>
    <i name="e_0_energy">   -258.67610977 </i>
   </energy>
  </scstep>
  <structure>
   <crystal>
    <varray name="basis" >
     <v>       9.65450415       0.00000000       0.00000000 </v>
     <v>       0.00000000       9.65450415       0.00000000 </v>
     <v>       0.00000000       0.00000000       9.65450415 </v>
    </varray>
    <i name="volume">    899.89102493 </i>
    <varray name="rec_basis" >
     <v>       0.10357860       0.00000000       0.00000000 </v>
     <v>       0.00000000       0.10357860       0.00000000 </v>
     <v>       0.00000000       0.00000000       0.10357860 </v>
    </varray>
   </crystal>
   <varray name="positions" >
    <v>       0.98907537       0.22129922       0.17547687 </v>
    <v>       0.95450342       0.69146467       0.66678996 </v>
    <v>       0.02479917       0.21332002       0.78134019 </v>
    <v>       0.01142409       0.71029318       0.32468724 </v>
    <v>       0.22996076       0.12458206       0.94915416 </v>
    <v>       0.14495708       0.81041376       0.03885878 </v>
    <v>       0.67270916       0.29927769       0.02375371 </v>
    <v>       0.70443996       0.72383651       0.97733306 </v>
    <v>       0.29577697       0.98219302       0.28081405 </v>
    <v>       0.48364848       0.18620674       0.71299716 </v>
    <v>       0.83848959       0.96435505       0.80652151 </v>
    <v>       0.79793167       0.02765844       0.17032198 </v>
    <v>       0.29339401       0.79266431       0.48966801 </v>
    <v>       0.27939520       0.18991648       0.53294909 </v>
    <v>       0.67938725       0.83908494       0.51686906 </v>
    <v>       0.83813595       0.32864715       0.46470626 </v>
    <v>       0.17867565       0.46923336       0.65470841 </v>
    <v>       0.19548252       0.51554532       0.30528154 </v>
    <v>       0.72471477       0.49155523       0.21891988 </v>
    <v>       0.68427198       0.52608292       0.78312010 </v>
    <v>       0.31569946       0.45015893       0.90930937 </v>
    <v>       0.45437984       0.67757574       0.18934498 </v>
    <v>       0.55328380       0.18956138       0.33953478 </v>
    <v>       0.50237249       0.81207929       0.73320349 </v>
    <v>       0.50009992       0.49860607       0.50417736 </v>
    <v>       0.49770023       0.00361735       0.01342270 </v>
    <v>       0.00236055       0.50885473       0.98786683 </v>
    <v>       0.99210041       0.00772557       0.49463571 </v>
    <v>       0.10754535       0.88985105       0.62580613 </v>
    <v>       0.11496941       0.12968427       0.36966999 </v>
    <v>       0.86468596       0.89290358       0.36872596 </v>
    <v>       0.86575046       0.12960858       0.61495661 </v>
    <v>       0.89283359       0.64154885       0.11415660 </v>
    <v>       0.87164375       0.38517824       0.87611156 </v>
    <v>       0.11954652       0.62868389       0.85632344 </v>
    <v>       0.14258987       0.39135663       0.09733763 </v>
    <v>       0.63635251       0.10135950       0.88387324 </v>
    <v>       0.60562311       0.87532892       0.14329616 </v>
    <v>       0.39997595       0.15138586       0.13095957 </v>
    <v>       0.35089561       0.90110386       0.90057416 </v>
    <v>       0.61194633       0.63273418       0.38363679 </v>
    <v>       0.62885865       0.36650738       0.60925655 </v>
    <v>       0.38124849       0.61408667       0.63972077 </v>
    <v>       0.37743031       0.37429494       0.38366753 </v>
    <v>       0.73480210       0.75699556       0.74213589 </v>
    <v>       0.76303119       0.25841805       0.24328736 </v>
    <v>       0.23826628       0.75072638       0.25863035 </v>
    <v>       0.25772068       0.26535150       0.75630437 </v>
    <v>       0.00007297       0.02834554       0.99796402 </v>
    <v>       0.00711345       0.51739407       0.48505370 </v>
    <v>       0.46725567       0.00124800       0.51009695 </v>
    <v>       0.54131403       0.51749912       0.00523815 </v>
   </varray>
  </structure>
  <varray name="forces" >
   <v>       0.00009193      -0.00009812      -0.00008853 </v>
   <v>      -0.00020741      -0.00022046      -0.00010687 </v>
   <v>      -0.00009345       0.00025832       0.00010711 </v>
   <v>      -0.00012206      -0.00007590       0.00005908 </v>
   <v>       0.00004820      -0.00020426      -0.00002370 </v>
   <v>      -0.00039095      -0.00017454       0.00030897 </v>
   <v>      -0.00073506      -0.00011138       0.00021249 </v>
   <v>      -0.00041679       0.00005493       0.00002826 </v>
   <v>       0.00027788      -0.00005343       0.00008548 </v>
   <v>       0.00006184      -0.00004992       0.00024145 </v>
   <v>       0.00050323      -0.00033660      -0.00014580 </v>
   <v>      -0.00011364       0.00001071      -0.00035464 </v>
   <v>      -0.00016003      -0.00019432       0.00018134 </v>
   <v>       0.00014387       0.00005952       0.00001093 </v>
   <v>       0.00028448      -0.00012028      -0.00009753 </v>
   <v>       0.00006321      -0.00009085      -0.00003466 </v>
   <v>       0.00026526      -0.00003750      -0.00019289 </v>
   <v>      -0.00016022      -0.00006821      -0.00002990 </v>
   <v>       0.00035448       0.00008339      -0.00009113 </v>
   <v>      -0.00047337      -0.00001619       0.00007876 </v>
[...]
       <r>     8.0003    12.9617   144.4715 </r>
       <r>     8.1933    11.5061   146.6929 </r>
       <r>     8.3864    14.8810   149.5663 </r>
       <r>     8.5794    15.6667   152.5902 </r>
       <r>     8.7724    14.9858   155.4852 </r>
       <r>     8.9654    16.5726   158.6853 </r>
       <r>     9.1584    16.0843   161.7902 </r>
       <r>     9.3514    19.4432   165.5438 </r>
       <r>     9.5444    18.2047   169.0588 </r>
       <r>     9.7374    16.3828   172.2212 </r>
       <r>     9.9304    15.0187   175.1229 </r>
       <r>    10.1234     4.5443   176.0000 </r>
       <r>    10.3164     0.0000   176.0000 </r>
       <r>    10.5094     0.0000   176.0000 </r>
       <r>    10.7024     0.0000   176.0000 </r>
       <r>    10.8954     0.0000   176.0000 </r>
       <r>    11.0885     0.0000   176.0000 </r>
       <r>    11.2815     0.0000   176.0000 </r>
       <r>    11.4745     0.0000   176.0000 </r>
       <r>    11.6675     0.0000   176.0000 </r>
       <r>    11.8605     0.0000   176.0000 </r>
       <r>    12.0535     0.0000   176.0000 </r>
       <r>    12.2465     0.0000   176.0000 </r>
       <r>    12.4395     0.0000   176.0000 </r>
       <r>    12.6325     0.0000   176.0000 </r>
      </set>
      <set comment="spin 2">
       <r>   -45.2697     0.0000     0.0000 </r>
       <r>   -45.0767     0.0000     0.0000 </r>
       <r>   -44.8837     0.0000     0.0000 </r>
       <r>   -44.6907     0.0000     0.0000 </r>
       <r>   -44.4977     0.0000     0.0000 </r>
       <r>   -44.3047     0.0000     0.0000 </r>
       <r>   -44.1117     0.0000     0.0000 </r>
       <r>   -43.9187     0.0000     0.0000 </r>
       <r>   -43.7257     0.0000     0.0000 </r>
       <r>   -43.5327     0.0000     0.0000 </r>
       <r>   -43.3397     0.0000     0.0000 </r>
       <r>   -43.1467     0.0000     0.0000 </r>
       <r>   -42.9536     0.0000     0.0000 </r>
       <r>   -42.7606     0.0000     0.0000 </r>
       <r>   -42.5676    11.4084     2.2019 </r>
       <r>   -42.3746    43.5997    10.6175 </r>
       <r>   -42.1816    65.4463    23.2591 </r>
       <r>   -41.9886     3.7828    24.0000 </r>
       <r>   -41.7956     0.0000    24.0000 </r>
       <r>   -41.6026     0.0000    24.0000 </r>
       <r>   -41.4096     0.0000    24.0000 </r>
       <r>   -41.2166     0.0000    24.0000 </r>
       <r>   -41.0236     0.0000    24.0000 </r>
       <r>   -40.8306     0.0000    24.0000 </r>
       <r>   -40.6376     0.0000    24.0000 </r>
       <r>   -40.4445     0.0000    24.0000 </r>
       <r>   -40.2515     0.0000    24.0000 </r>
       <r>   -40.0585     0.0000    24.0000 </r>
       <r>   -39.8655     0.0000    24.0000 </r>
       <r>   -39.6725     0.0000    24.0000 </r>
       <r>   -39.4795     0.0000    24.0000 </r>
       <r>   -39.2865     0.0000    24.0000 </r>
       <r>   -39.0935     0.0000    24.0000 </r>
       <r>   -38.9005     0.0000    24.0000 </r>
       <r>   -38.7075     0.0000    24.0000 </r>
       <r>   -38.5145     0.0000    24.0000 </r>
       <r>   -38.3215     0.0000    24.0000 </r>
       <r>   -38.1285     0.0000    24.0000 </r>
       <r>   -37.9354     0.0000    24.0000 </r>
       <r>   -37.7424     0.0000    24.0000 </r>
       <r>   -37.5494     0.0000    24.0000 </r>
       <r>   -37.3564     0.0000    24.0000 </r>
       <r>   -37.1634     0.0000    24.0000 </r>
       <r>   -36.9704     0.0000    24.0000 </r>
       <r>   -36.7774     0.0000    24.0000 </r>
       <r>   -36.5844     0.0000    24.0000 </r>
       <r>   -36.3914     0.0000    24.0000 </r>
       <r>   -36.1984     0.0000    24.0000 </r>
       <r>   -36.0054     0.0000    24.0000 </r>
       <r>   -35.8124     0.0000    24.0000 </r>
       <r>   -35.6194     0.0000    24.0000 </r>
       <r>   -35.4264     0.0000    24.0000 </r>
       <r>   -35.2333     0.0000    24.0000 </r>
       <r>   -35.0403     0.0000    24.0000 </r>
       <r>   -34.8473     0.0000    24.0000 </r>
       <r>   -34.6543     0.0000    24.0000 </r>
       <r>   -34.4613     0.0000    24.0000 </r>
       <r>   -34.2683     0.0000    24.0000 </r>
       <r>   -34.0753     0.0000    24.0000 </r>
       <r>   -33.8823     0.0000    24.0000 </r>
       <r>   -33.6893     0.0000    24.0000 </r>
       <r>   -33.4963     0.0000    24.0000 </r>
       <r>   -33.3033     0.0000    24.0000 </r>
       <r>   -33.1103     0.0000    24.0000 </r>
       <r>   -32.9173     0.0000    24.0000 </r>
       <r>   -32.7242     0.0000    24.0000 </r>
       <r>   -32.5312     0.0000    24.0000 </r>
       <r>   -32.3382     0.0000    24.0000 </r>
       <r>   -32.1452     0.0000    24.0000 </r>
       <r>   -31.9522     0.0000    24.0000 </r>
       <r>   -31.7592     0.0000    24.0000 </r>
       <r>   -31.5662     0.0000    24.0000 </r>
       <r>   -31.3732     0.0000    24.0000 </r>
       <r>   -31.1802     0.0000    24.0000 </r>
       <r>   -30.9872     0.0000    24.0000 </r>
       <r>   -30.7942     0.0000    24.0000 </r>
       <r>   -30.6012     0.0000    24.0000 </r>
       <r>   -30.4082     0.0000    24.0000 </r>
       <r>   -30.2151     0.0000    24.0000 </r>
       <r>   -30.0221     0.0000    24.0000 </r>
       <r>   -29.8291     0.0000    24.0000 </r>
       <r>   -29.6361     0.0000    24.0000 </r>
       <r>   -29.4431     0.0000    24.0000 </r>
       <r>   -29.2501     0.0000    24.0000 </r>
       <r>   -29.0571     0.0000    24.0000 </r>
       <r>   -28.8641     0.0000    24.0000 </r>
       <r>   -28.6711     0.0000    24.0000 </r>
       <r>   -28.4781     0.0000    24.0000 </r>
       <r>   -28.2851     0.0000    24.0000 </r>
       <r>   -28.0921     0.0000    24.0000 </r>
       <r>   -27.8991     0.0000    24.0000 </r>
       <r>   -27.7061     0.0000    24.0000 </r>
       <r>   -27.5130     0.0000    24.0000 </r>
       <r>   -27.3200     0.0000    24.0000 </r>
       <r>   -27.1270     0.0000    24.0000 </r>
       <r>   -26.9340     0.0000    24.0000 </r>
       <r>   -26.7410     0.0000    24.0000 </r>
       <r>   -26.5480     0.0000    24.0000 </r>
       <r>   -26.3550     0.0000    24.0000 </r>
       <r>   -26.1620     0.0000    24.0000 </r>
       <r>   -25.9690     0.0000    24.0000 </r>
       <r>   -25.7760     0.0000    24.0000 </r>
       <r>   -25.5830     0.0000    24.0000 </r>
       <r>   -25.3900     0.0000    24.0000 </r>
       <r>   -25.1970     0.0000    24.0000 </r>
       <r>   -25.0039     0.0000    24.0000 </r>
       <r>   -24.8109     0.0000    24.0000 </r>
       <r>   -24.6179     0.0000    24.0000 </r>
       <r>   -24.4249     0.0000    24.0000 </r>
       <r>   -24.2319     0.0000    24.0000 </r>
       <r>   -24.0389     0.0000    24.0000 </r>
       <r>   -23.8459     0.0000    24.0000 </r>
       <r>   -23.6529     0.0000    24.0000 </r>
       <r>   -23.4599     0.0000    24.0000 </r>
       <r>   -23.2669     0.0000    24.0000 </r>
       <r>   -23.0739     0.0000    24.0000 </r>
       <r>   -22.8809     0.0000    24.0000 </r>
       <r>   -22.6879     0.0000    24.0000 </r>
       <r>   -22.4948     0.0000    24.0000 </r>
       <r>   -22.3018     0.0000    24.0000 </r>
       <r>   -22.1088     0.0000    24.0000 </r>
       <r>   -21.9158     0.0000    24.0000 </r>
       <r>   -21.7228     0.0000    24.0000 </r>
       <r>   -21.5298     0.0000    24.0000 </r>
       <r>   -21.3368     0.0000    24.0000 </r>
       <r>   -21.1438     0.0000    24.0000 </r>
       <r>   -20.9508     0.0000    24.0000 </r>
       <r>   -20.7578     0.0000    24.0000 </r>
       <r>   -20.5648     0.0000    24.0000 </r>
       <r>   -20.3718     0.0000    24.0000 </r>
       <r>   -20.1788     0.0000    24.0000 </r>
       <r>   -19.9858     0.0000    24.0000 </r>
       <r>   -19.7927     0.0000    24.0000 </r>
       <r>   -19.5997     0.0000    24.0000 </r>
       <r>   -19.4067     0.0000    24.0000 </r>
       <r>   -19.2137     0.0000    24.0000 </r>
       <r>   -19.0207     0.0000    24.0000 </r>
       <r>   -18.8277     0.0000    24.0000 </r>
       <r>   -18.6347     0.0000    24.0000 </r>
       <r>   -18.4417     0.0000    24.0000 </r>
       <r>   -18.2487     0.0000    24.0000 </r>
       <r>   -18.0557     0.0000    24.0000 </r>
       <r>   -17.8627     0.0000    24.0000 </r>
       <r>   -17.6697     0.0000    24.0000 </r>
       <r>   -17.4767     0.0000    24.0000 </r>
       <r>   -17.2836     0.0000    24.0000 </r>
       <r>   -17.0906     0.0000    24.0000 </r>
       <r>   -16.8976     0.0000    24.0000 </r>
       <r>   -16.7046     0.0000    24.0000 </r>
       <r>   -16.5116     0.0000    24.0000 </r>
       <r>   -16.3186     0.0000    24.0000 </r>
       <r>   -16.1256     0.0000    24.0000 </r>
       <r>   -15.9326     0.0000    24.0000 </r>
       <r>   -15.7396     0.0000    24.0000 </r>
       <r>   -15.5466     0.0000    24.0000 </r>
       <r>   -15.3536     0.0000    24.0000 </r>
       <r>   -15.1606     0.0000    24.0000 </r>
       <r>   -14.9676     0.0000    24.0000 </r>
       <r>   -14.7745     0.0000    24.0000 </r>
       <r>   -14.5815     0.0000    24.0000 </r>
       <r>   -14.3885     0.0000    24.0000 </r>
       <r>   -14.1955     0.0000    24.0000 </r>
       <r>   -14.0025     0.0000    24.0000 </r>
       <r>   -13.8095     0.0000    24.0000 </r>
       <r>   -13.6165     0.0000    24.0000 </r>
       <r>   -13.4235     0.0000    24.0000 </r>
       <r>   -13.2305     0.0000    24.0000 </r>
       <r>   -13.0375     3.4548    24.6668 </r>
       <r>   -12.8445    15.6541    27.6882 </r>
       <r>   -12.6515     8.7892    29.3845 </r>
       <r>   -12.4585    13.4947    32.0000 </r>
       <r>   -12.2655     0.0000    32.0000 </r>
       <r>   -12.0724     0.0000    32.0000 </r>
       <r>   -11.8794     0.0000    32.0000 </r>
       <r>   -11.6864     0.0000    32.0000 </r>
       <r>   -11.4934     0.0000    32.0000 </r>
       <r>   -11.3004     0.0000    32.0000 </r>
       <r>   -11.1074     0.0000    32.0000 </r>
       <r>   -10.9144     0.0000    32.0000 </r>
       <r>   -10.7214     0.0000    32.0000 </r>
       <r>   -10.5284     0.0000    32.0000 </r>
       <r>   -10.3354     0.0175    32.0034 </r>
       <r>   -10.1424    15.6486    35.0237 </r>
       <r>    -9.9494    21.1014    39.0984 </r>
       <r>    -9.7564    22.7171    43.4854 </r>
       <r>    -9.5633     2.6663    44.0000 </r>
       <r>    -9.3703     0.0000    44.0000 </r>
       <r>    -9.1773     0.0000    44.0000 </r>
       <r>    -8.9843     0.0000    44.0000 </r>
       <r>    -8.7913     0.0000    44.0000 </r>
       <r>    -8.5983     0.0000    44.0000 </r>
       <r>    -8.4053     0.0076    44.0015 </r>
       <r>    -8.2123    19.8513    47.8329 </r>
       <r>    -8.0193     0.8649    48.0000 </r>
       <r>    -7.8263     0.0000    48.0000 </r>
       <r>    -7.6333     0.0000    48.0000 </r>
       <r>    -7.4403     0.0000    48.0000 </r>
       <r>    -7.2473     0.0000    48.0000 </r>
       <r>    -7.0542     0.0000    48.0000 </r>
       <r>    -6.8612     0.0000    48.0000 </r>
       <r>    -6.6682     0.0000    48.0000 </r>
       <r>    -6.4752     0.0000    48.0000 </r>
       <r>    -6.2822     0.0000    48.0000 </r>
       <r>    -6.0892     1.8698    48.3609 </r>
       <r>    -5.8962     3.3113    49.0000 </r>
       <r>    -5.7032     3.0613    49.5908 </r>
       <r>    -5.5102    10.3334    51.5853 </r>
       <r>    -5.3172     2.1486    52.0000 </r>
       <r>    -5.1242     0.0000    52.0000 </r>
       <r>    -4.9312     0.0000    52.0000 </r>
       <r>    -4.7382     0.0000    52.0000 </r>
       <r>    -4.5452     0.0000    52.0000 </r>
       <r>    -4.3521     0.0000    52.0000 </r>
       <r>    -4.1591     0.0000    52.0000 </r>
       <r>    -3.9661     0.0000    52.0000 </r>
       <r>    -3.7731     0.0000    52.0000 </r>
       <r>    -3.5801     0.0000    52.0000 </r>
       <r>    -3.3871     0.0000    52.0000 </r>
       <r>    -3.1941     4.9017    52.9461 </r>
       <r>    -3.0011    10.6417    55.0000 </r>
       <r>    -2.8081     3.7433    55.7225 </r>
       <r>    -2.6151    11.4361    57.9297 </r>
       <r>    -2.4221     9.5923    59.7812 </r>
       <r>    -2.2291    17.4403    63.1481 </r>
       <r>    -2.0361     4.4042    64.0000 </r>
       <r>    -1.8430     0.0000    64.0000 </r>
       <r>    -1.6500     0.0002    64.0000 </r>
       <r>    -1.4570    13.6088    66.6266 </r>
       <r>    -1.2640    23.8131    71.2234 </r>
       <r>    -1.0710    24.5618    75.9649 </r>
       <r>    -0.8780     0.1800    76.0000 </r>
       <r>    -0.6850     0.0005    76.0001 </r>
       <r>    -0.4920    10.3401    77.9958 </r>
       <r>    -0.2990    10.5573    80.0336 </r>
       <r>    -0.1060    14.8922    82.9083 </r>
       <r>     0.0870    24.4256    87.6293 </r>
       <r>     0.2800    23.0495    92.0849 </r>
       <r>     0.4730    17.9720    95.5542 </r>
       <r>     0.6661     2.3055    96.0019 </r>
       <r>     0.8591     9.8184    97.8970 </r>
       <r>     1.0521    22.9861   102.3335 </r>
       <r>     1.2451    19.8962   106.1770 </r>
       <r>     1.4381    25.8485   111.1682 </r>
       <r>     1.6311    28.4534   116.6632 </r>
       <r>     1.8241    15.7057   119.6948 </r>
       <r>     2.0171     1.5666   120.0000 </r>
       <r>     2.2101     0.0000   120.0000 </r>
       <r>     2.4031     0.0000   120.0000 </r>
       <r>     2.5961     0.0000   120.0000 </r>
       <r>     2.7891     0.0000   120.0000 </r>
       <r>     2.9821     0.0000   120.0000 </r>
       <r>     3.1751     0.0000   120.0000 </r>
       <r>     3.3682     0.0000   120.0000 </r>
       <r>     3.5612     0.0000   120.0000 </r>
       <r>     3.7542     0.0000   120.0000 </r>
       <r>     3.9472     0.0000   120.0000 </r>
       <r>     4.1402     0.0000   120.0000 </r>
       <r>     4.3332     0.0000   120.0000 </r>
       <r>     4.5262     4.8861   120.9430 </r>
       <r>     4.7192     0.2940   121.0000 </r>
       <r>     4.9122     0.0000   121.0000 </r>
       <r>     5.1052     0.0000   121.0000 </r>
       <r>     5.2982     5.0739   121.9793 </r>
       <r>     5.4912    10.4197   123.9904 </r>
       <r>     5.6842     0.0458   124.0000 </r>
       <r>     5.8773     0.1926   124.0372 </r>
       <r>     6.0703    12.2125   126.3943 </r>
       <r>     6.2633    15.1588   129.3218 </r>
       <r>     6.4563     3.8776   130.0753 </r>
       <r>     6.6493    10.7592   132.1519 </r>
       <r>     6.8423     9.2538   133.9390 </r>
       <r>     7.0353    10.5740   135.9800 </r>
       <r>     7.2283     5.2602   136.9982 </r>
       <r>     7.4213     4.5013   137.8688 </r>
       <r>     7.6143     8.9961   139.6075 </r>
       <r>     7.8073    12.2323   141.9686 </r>
       <r>     8.0003    12.9617   144.4715 </r>
       <r>     8.1933    11.5061   146.6929 </r>
       <r>     8.3864    14.8810   149.5663 </r>
       <r>     8.5794    15.6667   152.5902 </r>
       <r>     8.7724    14.9858   155.4852 </r>
       <r>     8.9654    16.5726   158.6853 </r>
       <r>     9.1584    16.0843   161.7902 </r>
       <r>     9.3514    19.4387   165.5429 </r>
       <r>     9.5444    18.2090   169.0588 </r>
       <r>     9.7374    16.2174   172.1892 </r>
       <r>     9.9304    15.3949   175.1631 </r>
       <r>    10.1234     4.3359   176.0000 </r>
       <r>    10.3164     0.0000   176.0000 </r>
       <r>    10.5094     0.0000   176.0000 </r>
       <r>    10.7024     0.0000   176.0000 </r>
       <r>    10.8954     0.0000   176.0000 </r>
       <r>    11.0885     0.0000   176.0000 </r>
       <r>    11.2815     0.0000   176.0000 </r>
       <r>    11.4745     0.0000   176.0000 </r>
       <r>    11.6675     0.0000   176.0000 </r>
       <r>    11.8605     0.0000   176.0000 </r>
       <r>    12.0535     0.0000   176.0000 </r>
       <r>    12.2465     0.0000   176.0000 </r>
       <r>    12.4395     0.0000   176.0000 </r>
       <r>    12.6325     0.0000   176.0000 </r>
      </set>
     </set>
    </array>
   </total>
  </dos>
 </calculation>
 <structure name="finalpos" >
  <crystal>
   <varray name="basis" >
    <v>       9.65450415       0.00000000       0.00000000 </v>
    <v>       0.00000000       9.65450415       0.00000000 </v>
    <v>       0.00000000       0.00000000       9.65450415 </v>
   </varray>
   <i name="volume">    899.89102493 </i>
   <varray name="rec_basis" >
    <v>       0.10357860       0.00000000       0.00000000 </v>
    <v>       0.00000000       0.10357860       0.00000000 </v>
    <v>       0.00000000       0.00000000       0.10357860 </v>
   </varray>
  </crystal>
  <varray name="positions" >
   <v>       0.98907585       0.22129845       0.17547628 </v>
   <v>       0.95450233       0.69146332       0.66678936 </v>
   <v>       0.02479858       0.21332173       0.78134094 </v>
   <v>       0.01142349       0.71029263       0.32468771 </v>
   <v>       0.22996106       0.12458062       0.94915388 </v>
   <v>       0.14495452       0.81041256       0.03886073 </v>
   <v>       0.67270421       0.29927693       0.02375506 </v>
   <v>       0.70443716       0.72383683       0.97733318 </v>
   <v>       0.29577893       0.98219246       0.28081464 </v>
   <v>       0.48364888       0.18620640       0.71299868 </v>
   <v>       0.83849308       0.96435288       0.80652056 </v>
   <v>       0.79793094       0.02765854       0.17031955 </v>
   <v>       0.29339287       0.79266310       0.48966953 </v>
   <v>       0.27939624       0.18991685       0.53294925 </v>
   <v>       0.67938907       0.83908417       0.51686853 </v>
   <v>       0.83813642       0.32864656       0.46470602 </v>
   <v>       0.17867737       0.46923315       0.65470721 </v>
   <v>       0.19548144       0.51554497       0.30528140 </v>
   <v>       0.72471709       0.49155573       0.21891930 </v>
   <v>       0.68426885       0.52608281       0.78312069 </v>
   <v>       0.31569874       0.45015958       0.90930911 </v>
   <v>       0.45437897       0.67757381       0.18934628 </v>
   <v>       0.55328505       0.18956201       0.33953670 </v>
   <v>       0.50237257       0.81208664       0.73319961 </v>
   <v>       0.50010003       0.49860615       0.50417822 </v>
   <v>       0.49769971       0.00361646       0.01342254 </v>
   <v>       0.00236155       0.50885738       0.98786283 </v>
   <v>       0.99210139       0.00772482       0.49463686 </v>
   <v>       0.10754407       0.88985061       0.62580655 </v>
   <v>       0.11497064       0.12968452       0.36966975 </v>
   <v>       0.86468594       0.89290461       0.36872383 </v>
   <v>       0.86575049       0.12960877       0.61495661 </v>
   <v>       0.89283452       0.64155137       0.11415424 </v>
   <v>       0.87164205       0.38517905       0.87611217 </v>
   <v>       0.11954836       0.62868623       0.85631950 </v>
   <v>       0.14258875       0.39135846       0.09733601 </v>
   <v>       0.63635432       0.10135706       0.88387364 </v>
   <v>       0.60562168       0.87532849       0.14329916 </v>
   <v>       0.39997661       0.15138730       0.13095992 </v>
   <v>       0.35089520       0.90110223       0.90057607 </v>
   <v>       0.61194758       0.63273371       0.38363692 </v>
   <v>       0.62885879       0.36650608       0.60925600 </v>
   <v>       0.38125072       0.61408742       0.63972265 </v>
   <v>       0.37742987       0.37429504       0.38366716 </v>
   <v>       0.73480124       0.75699504       0.74213547 </v>
   <v>       0.76303171       0.25841797       0.24328726 </v>
   <v>       0.23826603       0.75072629       0.25863133 </v>
   <v>       0.25772094       0.26535120       0.75630485 </v>
   <v>       0.00007351       0.02834524       0.99796417 </v>
   <v>       0.00711386       0.51739323       0.48505363 </v>
   <v>       0.46725609       0.00124677       0.51009917 </v>
   <v>       0.54131265       0.51749955       0.00523898 </v>
  </varray>
 </structure>
</modeling>
