unknown system                          
           1
     9.654504    0.000000    0.000000
     0.000000    9.654504    0.000000
     0.000000    0.000000    9.654504
   Li   P    S    Cl
    24     4    20     4
Direct configuration=     1
   0.98907452  0.22130042  0.17547742
   0.95450555  0.69146696  0.66679087
   0.02480014  0.21331725  0.78133893
   0.01142524  0.71029385  0.32468673
   0.22996022  0.12458367  0.94915419
   0.14496101  0.81041550  0.03885551
   0.67271655  0.29927893  0.02375152
   0.70444395  0.72383600  0.97733261
   0.29577413  0.98219332  0.28081317
   0.48364782  0.18620720  0.71299489
   0.83848476  0.96435780  0.80652277
   0.79793264  0.02765817  0.17032532
   0.29339531  0.79266605  0.48966636
   0.27939361  0.18991549  0.53294967
   0.67938426  0.83908614  0.51687033
   0.83813501  0.32864810  0.46470700
   0.17867299  0.46923400  0.65471032
   0.19548397  0.51554604  0.30528183
   0.72471126  0.49155439  0.21892067
   0.68427639  0.52608302  0.78311905
   0.31570055  0.45015821  0.90930939
   0.45438098  0.67757862  0.18934272
   0.55328223  0.18956013  0.33953214
   0.50237209  0.81206828  0.73320939
   0.50010102  0.49860772  0.50418460
   0.49769872  0.00361403  0.01341989
   0.00235834  0.50885145  0.98786746
   0.99210586  0.00771856  0.49464777
   0.10754078  0.88985789  0.62579777
   0.11497040  0.12968693  0.36966671
   0.86468346  0.89289968  0.36872620
   0.86575026  0.12960875  0.61495661
   0.89283095  0.64154583  0.11416120
   0.87164749  0.38517809  0.87611192
   0.11954196  0.62867839  0.85633159
   0.14259295  0.39135234  0.09734167
   0.63635002  0.10136392  0.88387251
   0.60562557  0.87532948  0.14329162
   0.39997364  0.15138547  0.13096043
   0.35089910  0.90110840  0.90057319
   0.61194542  0.63273583  0.38363466
   0.62885675  0.36651071  0.60925618
   0.38124667  0.61408350  0.63971502
   0.37742796  0.37429233  0.38366518
   0.73480321  0.75699621  0.74213687
   0.76303041  0.25841824  0.24328701
   0.23826644  0.75072634  0.25862939
   0.25772008  0.26535180  0.75630333
   0.00007211  0.02834793  0.99796423
   0.00711493  0.51739700  0.48505351
   0.46725343  0.00125036  0.51009335
   0.54131891  0.51749908  0.00523709
Direct configuration=     2
   0.98907487  0.22129997  0.17547731
   0.95450464  0.69146605  0.66679054
   0.02479976  0.21331833  0.78133943
   0.01142475  0.71029365  0.32468687
   0.22996045  0.12458323  0.94915428
   0.14495954  0.81041488  0.03885681
   0.67271385  0.29927845  0.02375237
   0.70444254  0.72383619  0.97733284
   0.29577514  0.98219336  0.28081349
   0.48364807  0.18620704  0.71299572
   0.83848642  0.96435693  0.80652235
   0.79793232  0.02765830  0.17032417
   0.29339494  0.79266544  0.48966679
   0.27939420  0.18991598  0.53294924
   0.67938543  0.83908569  0.51686973
   0.83813542  0.32864774  0.46470662
   0.17867399  0.46923367  0.65470959
   0.19548349  0.51554573  0.30528171
   0.72471255  0.49155472  0.21892040
   0.68427485  0.52608300  0.78311948
   0.31570015  0.45015841  0.90930948
   0.45438061  0.67757757  0.18934363
   0.55328273  0.18956067  0.33953304
   0.50237231  0.81207231  0.73320721
   0.50010027  0.49860663  0.50417962
   0.49769990  0.00361651  0.01342175
   0.00235934  0.50885247  0.98786870
   0.99210197  0.00772334  0.49463959
   0.10754423  0.88985370  0.62580294
   0.11496927  0.12968512  0.36966890
   0.86468506  0.89290175  0.36872691
   0.86575037  0.12960857  0.61495661
   0.89283225  0.64154673  0.11415922
   0.87164580  0.38517785  0.87611144
   0.11954413  0.62868095  0.85632799
   0.14259144  0.39135433  0.09733975
   0.63635087  0.10136209  0.88387281
   0.60562458  0.87532930  0.14329329
   0.39997484  0.15138513  0.13095974
   0.35089704  0.90110616  0.90057303
   0.61194549  0.63273497  0.38363597
   0.62885791  0.36650911  0.60925664
   0.38124692  0.61408522  0.63971792
   0.37742964  0.37429396  0.38366683
   0.73480285  0.75699601  0.74213641
   0.76303070  0.25841815  0.24328727
   0.23826644  0.75072640  0.25862961
   0.25772035  0.26535172  0.75630380
   0.00007244  0.02834653  0.99796403
   0.00711381  0.51739547  0.48505366
   0.46725469  0.00124936  0.51009474
   0.54131636  0.51749893  0.00523743
Direct configuration=     3
   0.98907494  0.22129989  0.17547728
   0.95450447  0.69146587  0.66679047
   0.02479969  0.21331853  0.78133952
   0.01142466  0.71029361  0.32468689
   0.22996049  0.12458315  0.94915430
   0.14495927  0.81041476  0.03885705
   0.67271335  0.29927836  0.02375253
   0.70444228  0.72383623  0.97733289
   0.29577533  0.98219336  0.28081355
   0.48364812  0.18620701  0.71299588
   0.83848673  0.96435677  0.80652228
   0.79793226  0.02765832  0.17032396
   0.29339487  0.79266532  0.48966687
   0.27939431  0.18991607  0.53294916
   0.67938565  0.83908561  0.51686962
   0.83813550  0.32864767  0.46470655
   0.17867418  0.46923361  0.65470945
   0.19548339  0.51554567  0.30528168
   0.72471280  0.49155479  0.21892035
   0.68427456  0.52608300  0.78311956
   0.31570007  0.45015845  0.90930950
   0.45438054  0.67757737  0.18934380
   0.55328282  0.18956077  0.33953321
   0.50237235  0.81207307  0.73320680
   0.50010012  0.49860643  0.50417869
   0.49770013  0.00361698  0.01342210
   0.00235953  0.50885266  0.98786893
   0.99210124  0.00772424  0.49463805
   0.10754488  0.88985291  0.62580392
   0.11496906  0.12968478  0.36966931
   0.86468537  0.89290214  0.36872705
   0.86575039  0.12960853  0.61495662
   0.89283250  0.64154690  0.11415885
   0.87164548  0.38517781  0.87611135
   0.11954453  0.62868143  0.85632732
   0.14259116  0.39135471  0.09733939
   0.63635103  0.10136175  0.88387287
   0.60562440  0.87532926  0.14329360
   0.39997507  0.15138507  0.13095961
   0.35089665  0.90110574  0.90057300
   0.61194550  0.63273481  0.38363621
   0.62885813  0.36650881  0.60925673
   0.38124696  0.61408555  0.63971847
   0.37742996  0.37429426  0.38366714
   0.73480278  0.75699597  0.74213633
   0.76303075  0.25841814  0.24328732
   0.23826644  0.75072641  0.25862965
   0.25772040  0.26535171  0.75630389
   0.00007250  0.02834627  0.99796399
   0.00711360  0.51739518  0.48505369
   0.46725493  0.00124917  0.51009501
   0.54131588  0.51749890  0.00523749
Direct configuration=     4
   0.98907507  0.22129972  0.17547724
   0.95450412  0.69146553  0.66679035
   0.02479955  0.21331893  0.78133971
   0.01142448  0.71029353  0.32468694
   0.22996057  0.12458299  0.94915433
   0.14495871  0.81041453  0.03885754
   0.67271233  0.29927818  0.02375285
   0.70444174  0.72383630  0.97733298
   0.29577571  0.98219338  0.28081367
   0.48364822  0.18620695  0.71299620
   0.83848735  0.96435644  0.80652212
   0.79793214  0.02765837  0.17032353
   0.29339473  0.79266509  0.48966704
   0.27939453  0.18991625  0.53294899
   0.67938609  0.83908544  0.51686940
   0.83813565  0.32864753  0.46470641
   0.17867455  0.46923349  0.65470917
   0.19548321  0.51554555  0.30528163
   0.72471328  0.49155491  0.21892025
   0.68427398  0.52608299  0.78311973
   0.31569992  0.45015852  0.90930954
   0.45438040  0.67757698  0.18934414
   0.55328301  0.18956097  0.33953355
   0.50237243  0.81207458  0.73320598
   0.50009984  0.49860602  0.50417681
   0.49770057  0.00361792  0.01342280
   0.00235991  0.50885304  0.98786939
   0.99209978  0.00772605  0.49463497
   0.10754618  0.88985133  0.62580587
   0.11496863  0.12968410  0.36967014
   0.86468597  0.89290292  0.36872732
   0.86575044  0.12960846  0.61495662
   0.89283299  0.64154723  0.11415811
   0.87164484  0.38517772  0.87611117
   0.11954535  0.62868239  0.85632596
   0.14259059  0.39135546  0.09733867
   0.63635135  0.10136106  0.88387299
   0.60562403  0.87532920  0.14329423
   0.39997553  0.15138494  0.13095935
   0.35089588  0.90110490  0.90057294
   0.61194552  0.63273449  0.38363671
   0.62885857  0.36650821  0.60925691
   0.38124705  0.61408620  0.63971956
   0.37743059  0.37429488  0.38366776
   0.73480264  0.75699590  0.74213615
   0.76303086  0.25841811  0.24328741
   0.23826644  0.75072644  0.25862973
   0.25772050  0.26535168  0.75630406
   0.00007262  0.02834574  0.99796392
   0.00711318  0.51739461  0.48505374
   0.46725541  0.00124879  0.51009553
   0.54131492  0.51749884  0.00523762
Direct configuration=     5
   0.98907537  0.22129922  0.17547687
   0.95450342  0.69146467  0.66678996
   0.02479917  0.21332002  0.78134019
   0.01142409  0.71029318  0.32468724
   0.22996076  0.12458206  0.94915416
   0.14495708  0.81041376  0.03885878
   0.67270916  0.29927769  0.02375371
   0.70443996  0.72383651  0.97733306
   0.29577697  0.98219302  0.28081405
   0.48364848  0.18620674  0.71299716
   0.83848959  0.96435505  0.80652151
   0.79793167  0.02765844  0.17032198
   0.29339401  0.79266431  0.48966801
   0.27939520  0.18991648  0.53294909
   0.67938725  0.83908494  0.51686906
   0.83813595  0.32864715  0.46470626
   0.17867565  0.46923336  0.65470841
   0.19548252  0.51554532  0.30528154
   0.72471477  0.49155523  0.21891988
   0.68427198  0.52608292  0.78312010
   0.31569946  0.45015893  0.90930937
   0.45437984  0.67757574  0.18934498
   0.55328380  0.18956138  0.33953478
   0.50237249  0.81207929  0.73320349
   0.50009992  0.49860607  0.50417736
   0.49770023  0.00361735  0.01342270
   0.00236055  0.50885473  0.98786683
   0.99210041  0.00772557  0.49463571
   0.10754535  0.88985105  0.62580613
   0.11496941  0.12968427  0.36966999
   0.86468596  0.89290358  0.36872596
   0.86575046  0.12960858  0.61495661
   0.89283359  0.64154885  0.11415660
   0.87164375  0.38517824  0.87611156
   0.11954652  0.62868389  0.85632344
   0.14258987  0.39135663  0.09733763
   0.63635251  0.10135950  0.88387324
   0.60562311  0.87532892  0.14329616
   0.39997595  0.15138586  0.13095957
   0.35089561  0.90110386  0.90057416
   0.61194633  0.63273418  0.38363679
   0.62885865  0.36650738  0.60925655
   0.38124849  0.61408667  0.63972077
   0.37743031  0.37429494  0.38366753
   0.73480210  0.75699556  0.74213589
   0.76303119  0.25841805  0.24328736
   0.23826628  0.75072638  0.25863035
   0.25772068  0.26535150  0.75630437
   0.00007297  0.02834554  0.99796402
   0.00711345  0.51739407  0.48505370
   0.46725567  0.00124800  0.51009695
   0.54131403  0.51749912  0.00523815
Direct configuration=     6
   0.98907585  0.22129845  0.17547628
   0.95450233  0.69146332  0.66678936
   0.02479858  0.21332173  0.78134094
   0.01142349  0.71029263  0.32468771
   0.22996106  0.12458062  0.94915388
   0.14495452  0.81041256  0.03886073
   0.67270421  0.29927693  0.02375506
   0.70443716  0.72383683  0.97733318
   0.29577893  0.98219246  0.28081464
   0.48364888  0.18620640  0.71299868
   0.83849308  0.96435288  0.80652056
   0.79793094  0.02765854  0.17031955
   0.29339287  0.79266310  0.48966953
   0.27939624  0.18991685  0.53294925
   0.67938907  0.83908417  0.51686853
   0.83813642  0.32864656  0.46470602
   0.17867737  0.46923315  0.65470721
   0.19548144  0.51554497  0.30528140
   0.72471709  0.49155573  0.21891930
   0.68426885  0.52608281  0.78312069
   0.31569874  0.45015958  0.90930911
   0.45437897  0.67757381  0.18934628
   0.55328505  0.18956201  0.33953670
   0.50237257  0.81208664  0.73319961
   0.50010003  0.49860615  0.50417822
   0.49769971  0.00361646  0.01342254
   0.00236155  0.50885738  0.98786283
   0.99210139  0.00772482  0.49463686
   0.10754407  0.88985061  0.62580655
   0.11497064  0.12968452  0.36966975
   0.86468594  0.89290461  0.36872383
   0.86575049  0.12960877  0.61495661
   0.89283452  0.64155137  0.11415424
   0.87164205  0.38517905  0.87611217
   0.11954836  0.62868623  0.85631950
   0.14258875  0.39135846  0.09733601
   0.63635432  0.10135706  0.88387364
   0.60562168  0.87532849  0.14329916
   0.39997661  0.15138730  0.13095992
   0.35089520  0.90110223  0.90057607
   0.61194758  0.63273371  0.38363692
   0.62885879  0.36650608  0.60925600
   0.38125072  0.61408742  0.63972265
   0.37742987  0.37429504  0.38366716
   0.73480124  0.75699504  0.74213547
   0.76303171  0.25841797  0.24328726
   0.23826603  0.75072629  0.25863133
   0.25772094  0.26535120  0.75630485
   0.00007351  0.02834524  0.99796417
   0.00711386  0.51739323  0.48505363
   0.46725609  0.00124677  0.51009917
   0.54131265  0.51749955  0.00523898
