  52  52   0   4
  0.1746336E+02  0.9683754E-09  0.9683754E-09  0.9683754E-09  0.2000000E-15
  1.000000000000000E-004
  CAR 
 unknown system                          
     12.51338016    -45.49358162  301      2.09629661      1.00000000
    -45.494  0.0000E+00  0.0000E+00  0.0000E+00  0.0000E+00
    -45.300  0.0000E+00  0.0000E+00  0.0000E+00  0.0000E+00
    -45.107  0.0000E+00  0.0000E+00  0.0000E+00  0.0000E+00
    -44.914  0.0000E+00  0.0000E+00  0.0000E+00  0.0000E+00
    -44.720  0.0000E+00  0.0000E+00  0.0000E+00  0.0000E+00
    -44.527  0.0000E+00  0.0000E+00  0.0000E+00  0.0000E+00
    -44.333  0.0000E+00  0.0000E+00  0.0000E+00  0.0000E+00
    -44.140  0.0000E+00  0.0000E+00  0.0000E+00  0.0000E+00
    -43.947  0.0000E+00  0.0000E+00  0.0000E+00  0.0000E+00
    -43.753  0.0000E+00  0.0000E+00  0.0000E+00  0.0000E+00
    -43.560  0.0000E+00  0.0000E+00  0.0000E+00  0.0000E+00
    -43.367  0.0000E+00  0.0000E+00  0.0000E+00  0.0000E+00
    -43.173  0.0000E+00  0.0000E+00  0.0000E+00  0.0000E+00
    -42.980  0.1710E-10  0.1710E-10  0.3307E-11  0.3307E-11
    -42.787  0.5173E-02  0.5173E-02  0.1000E-02  0.1000E-02
    -42.593  0.1239E-01  0.1239E-01  0.3396E-02  0.3396E-02
    -42.400  0.6200E-01  0.6200E-01  0.1539E-01  0.1539E-01
    -42.207  0.3949E-01  0.3949E-01  0.2304E-01  0.2304E-01
    -42.013  0.4941E-02  0.4941E-02  0.2400E-01  0.2400E-01
    -41.820  0.0000E+00  0.0000E+00  0.2400E-01  0.2400E-01
    -41.626  0.0000E+00  0.0000E+00  0.2400E-01  0.2400E-01
    -41.433  0.0000E+00  0.0000E+00  0.2400E-01  0.2400E-01
    -41.240  0.0000E+00  0.0000E+00  0.2400E-01  0.2400E-01
    -41.046  0.0000E+00  0.0000E+00  0.2400E-01  0.2400E-01
    -40.853  0.0000E+00  0.0000E+00  0.2400E-01  0.2400E-01
    -40.660  0.0000E+00  0.0000E+00  0.2400E-01  0.2400E-01
    -40.466  0.0000E+00  0.0000E+00  0.2400E-01  0.2400E-01
    -40.273  0.0000E+00  0.0000E+00  0.2400E-01  0.2400E-01
    -40.080  0.0000E+00  0.0000E+00  0.2400E-01  0.2400E-01
    -39.886  0.0000E+00  0.0000E+00  0.2400E-01  0.2400E-01
    -39.693  0.0000E+00  0.0000E+00  0.2400E-01  0.2400E-01
    -39.500  0.0000E+00  0.0000E+00  0.2400E-01  0.2400E-01
    -39.306  0.0000E+00  0.0000E+00  0.2400E-01  0.2400E-01
    -39.113  0.0000E+00  0.0000E+00  0.2400E-01  0.2400E-01
    -38.919  0.0000E+00  0.0000E+00  0.2400E-01  0.2400E-01
    -38.726  0.0000E+00  0.0000E+00  0.2400E-01  0.2400E-01
    -38.533  0.0000E+00  0.0000E+00  0.2400E-01  0.2400E-01
    -38.339  0.0000E+00  0.0000E+00  0.2400E-01  0.2400E-01
    -38.146  0.0000E+00  0.0000E+00  0.2400E-01  0.2400E-01
    -37.953  0.0000E+00  0.0000E+00  0.2400E-01  0.2400E-01
    -37.759  0.0000E+00  0.0000E+00  0.2400E-01  0.2400E-01
    -37.566  0.0000E+00  0.0000E+00  0.2400E-01  0.2400E-01
    -37.373  0.0000E+00  0.0000E+00  0.2400E-01  0.2400E-01
    -37.179  0.0000E+00  0.0000E+00  0.2400E-01  0.2400E-01
    -36.986  0.0000E+00  0.0000E+00  0.2400E-01  0.2400E-01
    -36.793  0.0000E+00  0.0000E+00  0.2400E-01  0.2400E-01
    -36.599  0.0000E+00  0.0000E+00  0.2400E-01  0.2400E-01
    -36.406  0.0000E+00  0.0000E+00  0.2400E-01  0.2400E-01
    -36.212  0.0000E+00  0.0000E+00  0.2400E-01  0.2400E-01
    -36.019  0.0000E+00  0.0000E+00  0.2400E-01  0.2400E-01
    -35.826  0.0000E+00  0.0000E+00  0.2400E-01  0.2400E-01
    -35.632  0.0000E+00  0.0000E+00  0.2400E-01  0.2400E-01
    -35.439  0.0000E+00  0.0000E+00  0.2400E-01  0.2400E-01
    -35.246  0.0000E+00  0.0000E+00  0.2400E-01  0.2400E-01
    -35.052  0.0000E+00  0.0000E+00  0.2400E-01  0.2400E-01
    -34.859  0.0000E+00  0.0000E+00  0.2400E-01  0.2400E-01
    -34.666  0.0000E+00  0.0000E+00  0.2400E-01  0.2400E-01
    -34.472  0.0000E+00  0.0000E+00  0.2400E-01  0.2400E-01
    -34.279  0.0000E+00  0.0000E+00  0.2400E-01  0.2400E-01
    -34.086  0.0000E+00  0.0000E+00  0.2400E-01  0.2400E-01
    -33.892  0.0000E+00  0.0000E+00  0.2400E-01  0.2400E-01
    -33.699  0.0000E+00  0.0000E+00  0.2400E-01  0.2400E-01
    -33.505  0.0000E+00  0.0000E+00  0.2400E-01  0.2400E-01
    -33.312  0.0000E+00  0.0000E+00  0.2400E-01  0.2400E-01
    -33.119  0.0000E+00  0.0000E+00  0.2400E-01  0.2400E-01
    -32.925  0.0000E+00  0.0000E+00  0.2400E-01  0.2400E-01
    -32.732  0.0000E+00  0.0000E+00  0.2400E-01  0.2400E-01
    -32.539  0.0000E+00  0.0000E+00  0.2400E-01  0.2400E-01
    -32.345  0.0000E+00  0.0000E+00  0.2400E-01  0.2400E-01
    -32.152  0.0000E+00  0.0000E+00  0.2400E-01  0.2400E-01
    -31.959  0.0000E+00  0.0000E+00  0.2400E-01  0.2400E-01
    -31.765  0.0000E+00  0.0000E+00  0.2400E-01  0.2400E-01
    -31.572  0.0000E+00  0.0000E+00  0.2400E-01  0.2400E-01
    -31.379  0.0000E+00  0.0000E+00  0.2400E-01  0.2400E-01
    -31.185  0.0000E+00  0.0000E+00  0.2400E-01  0.2400E-01
    -30.992  0.0000E+00  0.0000E+00  0.2400E-01  0.2400E-01
    -30.798  0.0000E+00  0.0000E+00  0.2400E-01  0.2400E-01
    -30.605  0.0000E+00  0.0000E+00  0.2400E-01  0.2400E-01
    -30.412  0.0000E+00  0.0000E+00  0.2400E-01  0.2400E-01
    -30.218  0.0000E+00  0.0000E+00  0.2400E-01  0.2400E-01
    -30.025  0.0000E+00  0.0000E+00  0.2400E-01  0.2400E-01
    -29.832  0.0000E+00  0.0000E+00  0.2400E-01  0.2400E-01
    -29.638  0.0000E+00  0.0000E+00  0.2400E-01  0.2400E-01
    -29.445  0.0000E+00  0.0000E+00  0.2400E-01  0.2400E-01
    -29.252  0.0000E+00  0.0000E+00  0.2400E-01  0.2400E-01
    -29.058  0.0000E+00  0.0000E+00  0.2400E-01  0.2400E-01
    -28.865  0.0000E+00  0.0000E+00  0.2400E-01  0.2400E-01
    -28.672  0.0000E+00  0.0000E+00  0.2400E-01  0.2400E-01
    -28.478  0.0000E+00  0.0000E+00  0.2400E-01  0.2400E-01
    -28.285  0.0000E+00  0.0000E+00  0.2400E-01  0.2400E-01
    -28.091  0.0000E+00  0.0000E+00  0.2400E-01  0.2400E-01
    -27.898  0.0000E+00  0.0000E+00  0.2400E-01  0.2400E-01
    -27.705  0.0000E+00  0.0000E+00  0.2400E-01  0.2400E-01
    -27.511  0.0000E+00  0.0000E+00  0.2400E-01  0.2400E-01
    -27.318  0.0000E+00  0.0000E+00  0.2400E-01  0.2400E-01
    -27.125  0.0000E+00  0.0000E+00  0.2400E-01  0.2400E-01
    -26.931  0.0000E+00  0.0000E+00  0.2400E-01  0.2400E-01
    -26.738  0.0000E+00  0.0000E+00  0.2400E-01  0.2400E-01
    -26.545  0.0000E+00  0.0000E+00  0.2400E-01  0.2400E-01
    -26.351  0.0000E+00  0.0000E+00  0.2400E-01  0.2400E-01
    -26.158  0.0000E+00  0.0000E+00  0.2400E-01  0.2400E-01
    -25.965  0.0000E+00  0.0000E+00  0.2400E-01  0.2400E-01
    -25.771  0.0000E+00  0.0000E+00  0.2400E-01  0.2400E-01
    -25.578  0.0000E+00  0.0000E+00  0.2400E-01  0.2400E-01
    -25.385  0.0000E+00  0.0000E+00  0.2400E-01  0.2400E-01
    -25.191  0.0000E+00  0.0000E+00  0.2400E-01  0.2400E-01
    -24.998  0.0000E+00  0.0000E+00  0.2400E-01  0.2400E-01
    -24.804  0.0000E+00  0.0000E+00  0.2400E-01  0.2400E-01
    -24.611  0.0000E+00  0.0000E+00  0.2400E-01  0.2400E-01
    -24.418  0.0000E+00  0.0000E+00  0.2400E-01  0.2400E-01
    -24.224  0.0000E+00  0.0000E+00  0.2400E-01  0.2400E-01
    -24.031  0.0000E+00  0.0000E+00  0.2400E-01  0.2400E-01
    -23.838  0.0000E+00  0.0000E+00  0.2400E-01  0.2400E-01
    -23.644  0.0000E+00  0.0000E+00  0.2400E-01  0.2400E-01
    -23.451  0.0000E+00  0.0000E+00  0.2400E-01  0.2400E-01
    -23.258  0.0000E+00  0.0000E+00  0.2400E-01  0.2400E-01
    -23.064  0.0000E+00  0.0000E+00  0.2400E-01  0.2400E-01
    -22.871  0.0000E+00  0.0000E+00  0.2400E-01  0.2400E-01
    -22.678  0.0000E+00  0.0000E+00  0.2400E-01  0.2400E-01
    -22.484  0.0000E+00  0.0000E+00  0.2400E-01  0.2400E-01
    -22.291  0.0000E+00  0.0000E+00  0.2400E-01  0.2400E-01
    -22.097  0.0000E+00  0.0000E+00  0.2400E-01  0.2400E-01
    -21.904  0.0000E+00  0.0000E+00  0.2400E-01  0.2400E-01
    -21.711  0.0000E+00  0.0000E+00  0.2400E-01  0.2400E-01
    -21.517  0.0000E+00  0.0000E+00  0.2400E-01  0.2400E-01
    -21.324  0.0000E+00  0.0000E+00  0.2400E-01  0.2400E-01
    -21.131  0.0000E+00  0.0000E+00  0.2400E-01  0.2400E-01
    -20.937  0.0000E+00  0.0000E+00  0.2400E-01  0.2400E-01
    -20.744  0.0000E+00  0.0000E+00  0.2400E-01  0.2400E-01
    -20.551  0.0000E+00  0.0000E+00  0.2400E-01  0.2400E-01
    -20.357  0.0000E+00  0.0000E+00  0.2400E-01  0.2400E-01
    -20.164  0.0000E+00  0.0000E+00  0.2400E-01  0.2400E-01
    -19.971  0.0000E+00  0.0000E+00  0.2400E-01  0.2400E-01
    -19.777  0.0000E+00  0.0000E+00  0.2400E-01  0.2400E-01
    -19.584  0.0000E+00  0.0000E+00  0.2400E-01  0.2400E-01
    -19.390  0.0000E+00  0.0000E+00  0.2400E-01  0.2400E-01
    -19.197  0.0000E+00  0.0000E+00  0.2400E-01  0.2400E-01
    -19.004  0.0000E+00  0.0000E+00  0.2400E-01  0.2400E-01
    -18.810  0.0000E+00  0.0000E+00  0.2400E-01  0.2400E-01
    -18.617  0.0000E+00  0.0000E+00  0.2400E-01  0.2400E-01
    -18.424  0.0000E+00  0.0000E+00  0.2400E-01  0.2400E-01
    -18.230  0.0000E+00  0.0000E+00  0.2400E-01  0.2400E-01
    -18.037  0.0000E+00  0.0000E+00  0.2400E-01  0.2400E-01
    -17.844  0.0000E+00  0.0000E+00  0.2400E-01  0.2400E-01
    -17.650  0.0000E+00  0.0000E+00  0.2400E-01  0.2400E-01
    -17.457  0.0000E+00  0.0000E+00  0.2400E-01  0.2400E-01
    -17.264  0.0000E+00  0.0000E+00  0.2400E-01  0.2400E-01
    -17.070  0.0000E+00  0.0000E+00  0.2400E-01  0.2400E-01
    -16.877  0.0000E+00  0.0000E+00  0.2400E-01  0.2400E-01
    -16.683  0.0000E+00  0.0000E+00  0.2400E-01  0.2400E-01
    -16.490  0.0000E+00  0.0000E+00  0.2400E-01  0.2400E-01
    -16.297  0.0000E+00  0.0000E+00  0.2400E-01  0.2400E-01
    -16.103  0.0000E+00  0.0000E+00  0.2400E-01  0.2400E-01
    -15.910  0.0000E+00  0.0000E+00  0.2400E-01  0.2400E-01
    -15.717  0.0000E+00  0.0000E+00  0.2400E-01  0.2400E-01
    -15.523  0.0000E+00  0.0000E+00  0.2400E-01  0.2400E-01
    -15.330  0.0000E+00  0.0000E+00  0.2400E-01  0.2400E-01
    -15.137  0.0000E+00  0.0000E+00  0.2400E-01  0.2400E-01
    -14.943  0.0000E+00  0.0000E+00  0.2400E-01  0.2400E-01
    -14.750  0.0000E+00  0.0000E+00  0.2400E-01  0.2400E-01
    -14.557  0.0000E+00  0.0000E+00  0.2400E-01  0.2400E-01
    -14.363  0.0000E+00  0.0000E+00  0.2400E-01  0.2400E-01
    -14.170  0.0000E+00  0.0000E+00  0.2400E-01  0.2400E-01
    -13.976  0.0000E+00  0.0000E+00  0.2400E-01  0.2400E-01
    -13.783  0.0000E+00  0.0000E+00  0.2400E-01  0.2400E-01
    -13.590  0.0000E+00  0.0000E+00  0.2400E-01  0.2400E-01
    -13.396  0.1366E-15  0.1366E-15  0.2400E-01  0.2400E-01
    -13.203  0.4883E-02  0.4883E-02  0.2494E-01  0.2494E-01
    -13.010  0.3192E-02  0.3192E-02  0.2556E-01  0.2556E-01
    -12.816  0.1261E-01  0.1261E-01  0.2800E-01  0.2800E-01
    -12.623  0.1013E-01  0.1013E-01  0.2996E-01  0.2996E-01
    -12.430  0.1053E-01  0.1053E-01  0.3199E-01  0.3199E-01
    -12.236  0.0000E+00  0.0000E+00  0.3200E-01  0.3200E-01
    -12.043  0.0000E+00  0.0000E+00  0.3200E-01  0.3200E-01
    -11.850  0.0000E+00  0.0000E+00  0.3200E-01  0.3200E-01
    -11.656  0.0000E+00  0.0000E+00  0.3200E-01  0.3200E-01
    -11.463  0.0000E+00  0.0000E+00  0.3200E-01  0.3200E-01
    -11.269  0.0000E+00  0.0000E+00  0.3200E-01  0.3200E-01
    -11.076  0.0000E+00  0.0000E+00  0.3200E-01  0.3200E-01
    -10.883  0.0000E+00  0.0000E+00  0.3200E-01  0.3200E-01
    -10.689  0.0000E+00  0.0000E+00  0.3200E-01  0.3200E-01
    -10.496  0.4150E-09  0.4150E-09  0.3200E-01  0.3200E-01
    -10.303  0.1530E-01  0.1530E-01  0.3496E-01  0.3496E-01
    -10.109  0.8948E-02  0.8948E-02  0.3669E-01  0.3669E-01
     -9.916  0.2728E-01  0.2728E-01  0.4197E-01  0.4197E-01
     -9.723  0.1047E-01  0.1047E-01  0.4400E-01  0.4400E-01
     -9.529  0.0000E+00  0.0000E+00  0.4400E-01  0.4400E-01
     -9.336  0.0000E+00  0.0000E+00  0.4400E-01  0.4400E-01
     -9.143  0.0000E+00  0.0000E+00  0.4400E-01  0.4400E-01
     -8.949  0.0000E+00  0.0000E+00  0.4400E-01  0.4400E-01
     -8.756  0.0000E+00  0.0000E+00  0.4400E-01  0.4400E-01
     -8.562  0.8443E-08  0.8443E-08  0.4400E-01  0.4400E-01
     -8.369  0.1551E-01  0.1551E-01  0.4700E-01  0.4700E-01
     -8.176  0.5172E-02  0.5172E-02  0.4800E-01  0.4800E-01
     -7.982  0.0000E+00  0.0000E+00  0.4800E-01  0.4800E-01
     -7.789  0.0000E+00  0.0000E+00  0.4800E-01  0.4800E-01
     -7.596  0.0000E+00  0.0000E+00  0.4800E-01  0.4800E-01
     -7.402  0.0000E+00  0.0000E+00  0.4800E-01  0.4800E-01
     -7.209  0.0000E+00  0.0000E+00  0.4800E-01  0.4800E-01
     -7.016  0.0000E+00  0.0000E+00  0.4800E-01  0.4800E-01
     -6.822  0.0000E+00  0.0000E+00  0.4800E-01  0.4800E-01
     -6.629  0.0000E+00  0.0000E+00  0.4800E-01  0.4800E-01
     -6.436  0.0000E+00  0.0000E+00  0.4800E-01  0.4800E-01
     -6.242  0.1209E-04  0.1209E-04  0.4800E-01  0.4800E-01
     -6.049  0.5160E-02  0.5160E-02  0.4900E-01  0.4900E-01
     -5.855  0.3846E-03  0.3846E-03  0.4907E-01  0.4907E-01
     -5.662  0.5261E-02  0.5261E-02  0.5009E-01  0.5009E-01
     -5.469  0.9869E-02  0.9869E-02  0.5200E-01  0.5200E-01
     -5.275  0.0000E+00  0.0000E+00  0.5200E-01  0.5200E-01
     -5.082  0.0000E+00  0.0000E+00  0.5200E-01  0.5200E-01
     -4.889  0.0000E+00  0.0000E+00  0.5200E-01  0.5200E-01
     -4.695  0.0000E+00  0.0000E+00  0.5200E-01  0.5200E-01
     -4.502  0.0000E+00  0.0000E+00  0.5200E-01  0.5200E-01
     -4.309  0.0000E+00  0.0000E+00  0.5200E-01  0.5200E-01
     -4.115  0.0000E+00  0.0000E+00  0.5200E-01  0.5200E-01
     -3.922  0.0000E+00  0.0000E+00  0.5200E-01  0.5200E-01
     -3.729  0.0000E+00  0.0000E+00  0.5200E-01  0.5200E-01
     -3.535  0.0000E+00  0.0000E+00  0.5200E-01  0.5200E-01
     -3.342  0.2887E-04  0.2887E-04  0.5201E-01  0.5201E-01
     -3.148  0.1548E-01  0.1548E-01  0.5500E-01  0.5500E-01
     -2.955  0.2420E-03  0.2420E-03  0.5505E-01  0.5505E-01
     -2.762  0.7977E-02  0.7977E-02  0.5659E-01  0.5659E-01
     -2.568  0.1134E-01  0.1134E-01  0.5878E-01  0.5878E-01
     -2.375  0.1658E-01  0.1658E-01  0.6199E-01  0.6199E-01
     -2.182  0.1038E-01  0.1038E-01  0.6400E-01  0.6400E-01
     -1.988  0.0000E+00  0.0000E+00  0.6400E-01  0.6400E-01
     -1.795  0.4143E-12  0.4143E-12  0.6400E-01  0.6400E-01
     -1.602  0.5141E-02  0.5141E-02  0.6499E-01  0.6499E-01
     -1.408  0.1176E-01  0.1176E-01  0.6727E-01  0.6727E-01
     -1.215  0.2663E-01  0.2663E-01  0.7242E-01  0.7242E-01
     -1.022  0.1322E-01  0.1322E-01  0.7498E-01  0.7498E-01
     -0.828  0.5268E-02  0.5268E-02  0.7600E-01  0.7600E-01
     -0.635  0.4651E-02  0.4651E-02  0.7690E-01  0.7690E-01
     -0.442  0.1086E-01  0.1086E-01  0.7900E-01  0.7900E-01
     -0.248  0.1411E-01  0.1411E-01  0.8173E-01  0.8173E-01
     -0.055  0.1988E-01  0.1988E-01  0.8557E-01  0.8557E-01
      0.139  0.2506E-01  0.2506E-01  0.9042E-01  0.9042E-01
      0.332  0.2051E-01  0.2051E-01  0.9439E-01  0.9439E-01
      0.525  0.8291E-02  0.8291E-02  0.9600E-01  0.9600E-01
      0.719  0.6530E-02  0.6530E-02  0.9726E-01  0.9726E-01
      0.912  0.1997E-01  0.1997E-01  0.1011E+00  0.1011E+00
      1.105  0.2328E-01  0.2328E-01  0.1056E+00  0.1056E+00
      1.299  0.2537E-01  0.2537E-01  0.1105E+00  0.1105E+00
      1.492  0.2862E-01  0.2862E-01  0.1161E+00  0.1161E+00
      1.685  0.1264E-01  0.1264E-01  0.1185E+00  0.1185E+00
      1.879  0.7687E-02  0.7687E-02  0.1200E+00  0.1200E+00
      2.072  0.0000E+00  0.0000E+00  0.1200E+00  0.1200E+00
      2.265  0.0000E+00  0.0000E+00  0.1200E+00  0.1200E+00
      2.459  0.0000E+00  0.0000E+00  0.1200E+00  0.1200E+00
      2.652  0.0000E+00  0.0000E+00  0.1200E+00  0.1200E+00
      2.846  0.0000E+00  0.0000E+00  0.1200E+00  0.1200E+00
      3.039  0.0000E+00  0.0000E+00  0.1200E+00  0.1200E+00
      3.232  0.0000E+00  0.0000E+00  0.1200E+00  0.1200E+00
      3.426  0.0000E+00  0.0000E+00  0.1200E+00  0.1200E+00
      3.619  0.0000E+00  0.0000E+00  0.1200E+00  0.1200E+00
      3.812  0.0000E+00  0.0000E+00  0.1200E+00  0.1200E+00
      4.006  0.0000E+00  0.0000E+00  0.1200E+00  0.1200E+00
      4.199  0.4830E-16  0.4830E-16  0.1200E+00  0.1200E+00
      4.392  0.3929E-02  0.3929E-02  0.1208E+00  0.1208E+00
      4.586  0.1242E-02  0.1242E-02  0.1210E+00  0.1210E+00
      4.779  0.0000E+00  0.0000E+00  0.1210E+00  0.1210E+00
      4.972  0.1314E-15  0.1314E-15  0.1210E+00  0.1210E+00
      5.166  0.3743E-02  0.3743E-02  0.1217E+00  0.1217E+00
      5.359  0.1023E-01  0.1023E-01  0.1237E+00  0.1237E+00
      5.553  0.1541E-02  0.1541E-02  0.1240E+00  0.1240E+00
      5.746  0.2519E-04  0.2519E-04  0.1240E+00  0.1240E+00
      5.939  0.8724E-02  0.8724E-02  0.1257E+00  0.1257E+00
      6.133  0.1720E-01  0.1720E-01  0.1290E+00  0.1290E+00
      6.326  0.5080E-02  0.5080E-02  0.1300E+00  0.1300E+00
      6.519  0.7970E-02  0.7970E-02  0.1315E+00  0.1315E+00
      6.713  0.7821E-02  0.7821E-02  0.1331E+00  0.1331E+00
      6.906  0.1451E-01  0.1451E-01  0.1359E+00  0.1359E+00
      7.099  0.5869E-02  0.5869E-02  0.1370E+00  0.1370E+00
      7.293  0.2594E-02  0.2594E-02  0.1375E+00  0.1375E+00
      7.486  0.1096E-01  0.1096E-01  0.1396E+00  0.1396E+00
      7.679  0.1058E-01  0.1058E-01  0.1417E+00  0.1417E+00
      7.873  0.1263E-01  0.1263E-01  0.1441E+00  0.1441E+00
      8.066  0.1228E-01  0.1228E-01  0.1465E+00  0.1465E+00
      8.260  0.1580E-01  0.1580E-01  0.1495E+00  0.1495E+00
      8.453  0.1730E-01  0.1730E-01  0.1529E+00  0.1529E+00
      8.646  0.1376E-01  0.1376E-01  0.1555E+00  0.1555E+00
      8.840  0.1404E-01  0.1404E-01  0.1583E+00  0.1583E+00
      9.033  0.1688E-01  0.1688E-01  0.1615E+00  0.1615E+00
      9.226  0.2079E-01  0.2079E-01  0.1656E+00  0.1656E+00
      9.420  0.1643E-01  0.1643E-01  0.1687E+00  0.1687E+00
      9.613  0.1922E-01  0.1923E-01  0.1724E+00  0.1724E+00
      9.806  0.1337E-01  0.1438E-01  0.1750E+00  0.1752E+00
     10.000  0.5016E-02  0.3977E-02  0.1760E+00  0.1760E+00
     10.193  0.0000E+00  0.0000E+00  0.1760E+00  0.1760E+00
     10.386  0.0000E+00  0.0000E+00  0.1760E+00  0.1760E+00
     10.580  0.0000E+00  0.0000E+00  0.1760E+00  0.1760E+00
     10.773  0.0000E+00  0.0000E+00  0.1760E+00  0.1760E+00
     10.967  0.0000E+00  0.0000E+00  0.1760E+00  0.1760E+00
     11.160  0.0000E+00  0.0000E+00  0.1760E+00  0.1760E+00
     11.353  0.0000E+00  0.0000E+00  0.1760E+00  0.1760E+00
     11.547  0.0000E+00  0.0000E+00  0.1760E+00  0.1760E+00
     11.740  0.0000E+00  0.0000E+00  0.1760E+00  0.1760E+00
     11.933  0.0000E+00  0.0000E+00  0.1760E+00  0.1760E+00
     12.127  0.0000E+00  0.0000E+00  0.1760E+00  0.1760E+00
     12.320  0.0000E+00  0.0000E+00  0.1760E+00  0.1760E+00
     12.513  0.0000E+00  0.0000E+00  0.1760E+00  0.1760E+00
