 vasp.6.4.1 05Apr23 (build Jun 07 2023 15:38:11) complex                        
  
 executed on             LinuxIFC date 2023.10.16  22:19:37
 running  128 mpi-ranks, with    1 threads/rank, on    1 nodes
 distrk:  each k-point on  128 cores,    1 groups
 distr:  one band on NCORE=  32 cores,    4 groups


--------------------------------------------------------------------------------------------------------


 INCAR:
   GGA = PE
   PREC = Accu
   EDIFF = 1.e-6
   EDIFFG = -1.e-3
   ENCUT = 520.
   NELM = 100
   NELMDL = -10
   LASPH = .TRUE.
   LREAL = Auto
   LMAXMIX = 4
   ISPIN = 2
   LDIAG = .TRUE.
   LPLANE = .TRUE.
   IVDW = 12
   SIGMA = 0.03
   ISMEAR = 0
   NSW = 1000    number of steps for IOM
   IBRION = 2    ionic relax: 0-MD 1-quasi-New 2-CG
   ISIF = 2    ionic relaxation + stress tensor calcn.
   LCHARG = .FALSE.
   LWAVE = .FALSE.
   ALGO = F
   KPAR = 1
   NPAR = 4
   POTIM = 0.2

 POTCAR:    PAW_PBE Li_sv_GW 25Mar2010            
 POTCAR:    PAW_PBE P_GW 19Mar2012                
 POTCAR:    PAW_PBE S_GW 19Mar2012                
 POTCAR:    PAW_PBE Cl_GW 19Mar2012               
 -----------------------------------------------------------------------------
|                                                                             |
|           W    W    AA    RRRRR   N    N  II  N    N   GGGG   !!!           |
|           W    W   A  A   R    R  NN   N  II  NN   N  G    G  !!!           |
|           W    W  A    A  R    R  N N  N  II  N N  N  G       !!!           |
|           W WW W  AAAAAA  RRRRR   N  N N  II  N  N N  G  GGG   !            |
|           WW  WW  A    A  R   R   N   NN  II  N   NN  G    G                |
|           W    W  A    A  R    R  N    N  II  N    N   GGGG   !!!           |
|                                                                             |
|     You use a magnetic or noncollinear calculation, but did not specify     |
|     the initial magnetic moment with the MAGMOM tag. Note that a            |
|     default of 1 will be used for all atoms. This ferromagnetic setup       |
|     may break the symmetry of the crystal, in particular it may rule        |
|     out finding an antiferromagnetic solution. Thence, we recommend         |
|     setting the initial magnetic moment manually or verifying carefully     |
|     that this magnetic setup is desired.                                    |
|                                                                             |
 -----------------------------------------------------------------------------

 POTCAR:    PAW_PBE Li_sv_GW 25Mar2010            
   SHA256 =  24a6ace15a582615486b36ce4dc781b048409f4015b7684ed1273ae395fa2fdc Li_sv_GW/POTCAR       
   COPYR  = (c) Copyright 25Mar2010 Georg Kresse                                                    
   COPYR  = This file is part of the software VASP. Any use, copying, and all other rights are regul
   COPYR  = If you do not have a valid VASP license, you may not use, copy or distribute this file. 
   VRHFIN =Li: 1s2s                                                                                 
   LEXCH  = PE                                                                                      
   EATOM  =   200.9989 eV,   14.7730 Ry                                                             
                                                                                                    
   TITEL  = PAW_PBE Li_sv_GW 25Mar2010                                                              
   LULTRA =        F    use ultrasoft PP ?                                                          
   IUNSCR =        0    unscreen: 0-lin 1-nonlin 2-no                                               
   RPACOR =    0.000    partial core radius                                                         
   POMASS =    7.010; ZVAL   =    3.000    mass and valenz                                          
   RCORE  =    1.500    outmost cutoff radius                                                       
   RWIGS  =    1.600; RWIGS  =    0.847    wigner-seitz radius (au A)                               
   ENMAX  =  433.699; ENMIN  =  325.274 eV                                                          
   RCLOC  =    1.003    cutoff for local pot                                                        
   LCOR   =        T    correct aug charges                                                         
   LPAW   =        T    paw PP                                                                      
   EAUG   = 1041.699                                                                                
   RMAX   =    1.536    core radius for proj-oper                                                   
   RAUG   =    1.300    factor for augmentation sphere                                              
   RDEP   =    1.520    radius for radial grids                                                     
   RDEPT  =    1.300    core radius for aug-charge                                                  
                                                                                                    
   Atomic configuration                                                                             
    4 entries                                                                                       
     n  l   j            E        occ.                                                              
     1  0  0.50       -53.3604   2.0000                                                             
     1  0  0.50       -52.0001   0.0000                                                             
     2  1  0.50        -1.5636   1.0000                                                             
     3  2  1.50        -1.3606   0.0000                                                             
   Description                                                                                      
     l       E           TYP  RCUT    TYP  RCUT                                                     
     0    -53.3603633     23  1.200                                                                 
     0    -52.0001064     23  1.200                                                                 
     0    176.8757380     23  1.300                                                                 
     1     -1.5635925     23  1.500                                                                 
     1    108.8466080     23  1.500                                                                 
     2     81.6349560     23  1.500                                                                 
  local pseudopotential read in
  kinetic energy density of atom read in
  atomic valenz-charges read in
  non local Contribution for L=           0  read in
    real space projection operators read in
  non local Contribution for L=           0  read in
    real space projection operators read in
  non local Contribution for L=           0  read in
    real space projection operators read in
  non local Contribution for L=           1  read in
    real space projection operators read in
  non local Contribution for L=           1  read in
    real space projection operators read in
  non local Contribution for L=           2  read in
    real space projection operators read in
    PAW grid and wavefunctions read in
 
   number of l-projection  operators is LMAX  =           6
   number of lm-projection operators is LMMAX =          14
 
 POTCAR:    PAW_PBE P_GW 19Mar2012                
   SHA256 =  715c28f2291d37b61637ce89646c59f66f71c8b8d8bfba631e5feb9f7b42defe P_GW/POTCAR           
   COPYR  = (c) Copyright 19Mar2012 Georg Kresse                                                    
   COPYR  = This file is part of the software VASP. Any use, copying, and all other rights are regul
   COPYR  = If you do not have a valid VASP license, you may not use, copy or distribute this file. 
   VRHFIN =P : s2p3                                                                                 
   LEXCH  = PE                                                                                      
   EATOM  =   176.0430 eV,   12.9388 Ry                                                             
                                                                                                    
   TITEL  = PAW_PBE P_GW 19Mar2012                                                                  
   LULTRA =        F    use ultrasoft PP ?                                                          
   IUNSCR =        1    unscreen: 0-lin 1-nonlin 2-no                                               
   RPACOR =    1.400    partial core radius                                                         
   POMASS =   30.974; ZVAL   =    5.000    mass and valenz                                          
   RCORE  =    2.000    outmost cutoff radius                                                       
   RWIGS  =    1.900; RWIGS  =    1.005    wigner-seitz radius (au A)                               
   ENMAX  =  255.040; ENMIN  =  191.280 eV                                                          
   ICORE  =        3    local potential                                                             
   LCOR   =        T    correct aug charges                                                         
   LPAW   =        T    paw PP                                                                      
   EAUG   =  499.732                                                                                
   DEXC   =    0.000                                                                                
   RMAX   =    2.047    core radius for proj-oper                                                   
   RAUG   =    1.300    factor for augmentation sphere                                              
   RDEP   =    2.059    radius for radial grids                                                     
   RDEPT  =    1.900    core radius for aug-charge                                                  
                                                                                                    
   Atomic configuration                                                                             
    7 entries                                                                                       
     n  l   j            E        occ.                                                              
     1  0  0.50     -2084.0982   2.0000                                                             
     2  0  0.50      -173.9859   2.0000                                                             
     2  1  1.50      -124.4865   6.0000                                                             
     3  0  0.50       -13.9692   2.0000                                                             
     3  1  0.50        -5.5067   3.0000                                                             
     3  2  1.50        -6.8029   0.0000                                                             
     4  3  2.50        -1.3606   0.0000                                                             
   Description                                                                                      
     l       E           TYP  RCUT    TYP  RCUT                                                     
     0    -13.9691528     23  1.900                                                                 
     0    102.0436950     23  1.900                                                                 
     1     -5.5066939     23  1.900                                                                 
     1    102.0436950     23  1.900                                                                 
     2     -8.1634956     23  2.000                                                                 
     2     81.6349560     23  2.000                                                                 
     3     27.2116520     23  2.000                                                                 
  local pseudopotential read in
  partial core-charges read in
  partial kinetic energy density read in
  kinetic energy density of atom read in
  atomic valenz-charges read in
  non local Contribution for L=           0  read in
    real space projection operators read in
  non local Contribution for L=           0  read in
    real space projection operators read in
  non local Contribution for L=           1  read in
    real space projection operators read in
  non local Contribution for L=           1  read in
    real space projection operators read in
  non local Contribution for L=           2  read in
    real space projection operators read in
  non local Contribution for L=           2  read in
    real space projection operators read in
    PAW grid and wavefunctions read in
 
   number of l-projection  operators is LMAX  =           6
   number of lm-projection operators is LMMAX =          18
 
 POTCAR:    PAW_PBE S_GW 19Mar2012                
   SHA256 =  357db9cfb0783579b2eebe03197c2d807131fea8ea663b1fcfb6ce2fa75af011 S_GW/POTCAR           
   COPYR  = (c) Copyright 19Mar2012 Georg Kresse                                                    
   COPYR  = This file is part of the software VASP. Any use, copying, and all other rights are regul
   COPYR  = If you do not have a valid VASP license, you may not use, copy or distribute this file. 
   VRHFIN =S : s2p4                                                                                 
   LEXCH  = PE                                                                                      
   EATOM  =   276.8230 eV,   20.3459 Ry                                                             
                                                                                                    
   TITEL  = PAW_PBE S_GW 19Mar2012                                                                  
   LULTRA =        F    use ultrasoft PP ?                                                          
   IUNSCR =        1    unscreen: 0-lin 1-nonlin 2-no                                               
   RPACOR =    1.400    partial core radius                                                         
   POMASS =   32.066; ZVAL   =    6.000    mass and valenz                                          
   RCORE  =    1.900    outmost cutoff radius                                                       
   RWIGS  =    1.900; RWIGS  =    1.005    wigner-seitz radius (au A)                               
   ENMAX  =  258.689; ENMIN  =  194.016 eV                                                          
   ICORE  =        3    local potential                                                             
   LCOR   =        T    correct aug charges                                                         
   LPAW   =        T    paw PP                                                                      
   EAUG   =  488.319                                                                                
   DEXC   =    0.000                                                                                
   RMAX   =    1.942    core radius for proj-oper                                                   
   RAUG   =    1.300    factor for augmentation sphere                                              
   RDEP   =    1.954    radius for radial grids                                                     
   RDEPT  =    1.900    core radius for aug-charge                                                  
                                                                                                    
   Atomic configuration                                                                             
    7 entries                                                                                       
     n  l   j            E        occ.                                                              
     1  0  0.50     -2405.8406   2.0000                                                             
     2  0  0.50      -211.7007   2.0000                                                             
     2  1  1.50      -156.4958   6.0000                                                             
     3  0  0.50       -17.2562   2.0000                                                             
     3  1  0.50        -7.0085   4.0000                                                             
     3  2  1.50        -8.1635   0.0000                                                             
     4  3  2.50        -1.3606   0.0000                                                             
   Description                                                                                      
     l       E           TYP  RCUT    TYP  RCUT                                                     
     0    -17.2561639     23  1.700                                                                 
     0     88.4378690     23  1.900                                                                 
     1     -7.0085399     23  1.900                                                                 
     1     88.4378690     23  1.900                                                                 
     2    -10.8846608     23  1.900                                                                 
     2     54.4233040     23  1.900                                                                 
     3     27.2116520     23  1.800                                                                 
  local pseudopotential read in
  partial core-charges read in
  partial kinetic energy density read in
  kinetic energy density of atom read in
  atomic valenz-charges read in
  non local Contribution for L=           0  read in
    real space projection operators read in
  non local Contribution for L=           0  read in
    real space projection operators read in
  non local Contribution for L=           1  read in
    real space projection operators read in
  non local Contribution for L=           1  read in
    real space projection operators read in
  non local Contribution for L=           2  read in
    real space projection operators read in
  non local Contribution for L=           2  read in
    real space projection operators read in
    PAW grid and wavefunctions read in
 
   number of l-projection  operators is LMAX  =           6
   number of lm-projection operators is LMMAX =          18
 
 POTCAR:    PAW_PBE Cl_GW 19Mar2012               
   SHA256 =  3ef3b3169d6a9a89979f58b4cf17d927a58518fc660d8883d88cacaee8175441 Cl_GW/POTCAR          
   COPYR  = (c) Copyright 19Mar2012 Georg Kresse                                                    
   COPYR  = This file is part of the software VASP. Any use, copying, and all other rights are regul
   COPYR  = If you do not have a valid VASP license, you may not use, copy or distribute this file. 
   VRHFIN =Cl: s2p5                                                                                 
   LEXCH  = PE                                                                                      
   EATOM  =   409.7259 eV,   30.1140 Ry                                                             
                                                                                                    
   TITEL  = PAW_PBE Cl_GW 19Mar2012                                                                 
   LULTRA =        F    use ultrasoft PP ?                                                          
   IUNSCR =        1    unscreen: 0-lin 1-nonlin 2-no                                               
   RPACOR =    1.400    partial core radius                                                         
   POMASS =   35.453; ZVAL   =    7.000    mass and valenz                                          
   RCORE  =    1.900    outmost cutoff radius                                                       
   RWIGS  =    1.900; RWIGS  =    1.005    wigner-seitz radius (au A)                               
   ENMAX  =  262.472; ENMIN  =  196.854 eV                                                          
   ICORE  =        3    local potential                                                             
   LCOR   =        T    correct aug charges                                                         
   LPAW   =        T    paw PP                                                                      
   EAUG   =  456.703                                                                                
   DEXC   =    0.000                                                                                
   RMAX   =    1.945    core radius for proj-oper                                                   
   RAUG   =    1.300    factor for augmentation sphere                                              
   RDEP   =    2.020    radius for radial grids                                                     
   RDEPT  =    1.900    core radius for aug-charge                                                  
                                                                                                    
   Atomic configuration                                                                             
    7 entries                                                                                       
     n  l   j            E        occ.                                                              
     1  0  0.50     -2751.1850   2.0000                                                             
     2  0  0.50      -252.6861   2.0000                                                             
     2  1  1.50      -191.6157   6.0000                                                             
     3  0  0.50       -20.6916   2.0000                                                             
     3  1  0.50        -8.5949   5.0000                                                             
     3  2  1.50        -9.5241   0.0000                                                             
     4  3  2.50        -9.5241   0.0000                                                             
   Description                                                                                      
     l       E           TYP  RCUT    TYP  RCUT                                                     
     0    -20.6915657     23  1.700                                                                 
     0     95.2407820     23  1.800                                                                 
     1     -8.5948577     23  1.900                                                                 
     1     95.2407820     23  1.900                                                                 
     2    -10.8846608     23  1.900                                                                 
     2     54.4233040     23  1.900                                                                 
     3     27.2116520     23  1.900                                                                 
  local pseudopotential read in
  partial core-charges read in
  partial kinetic energy density read in
  kinetic energy density of atom read in
  atomic valenz-charges read in
  non local Contribution for L=           0  read in
    real space projection operators read in
  non local Contribution for L=           0  read in
    real space projection operators read in
  non local Contribution for L=           1  read in
    real space projection operators read in
  non local Contribution for L=           1  read in
    real space projection operators read in
  non local Contribution for L=           2  read in
    real space projection operators read in
  non local Contribution for L=           2  read in
    real space projection operators read in
    PAW grid and wavefunctions read in
 
   number of l-projection  operators is LMAX  =           6
   number of lm-projection operators is LMMAX =          18
 
 Optimization of the real space projectors (new method)

 maximal supplied QI-value         = 25.13
 optimisation between [QCUT,QGAM] = [ 11.56, 23.12] = [ 37.43,149.72] Ry 
 Optimized for a Real-space Cutoff    1.28 Angstroem

   l    n(q)    QCUT    max X(q) W(low)/X(q) W(high)/X(q)  e(spline) 
   0      9    11.561    87.733    0.11E-03    0.32E-04    0.56E-06
   0      9    11.561    82.800    0.11E-03    0.35E-04    0.56E-06
   0      9    11.561     2.509    0.22E-03    0.42E-04    0.79E-06
   1      8    11.561    12.580    0.94E-04    0.26E-03    0.21E-06
   1      8    11.561     1.319    0.33E-04    0.15E-03    0.19E-06
   2      8    11.561     1.993    0.36E-04    0.89E-04    0.26E-06
 Optimization of the real space projectors (new method)

 maximal supplied QI-value         = 18.90
 optimisation between [QCUT,QGAM] = [ 11.53, 23.24] = [ 37.21,151.29] Ry 
 Optimized for a Real-space Cutoff    1.21 Angstroem

   l    n(q)    QCUT    max X(q) W(low)/X(q) W(high)/X(q)  e(spline) 
   0      8    11.527     8.355    0.73E-04    0.70E-04    0.26E-07
   0      8    11.527     1.401    0.17E-03    0.17E-03    0.63E-07
   1      8    11.527     4.747    0.13E-03    0.17E-03    0.11E-06
   1      8    11.527     2.025    0.16E-03    0.18E-03    0.12E-06
   2      7    11.527     3.169    0.51E-04    0.25E-03    0.60E-07
   2      7    11.527     3.441    0.82E-04    0.22E-03    0.14E-06
 Optimization of the real space projectors (new method)

 maximal supplied QI-value         = 19.84
 optimisation between [QCUT,QGAM] = [ 11.51, 23.22] = [ 37.09,150.92] Ry 
 Optimized for a Real-space Cutoff    1.49 Angstroem

   l    n(q)    QCUT    max X(q) W(low)/X(q) W(high)/X(q)  e(spline) 
   0     10    11.508     7.541    0.34E-04    0.13E-04    0.69E-07
   0     10    11.508     1.809    0.49E-04    0.27E-04    0.14E-06
   1     10    11.508     4.107    0.27E-05    0.41E-05    0.14E-06
   1     10    11.508     2.196    0.26E-05    0.25E-05    0.22E-06
   2      9    11.508     4.265    0.18E-03    0.11E-03    0.81E-06
   2      9    11.508     1.925    0.97E-04    0.76E-04    0.47E-06
 Optimization of the real space projectors (new method)

 maximal supplied QI-value         = 19.84
 optimisation between [QCUT,QGAM] = [ 11.51, 23.22] = [ 37.09,150.92] Ry 
 Optimized for a Real-space Cutoff    1.21 Angstroem

   l    n(q)    QCUT    max X(q) W(low)/X(q) W(high)/X(q)  e(spline) 
   0      8    11.508     6.761    0.57E-04    0.57E-04    0.35E-07
   0      8    11.508     1.642    0.14E-03    0.14E-03    0.91E-07
   1      8    11.508     3.519    0.20E-04    0.72E-04    0.47E-07
   1      8    11.508     2.150    0.27E-04    0.11E-03    0.89E-07
   2      7    11.508     2.976    0.19E-03    0.33E-03    0.16E-06
   2      7    11.508     1.494    0.14E-03    0.29E-03    0.14E-06
  PAW_PBE Li_sv_GW 25Mar2010            :
 energy of atom  1       EATOM= -200.9989
 kinetic energy error for atom=    0.0127 (will be added to EATOM!!)
  PAW_PBE P_GW 19Mar2012                :
 energy of atom  2       EATOM= -176.0430
 kinetic energy error for atom=    0.0011 (will be added to EATOM!!)
  PAW_PBE S_GW 19Mar2012                :
 energy of atom  3       EATOM= -276.8230
 kinetic energy error for atom=    0.0024 (will be added to EATOM!!)
  PAW_PBE Cl_GW 19Mar2012               :
 energy of atom  4       EATOM= -409.7259
 kinetic energy error for atom=    0.0030 (will be added to EATOM!!)
 
 
 POSCAR: Li24 P4 S20 Cl4
  positions in direct lattice
  velocities in cartesian coordinates
 exchange correlation table for  LEXCH =        8
   RHO(1)=    0.500       N(1)  =     2000
   RHO(2)=  100.500       N(2)  =     4000

 VTST: version 4.1, (05/19/21)

 CHAIN: initializing optimizer
 
 OPT: Using VASP Conjugate-Gradient optimizer
 CHAIN: Read ICHAIN            0
 
 POSCAR: Li24 P4 S20 Cl4
  positions in direct lattice
  velocities in cartesian coordinates
 


--------------------------------------------------------------------------------------------------------


 ion  position               nearest neighbor table
   1  0.984  0.225  0.275-  46 2.21
   2  0.978  0.752  0.747-
   3  0.024  0.296  0.683-
   4  0.024  0.817  0.203-
   5  0.271  0.284  0.989-
   6  0.224  0.805  0.015-
   7  0.831  0.190  0.026-
   8  0.812  0.842  0.964-
   9  0.335  0.952  0.325-
  10  0.185  0.034  0.817-
  11  0.662  0.974  0.717-
  12  0.705  0.013  0.296-
  13  0.185  0.683  0.466-
  14  0.335  0.175  0.548-
  15  0.662  0.783  0.526-
  16  0.705  0.204  0.486-
  17  0.224  0.485  0.695-
  18  0.271  0.511  0.216-
  19  0.831  0.473  0.310-
  20  0.812  0.536  0.658-
  21  0.479  0.321  0.811-
  22  0.479  0.689  0.179-
  23  0.536  0.307  0.193-
  24  0.679  0.579  0.921-
  25  0.499  0.499  0.494-  43 2.02  44 2.05  41 2.06  42 2.07
  26  0.499  0.005  0.001-  40 2.02  39 2.05  37 2.06  38 2.07
  27  0.992  0.506  0.994-  35 2.04  34 2.05  33 2.05  36 2.06
  28  0.006  0.988  0.512-  29 2.05  32 2.06  31 2.06  30 2.06
  29  0.141  0.872  0.628-  28 2.05
  30  0.140  0.104  0.395-  28 2.06
  31  0.881  0.863  0.394-  28 2.06
  32  0.881  0.105  0.637-  28 2.06
  33  0.867  0.631  0.110-  27 2.05
  34  0.867  0.390  0.868-  27 2.05
  35  0.130  0.618  0.882-  27 2.04
  36  0.097  0.374  0.126-  27 2.06
  37  0.628  0.138  0.895-  26 2.06
  38  0.622  0.875  0.117-  26 2.07
  39  0.377  0.116  0.134-  26 2.05
  40  0.391  0.892  0.862-  26 2.02
  41  0.628  0.605  0.362-  25 2.06
  42  0.622  0.383  0.625-  25 2.07
  43  0.391  0.638  0.608-  25 2.02
  44  0.377  0.365  0.384-  25 2.05
  45  0.744  0.747  0.753-
  46  0.757  0.244  0.255-   1 2.21
  47  0.252  0.743  0.243-
  48  0.252  0.257  0.757-
  49  0.012  0.979  0.005-
  50  0.012  0.495  0.520-
  51  0.535  0.007  0.493-
  52  0.472  0.479  0.021-
 
  LATTYP: Found a simple cubic cell.
 ALAT       =     9.6837536627
  
  Lattice vectors:
  
 A1 = (   9.6837536627,   0.0000000000,   0.0000000000)
 A2 = (   0.0000000000,   9.6837536627,   0.0000000000)
 A3 = (   0.0000000000,   0.0000000000,   9.6837536627)


Analysis of symmetry for initial positions (statically):
=====================================================================
 Subroutine PRICEL returns:
 Original cell was already a primitive cell.
 

 Routine SETGRP: Setting up the symmetry group for a 
 simple cubic supercell.


 Subroutine GETGRP returns: Found  2 space group operations
 (whereof  1 operations were pure point group operations)
 out of a pool of 48 trial point group operations.


The static configuration has the point symmetry C_1 .
 The point group associated with its full space group is C_1h.


Analysis of symmetry for dynamics (positions and initial velocities):
=====================================================================
 Subroutine PRICEL returns:
 Original cell was already a primitive cell.
 

 Routine SETGRP: Setting up the symmetry group for a 
 simple cubic supercell.


 Subroutine GETGRP returns: Found  2 space group operations
 (whereof  1 operations were pure point group operations)
 out of a pool of 48 trial point group operations.


The dynamic configuration has the point symmetry C_1 .
 The point group associated with its full space group is C_1h.


Analysis of structural, dynamic, and magnetic symmetry:
=====================================================================
 Subroutine PRICEL returns:
 Original cell was already a primitive cell.
 

 Routine SETGRP: Setting up the symmetry group for a 
 simple cubic supercell.


 Subroutine GETGRP returns: Found  2 space group operations
 (whereof  1 operations were pure point group operations)
 out of a pool of 48 trial point group operations.


The overall configuration has the point symmetry C_1 .
 The point group associated with its full space group is C_1h.


 Subroutine INISYM returns: Found  2 space group operations
 (whereof  1 operations are pure point group operations),
 and found     1 'primitive' translations


----------------------------------------------------------------------------------------

                                     Primitive cell                                     

  volume of cell :     908.0948

  direct lattice vectors                    reciprocal lattice vectors
     9.683753663  0.000000000  0.000000000     0.103265741  0.000000000  0.000000000
     0.000000000  9.683753663  0.000000000     0.000000000  0.103265741  0.000000000
     0.000000000  0.000000000  9.683753663     0.000000000  0.000000000  0.103265741

  length of vectors
     9.683753663  9.683753663  9.683753663     0.103265741  0.103265741  0.103265741

  position of ions in fractional coordinates (direct lattice)
     0.984004586  0.225274837  0.274590757
     0.977554760  0.752475441  0.747390153
     0.023966504  0.296425003  0.682892283
     0.023966504  0.816973311  0.203440591
     0.270574294  0.284217982  0.989033977
     0.224284729  0.805079302  0.015296554
     0.830980899  0.189939375  0.026430173
     0.812127295  0.842292501  0.964156085
     0.335408490  0.952211392  0.324794628
     0.185189701  0.033690962  0.817249381
     0.662023659  0.973787163  0.717117515
     0.704874792  0.013467999  0.295520160
     0.185189701  0.682616213  0.466174632
     0.335408490  0.175070966  0.547654202
     0.662023659  0.782748079  0.526078431
     0.704874792  0.204345434  0.486397595
     0.224284729  0.484569040  0.694786292
     0.270574294  0.510831616  0.215647612
     0.830980899  0.473435421  0.309926219
     0.812127295  0.535709509  0.657573093
     0.479099617  0.320887431  0.811176449
     0.479099617  0.688689145  0.178978163
     0.535861045  0.307111398  0.192754196
     0.679229943  0.579109883  0.920755711
     0.498788152  0.499216055  0.494497340
     0.498788152  0.005368254  0.000649539
     0.992451059  0.505516958  0.994348636
     0.006160492  0.987626747  0.512238847
     0.140881680  0.872326239  0.627539355
     0.140399318  0.104403761  0.395461833
     0.881142751  0.862990168  0.394445203
     0.881142751  0.105420391  0.636875426
     0.867078482  0.631441342  0.110134736
     0.867078482  0.389730858  0.868424251
     0.130479398  0.618112768  0.881752826
     0.096602998  0.374319831  0.125545762
     0.627634675  0.137875858  0.894976000
     0.622155016  0.874755162  0.116517400
     0.376615589  0.115577897  0.134405675
     0.391396514  0.892219170  0.861524768
     0.627634675  0.604889594  0.361989736
     0.622155016  0.383348194  0.625110432
     0.391396514  0.638340826  0.607646424
     0.376615589  0.365459919  0.384287697
     0.743875547  0.746811089  0.753054505
     0.757197197  0.244378507  0.255487086
     0.251754790  0.743325471  0.243052938
     0.251754790  0.256812655  0.756540123
     0.011526060  0.979446871  0.005338315
     0.011526060  0.494527279  0.520418723
     0.534686221  0.007127319  0.492738275
     0.471994115  0.479052859  0.020812735

  ion indices of the primitive-cell ions
   primitive index   ion index
                 1           1
                 2           2
                 3           3
                 4           4
                 5           5
                 6           6
                 7           7
                 8           8
                 9           9
                10          10
                11          11
                12          12
                13          13
                14          14
                15          15
                16          16
                17          17
                18          18
                19          19
                20          20
                21          21
                22          22
                23          23
                24          24
                25          25
                26          26
                27          27
                28          28
                29          29
                30          30
                31          31
                32          32
                33          33
                34          34
                35          35
                36          36
                37          37
                38          38
                39          39
                40          40
                41          41
                42          42
                43          43
                44          44
                45          45
                46          46
                47          47
                48          48
                49          49
                50          50
                51          51
                52          52

----------------------------------------------------------------------------------------

 
 
 KPOINTS: Automatic mesh                          

Automatic generation of k-mesh.
 Grid dimensions read from file:
 generate k-points for:    2    2    2

 Generating k-lattice:

  Cartesian coordinates                     Fractional coordinates (reciprocal lattice)
     0.051632871  0.000000000  0.000000000     0.500000000  0.000000000  0.000000000
     0.000000000  0.051632871  0.000000000     0.000000000  0.500000000  0.000000000
     0.000000000  0.000000000  0.051632871     0.000000000  0.000000000  0.500000000

  Length of vectors
     0.051632871  0.051632871  0.051632871

  Shift w.r.t. Gamma in fractional coordinates (k-lattice)
     0.500000000  0.500000000  0.500000000

 
 Subroutine IBZKPT returns following result:
 ===========================================
 
 Found      3 irreducible k-points:
 
 Following reciprocal coordinates:
            Coordinates               Weight
  0.250000  0.250000  0.250000      4.000000
 -0.250000 -0.250000  0.250000      2.000000
  0.250000 -0.250000  0.250000      2.000000
 
 Following cartesian coordinates:
            Coordinates               Weight
  0.025816  0.025816  0.025816      4.000000
 -0.025816 -0.025816  0.025816      2.000000
  0.025816 -0.025816  0.025816      2.000000
 


--------------------------------------------------------------------------------------------------------




 Dimension of arrays:
   k-points           NKPTS =      3   k-points in BZ     NKDIM =      3   number of bands    NBANDS=    176
   number of dos      NEDOS =    301   number of ions     NIONS =     52
   non local maximal  LDIM  =      6   non local SUM 2l+1 LMDIM =     18
   total plane-waves  NPLWV = 373248
   max r-space proj   IRMAX =   5735   max aug-charges    IRDMAX=  17545
   dimension x,y,z NGX =    72 NGY =   72 NGZ =   72
   dimension x,y,z NGXF=   144 NGYF=  144 NGZF=  144
   support grid    NGXF=   144 NGYF=  144 NGZF=  144
   ions per type =              24   4  20   4
   NGX,Y,Z   is equivalent  to a cutoff of  12.36, 12.36, 12.36 a.u.
   NGXF,Y,Z  is equivalent  to a cutoff of  24.72, 24.72, 24.72 a.u.

 SYSTEM =  unknown system                          
 POSCAR =  Li24 P4 S20 Cl4                         

 Startparameter for this run:
   NWRITE =      2    write-flag & timer
   PREC   = accu      normal or accurate (medium, high low for compatibility)
   ISTART =      0    job   : 0-new  1-cont  2-samecut
   ICHARG =      2    charge: 1-file 2-atom 10-const
   ISPIN  =      2    spin polarized calculation?
   LNONCOLLINEAR =      F non collinear calculations
   LSORBIT =      F    spin-orbit coupling
   INIWAV =      1    electr: 0-lowe 1-rand  2-diag
   LASPH  =      T    aspherical Exc in radial PAW
 Electronic Relaxation 1
   ENCUT  =  520.0 eV  38.22 Ry    6.18 a.u.  18.01 18.01 18.01*2*pi/ulx,y,z
   ENINI  =  520.0     initial cutoff
   ENAUG  = 1041.7 eV  augmentation charge cutoff
   NELM   =    100;   NELMIN=  2; NELMDL=-10     # of ELM steps 
   EDIFF  = 0.1E-05   stopping-criterion for ELM
   LREAL  =      T    real-space projection
   NLSPLINE    = F    spline interpolate recip. space projectors
   LCOMPAT=      F    compatible to vasp.4.4
   GGA_COMPAT  = T    GGA compatible to vasp.4.4-vasp.4.6
   LMAXPAW     = -100 max onsite density
   LMAXMIX     =    4 max onsite mixed and CHGCAR
   VOSKOWN=      0    Vosko Wilk Nusair interpolation
   ROPT   =   -0.00025  -0.00025  -0.00025  -0.00025
 Ionic relaxation
   EDIFFG = -.1E-02   stopping-criterion for IOM
   NSW    =   1000    number of steps for IOM
   NBLOCK =      1;   KBLOCK =   1000    inner block; outer block 
   IBRION =      2    ionic relax: 0-MD 1-quasi-New 2-CG
   NFREE  =      1    steps in history (QN), initial steepest desc. (CG)
   ISIF   =      2    stress and relaxation
   IWAVPR =     11    prediction:  0-non 1-charg 2-wave 3-comb
   ISYM   =      2    0-nonsym 1-usesym 2-fastsym
   LCORR  =      T    Harris-Foulkes like correction to forces

   POTIM  = 0.2000    time-step for ionic-motion
   TEIN   =    0.0    initial temperature
   TEBEG  =    0.0;   TEEND  =   0.0 temperature during run
   SMASS  =  -3.00    Nose mass-parameter (am)
   estimated Nose-frequenzy (Omega)   =  0.10E-29 period in steps = 0.31E+47 mass=  -0.214E-26a.u.
   SCALEE = 1.0000    scale energy and forces
   NPACO  =    256;   APACO  = 10.0  distance and # of slots for P.C.
   PSTRESS=    0.0 pullay stress

  Mass of Ions in am
   POMASS =   7.01 30.97 32.07 35.45
  Ionic Valenz
   ZVAL   =   3.00  5.00  6.00  7.00
  Atomic Wigner-Seitz radii
   RWIGS  =  -1.00 -1.00 -1.00 -1.00
  virtual crystal weights 
   VCA    =   1.00  1.00  1.00  1.00
   NELECT =     240.0000    total number of electrons
   NUPDOWN=      -1.0000    fix difference up-down

 DOS related values:
   EMIN   =  10.00;   EMAX   =-10.00  energy-range for DOS
   EFERMI =   0.00;   METHOD = LEGACY      
   ISMEAR =     0;   SIGMA  =   0.03  broadening in eV -4-tet -1-fermi 0-gaus

 Electronic relaxation 2 (details)
   IALGO  =     68    algorithm
   LDIAG  =      T    sub-space diagonalisation (order eigenvalues)
   LSUBROT=      F    optimize rotation matrix (better conditioning)
   TURBO    =      0    0=normal 1=particle mesh
   IRESTART =      0    0=no restart 2=restart with 2 vectors
   NREBOOT  =      0    no. of reboots
   NMIN     =      0    reboot dimension
   EREF     =   0.00    reference energy to select bands
   IMIX   =      4    mixing-type and parameters
     AMIX     =   0.40;   BMIX     =  1.00
     AMIX_MAG =   1.60;   BMIX_MAG =  1.00
     AMIN     =   0.10
     WC   =   100.;   INIMIX=   1;  MIXPRE=   1;  MAXMIX= -45

 Intra band minimization:
   WEIMIN = 0.0010     energy-eigenvalue tresh-hold
   EBREAK =  0.14E-08  absolut break condition
   DEPER  =   0.30     relativ break condition  

   TIME   =   0.40     timestep for ELM

  volume/ion in A,a.u.               =      17.46       117.85
  Fermi-wavevector in a.u.,A,eV,Ry     =   1.050594  1.985334 15.017395  1.103747
  Thomas-Fermi vector in A             =   2.185603
 
 Write flags
   LWAVE        =      F    write WAVECAR
   LDOWNSAMPLE  =      F    k-point downsampling of WAVECAR
   LCHARG       =      F    write CHGCAR
   LVTOT        =      F    write LOCPOT, total local potential
   LVHAR        =      F    write LOCPOT, Hartree potential only
   LELF         =      F    write electronic localiz. function (ELF)
   LORBIT       =      0    0 simple, 1 ext, 2 COOP (PROOUT), +10 PAW based schemes


 Dipole corrections
   LMONO  =      F    monopole corrections only (constant potential shift)
   LDIPOL =      F    correct potential (dipole corrections)
   IDIPOL =      0    1-x, 2-y, 3-z, 4-all directions 
   EPSILON=  1.0000000 bulk dielectric constant

 Exchange correlation treatment:
   GGA     =    PE    GGA type
   LEXCH   =     8    internal setting for exchange type
   LIBXC   =     F    Libxc                    
   VOSKOWN =     0    Vosko Wilk Nusair interpolation
   LHFCALC =     F    Hartree Fock is set to
   LHFONE  =     F    Hartree Fock one center treatment
   AEXX    =    0.0000 exact exchange contribution

 Linear response parameters
   LEPSILON=     F    determine dielectric tensor
   LRPA    =     F    only Hartree local field effects (RPA)
   LNABLA  =     F    use nabla operator in PAW spheres
   LVEL    =     F    velocity operator in full k-point grid
   CSHIFT  =0.1000    complex shift for real part using Kramers Kronig
   OMEGAMAX=  -1.0    maximum frequency
   DEG_THRESHOLD= 0.2000000E-02 threshold for treating states as degnerate
   RTIME   =   -0.100 relaxation time in fs
  (WPLASMAI=    0.000 imaginary part of plasma frequency in eV, 0.658/RTIME)
   DFIELD  = 0.0000000 0.0000000 0.0000000 field for delta impulse in time
 
  Optional k-point grid parameters
   LKPOINTS_OPT  =     F    use optional k-point grid
   KPOINTS_OPT_MODE=     1    mode for optional k-point grid
 
 Orbital magnetization related:
   ORBITALMAG=     F  switch on orbital magnetization
   LCHIMAG   =     F  perturbation theory with respect to B field
   DQ        =  0.001000  dq finite difference perturbation B field
   LLRAUG    =     F  two centre corrections for induced B field
   LBONE     =     F  B-component reconstruction in AE one-centre
   LVGVCALC  =     T  calculate vGv susceptibility
   LVGVAPPL  =     F  apply vGv susceptibility instead of pGv for G=0

 Random number generation:
   RANDOM_GENERATOR = DEFAULT
   PCG_SEED         = not used


--------------------------------------------------------------------------------------------------------


 conjugate gradient relaxation of ions
 charge density and potential will be updated during run
 spin polarized calculation
 RMM-DIIS sequential band-by-band and
  variant of blocked Davidson during initial phase
 perform sub-space diagonalisation
    before iterative eigenvector-optimisation
 modified Broyden-mixing scheme, WC =      100.0
 initial mixing is a Kerker type mixing with AMIX =  0.4000 and BMIX =      1.0000
 Hartree-type preconditioning will be used
 using additional bands           56
 real space projection scheme for non local part
 use partial core corrections
 calculate Harris-corrections to forces 
   (improved forces if not selfconsistent)
 use gradient corrections 
 use of overlap-Matrix (Vanderbilt PP)
 Gauss-broadening in eV      SIGMA  =   0.03


--------------------------------------------------------------------------------------------------------


  energy-cutoff  :      520.00
  volume of cell :      908.09
      direct lattice vectors                 reciprocal lattice vectors
     9.683753663  0.000000000  0.000000000     0.103265741  0.000000000  0.000000000
     0.000000000  9.683753663  0.000000000     0.000000000  0.103265741  0.000000000
     0.000000000  0.000000000  9.683753663     0.000000000  0.000000000  0.103265741

  length of vectors
     9.683753663  9.683753663  9.683753663     0.103265741  0.103265741  0.103265741


 
 k-points in units of 2pi/SCALE and weight: Automatic mesh                          
   0.02581644  0.02581644  0.02581644       0.500
  -0.02581644 -0.02581644  0.02581644       0.250
   0.02581644 -0.02581644  0.02581644       0.250
 
 k-points in reciprocal lattice and weights: Automatic mesh                          
   0.25000000  0.25000000  0.25000000       0.500
  -0.25000000 -0.25000000  0.25000000       0.250
   0.25000000 -0.25000000  0.25000000       0.250
 
 position of ions in fractional coordinates (direct lattice) 
   0.98400459  0.22527484  0.27459076
   0.97755476  0.75247544  0.74739015
   0.02396650  0.29642500  0.68289228
   0.02396650  0.81697331  0.20344059
   0.27057429  0.28421798  0.98903398
   0.22428473  0.80507930  0.01529655
   0.83098090  0.18993937  0.02643017
   0.81212729  0.84229250  0.96415609
   0.33540849  0.95221139  0.32479463
   0.18518970  0.03369096  0.81724938
   0.66202366  0.97378716  0.71711751
   0.70487479  0.01346800  0.29552016
   0.18518970  0.68261621  0.46617463
   0.33540849  0.17507097  0.54765420
   0.66202366  0.78274808  0.52607843
   0.70487479  0.20434543  0.48639760
   0.22428473  0.48456904  0.69478629
   0.27057429  0.51083162  0.21564761
   0.83098090  0.47343542  0.30992622
   0.81212729  0.53570951  0.65757309
   0.47909962  0.32088743  0.81117645
   0.47909962  0.68868914  0.17897816
   0.53586105  0.30711140  0.19275420
   0.67922994  0.57910988  0.92075571
   0.49878815  0.49921605  0.49449734
   0.49878815  0.00536825  0.00064954
   0.99245106  0.50551696  0.99434864
   0.00616049  0.98762675  0.51223885
   0.14088168  0.87232624  0.62753936
   0.14039932  0.10440376  0.39546183
   0.88114275  0.86299017  0.39444520
   0.88114275  0.10542039  0.63687543
   0.86707848  0.63144134  0.11013474
   0.86707848  0.38973086  0.86842425
   0.13047940  0.61811277  0.88175283
   0.09660300  0.37431983  0.12554576
   0.62763468  0.13787586  0.89497600
   0.62215502  0.87475516  0.11651740
   0.37661559  0.11557790  0.13440568
   0.39139651  0.89221917  0.86152477
   0.62763468  0.60488959  0.36198974
   0.62215502  0.38334819  0.62511043
   0.39139651  0.63834083  0.60764642
   0.37661559  0.36545992  0.38428770
   0.74387555  0.74681109  0.75305451
   0.75719720  0.24437851  0.25548709
   0.25175479  0.74332547  0.24305294
   0.25175479  0.25681266  0.75654012
   0.01152606  0.97944687  0.00533832
   0.01152606  0.49452728  0.52041872
   0.53468622  0.00712732  0.49273828
   0.47199412  0.47905286  0.02081274
 
 position of ions in cartesian coordinates  (Angst):
   9.52885801  2.18150603  2.65906925
   9.46639949  7.28678681  7.23754213
   0.23208572  2.87050671  6.61296064
   0.23208572  7.91136830  1.97006856
   2.62017481  2.75229692  9.57756140
   2.17191806  7.79618964  0.14812806
   8.04701432  1.83932612  0.25594329
   7.86444066  8.15655309  9.33665002
   3.24801319  9.22098056  3.14523117
   1.79333145  0.32625497  7.91404168
   6.41087403  9.42991501  6.94438936
   6.82583385  0.13042078  2.86174443
   1.79333145  6.61028725  4.51432030
   3.24801319  1.69534411  5.30334838
   6.41087403  7.57993958  5.09441393
   6.82583385  1.97883085  4.71015450
   2.17191806  4.69244722  6.72813930
   2.62017481  4.94676754  2.08827835
   8.04701432  4.58463199  3.00124916
   7.86444066  5.18767892  6.36777585
   4.63948267  3.10739483  7.85523291
   4.63948267  6.66909603  1.73318044
   5.18914636  2.97399112  1.86658415
   6.57749545  5.60795745  8.91637149
   4.83014159  4.83428530  4.78859043
   4.83014159  0.05198485  0.00628998
   9.61065157  4.89530169  9.62902724
   0.05965669  9.56393413  4.96039481
   1.36426348  8.44739241  6.07693653
   1.35959241  1.01102030  3.82955497
   8.53276934  8.35698420  3.81971018
   8.53276934  1.02086510  6.16734474
   8.39657443  6.11472241  1.06651765
   8.39657443  3.77405762  8.40960653
   1.26353034  5.98565178  8.53867716
   0.93547963  3.62482104  1.21575424
   6.07785958  1.33515584  8.66672712
   6.02479592  8.47091350  1.12832580
   3.64705259  1.11922789  1.30155145
   3.79018743  8.64003066  8.34279363
   6.07785958  5.85760182  3.50541944
   6.02479592  3.71224947  6.05341544
   3.79018743  6.18153531  5.88429828
   3.64705259  3.53902383  3.72134739
   7.20350756  7.23193461  7.29239432
   7.33251113  2.36650127  2.47407401
   2.43793137  7.19818075  2.35366478
   2.43793137  2.48691049  7.32614819
   0.11161553  9.48472222  0.05169493
   0.11161553  4.78888035  5.03960671
   5.17776965  0.06901920  4.77155608
   4.57067474  4.63902988  0.20154540
 


--------------------------------------------------------------------------------------------------------


 k-point   1 :   0.2500 0.2500 0.2500  plane waves:   24468
 k-point   2 :  -0.2500-0.2500 0.2500  plane waves:   24468
 k-point   3 :   0.2500-0.2500 0.2500  plane waves:   24468

 maximum and minimum number of plane-waves per node :       784      745

 maximum number of plane-waves:     24468
 maximum index in each direction: 
   IXMAX=   18   IYMAX=   18   IZMAX=   17
   IXMIN=  -18   IYMIN=  -18   IZMIN=  -18


 real space projection operators:
  total allocation   :      28140.02 KBytes
  max/ min on nodes  :       1148.44        728.44


 parallel 3D FFT for wavefunctions:
    minimum data exchange during FFTs selected (reduces bandwidth)
 parallel 3D FFT for charge:
    minimum data exchange during FFTs selected (reduces bandwidth)


 total amount of memory used by VASP MPI-rank0    46945. kBytes
=======================================================================

   base      :      30000. kBytes
   nonlr-proj:       6462. kBytes
   fftplans  :       1747. kBytes
   grid      :       5278. kBytes
   one-center:         62. kBytes
   wavefun   :       3396. kBytes
 
     INWAV:  cpu time      0.0000: real time      0.0003
 Broyden mixing: mesh for mixing (old mesh)
   NGX = 37   NGY = 37   NGZ = 37
  (NGX  =144   NGY  =144   NGZ  =144)
  gives a total of  50653 points

 initial charge density was supplied:
 charge density of overlapping atoms calculated
 number of electron     240.0000000 magnetization      52.0000000
 keeping initial charge density in first step


--------------------------------------------------------------------------------------------------------


 Maximum index for non-local projection operator          525
 Maximum index for augmentation-charges          785 (set IRDMAX)


--------------------------------------------------------------------------------------------------------


 First call to EWALD:  gamma=   0.183
 Maximum number of real-space cells 3x 3x 3
 Maximum number of reciprocal cells 3x 3x 3

    FEWALD:  cpu time      0.0030: real time      0.0036


--------------------------------------- Ionic step        1  -------------------------------------------




--------------------------------------- Iteration      1(   1)  ---------------------------------------


    POTLOK:  cpu time      0.0584: real time      0.0689
    SETDIJ:  cpu time      0.4117: real time      0.4207
     EDDAV:  cpu time      1.6617: real time      1.7646
       DOS:  cpu time      0.0025: real time      0.0038
    --------------------------------------------
      LOOP:  cpu time      2.1343: real time      2.2581

 eigenvalue-minimisations  :  2344
 total energy-change (2. order) : 0.1571377E+04  (-0.1138096E+05)
 number of electron     240.0000000 magnetization      52.0000000
 augmentation part      240.0000000 magnetization      52.0000000

 Free energy of the ion-electron system (eV)
  ---------------------------------------------------
  alpha Z        PSCENC =       298.93079098
  Ewald energy   TEWEN  =     -8779.03240855
  -Hartree energ DENC   =     -2131.13855784
  -exchange      EXHF   =         0.00000000
  -V(xc)+E(xc)   XCENC  =       533.92900180
  PAW double counting   =      8141.38806575    -8271.61346273
  entropy T*S    EENTRO =        -0.00248619
  eigenvalues    EBANDS =      -924.22348775
  atomic energy  EATOM  =     12703.13999606
  Solvation  Ediel_sol  =         0.00000000
  ---------------------------------------------------
  free energy    TOTEN  =      1571.37745152 eV

  energy without entropy =     1571.37993771  energy(sigma->0) =     1571.37869462


--------------------------------------------------------------------------------------------------------




--------------------------------------- Iteration      1(   2)  ---------------------------------------


     EDDAV:  cpu time      1.9153: real time      1.9426
       DOS:  cpu time      0.0004: real time      0.0004
    --------------------------------------------
      LOOP:  cpu time      1.9158: real time      1.9430

 eigenvalue-minimisations  :  2824
 total energy-change (2. order) :-0.1626694E+04  (-0.1525186E+04)
 number of electron     240.0000000 magnetization      52.0000000
 augmentation part      240.0000000 magnetization      52.0000000

 Free energy of the ion-electron system (eV)
  ---------------------------------------------------
  alpha Z        PSCENC =       298.93079098
  Ewald energy   TEWEN  =     -8779.03240855
  -Hartree energ DENC   =     -2131.13855784
  -exchange      EXHF   =         0.00000000
  -V(xc)+E(xc)   XCENC  =       533.92900180
  PAW double counting   =      8141.38806575    -8271.61346273
  entropy T*S    EENTRO =        -0.00000000
  eigenvalues    EBANDS =     -2550.92031525
  atomic energy  EATOM  =     12703.13999606
  Solvation  Ediel_sol  =         0.00000000
  ---------------------------------------------------
  free energy    TOTEN  =       -55.31688979 eV

  energy without entropy =      -55.31688979  energy(sigma->0) =      -55.31688979


--------------------------------------------------------------------------------------------------------




--------------------------------------- Iteration      1(   3)  ---------------------------------------


     EDDAV:  cpu time      1.9281: real time      1.9514
       DOS:  cpu time      0.0004: real time      0.0004
    --------------------------------------------
      LOOP:  cpu time      1.9286: real time      1.9518

 eigenvalue-minimisations  :  2848
 total energy-change (2. order) :-0.1732541E+03  (-0.1712368E+03)
 number of electron     240.0000000 magnetization      52.0000000
 augmentation part      240.0000000 magnetization      52.0000000

 Free energy of the ion-electron system (eV)
  ---------------------------------------------------
  alpha Z        PSCENC =       298.93079098
  Ewald energy   TEWEN  =     -8779.03240855
  -Hartree energ DENC   =     -2131.13855784
  -exchange      EXHF   =         0.00000000
  -V(xc)+E(xc)   XCENC  =       533.92900180
  PAW double counting   =      8141.38806575    -8271.61346273
  entropy T*S    EENTRO =        -0.00000000
  eigenvalues    EBANDS =     -2724.17442199
  atomic energy  EATOM  =     12703.13999606
  Solvation  Ediel_sol  =         0.00000000
  ---------------------------------------------------
  free energy    TOTEN  =      -228.57099653 eV

  energy without entropy =     -228.57099653  energy(sigma->0) =     -228.57099653


--------------------------------------------------------------------------------------------------------




--------------------------------------- Iteration      1(   4)  ---------------------------------------


     EDDAV:  cpu time      2.3732: real time      2.3991
       DOS:  cpu time      0.0004: real time      0.0004
    --------------------------------------------
      LOOP:  cpu time      2.3735: real time      2.3994

 eigenvalue-minimisations  :  3528
 total energy-change (2. order) :-0.1300151E+02  (-0.1297694E+02)
 number of electron     240.0000000 magnetization      52.0000000
 augmentation part      240.0000000 magnetization      52.0000000

 Free energy of the ion-electron system (eV)
  ---------------------------------------------------
  alpha Z        PSCENC =       298.93079098
  Ewald energy   TEWEN  =     -8779.03240855
  -Hartree energ DENC   =     -2131.13855784
  -exchange      EXHF   =         0.00000000
  -V(xc)+E(xc)   XCENC  =       533.92900180
  PAW double counting   =      8141.38806575    -8271.61346273
  entropy T*S    EENTRO =        -0.00000000
  eigenvalues    EBANDS =     -2737.17593534
  atomic energy  EATOM  =     12703.13999606
  Solvation  Ediel_sol  =         0.00000000
  ---------------------------------------------------
  free energy    TOTEN  =      -241.57250988 eV

  energy without entropy =     -241.57250988  energy(sigma->0) =     -241.57250988


--------------------------------------------------------------------------------------------------------




--------------------------------------- Iteration      1(   5)  ---------------------------------------


     EDDAV:  cpu time      2.2304: real time      2.2525
       DOS:  cpu time      0.0004: real time      0.0003
    --------------------------------------------
      LOOP:  cpu time      2.2307: real time      2.2529

 eigenvalue-minimisations  :  3344
 total energy-change (2. order) :-0.2521198E+00  (-0.2520096E+00)
 number of electron     240.0000000 magnetization      52.0000000
 augmentation part      240.0000000 magnetization      52.0000000

 Free energy of the ion-electron system (eV)
  ---------------------------------------------------
  alpha Z        PSCENC =       298.93079098
  Ewald energy   TEWEN  =     -8779.03240855
  -Hartree energ DENC   =     -2131.13855784
  -exchange      EXHF   =         0.00000000
  -V(xc)+E(xc)   XCENC  =       533.92900180
  PAW double counting   =      8141.38806575    -8271.61346273
  entropy T*S    EENTRO =        -0.00000000
  eigenvalues    EBANDS =     -2737.42805517
  atomic energy  EATOM  =     12703.13999606
  Solvation  Ediel_sol  =         0.00000000
  ---------------------------------------------------
  free energy    TOTEN  =      -241.82462970 eV

  energy without entropy =     -241.82462970  energy(sigma->0) =     -241.82462970


--------------------------------------------------------------------------------------------------------




--------------------------------------- Iteration      1(   6)  ---------------------------------------


     EDDAV:  cpu time      2.2703: real time      2.2947
       DOS:  cpu time      0.0005: real time      0.0005
    --------------------------------------------
      LOOP:  cpu time      2.2708: real time      2.2952

 eigenvalue-minimisations  :  3488
 total energy-change (2. order) :-0.1201102E-01  (-0.1200977E-01)
 number of electron     240.0000000 magnetization      52.0000000
 augmentation part      240.0000000 magnetization      52.0000000

 Free energy of the ion-electron system (eV)
  ---------------------------------------------------
  alpha Z        PSCENC =       298.93079098
  Ewald energy   TEWEN  =     -8779.03240855
  -Hartree energ DENC   =     -2131.13855784
  -exchange      EXHF   =         0.00000000
  -V(xc)+E(xc)   XCENC  =       533.92900180
  PAW double counting   =      8141.38806575    -8271.61346273
  entropy T*S    EENTRO =        -0.00000000
  eigenvalues    EBANDS =     -2737.44006619
  atomic energy  EATOM  =     12703.13999606
  Solvation  Ediel_sol  =         0.00000000
  ---------------------------------------------------
  free energy    TOTEN  =      -241.83664073 eV

  energy without entropy =     -241.83664073  energy(sigma->0) =     -241.83664073


--------------------------------------------------------------------------------------------------------




--------------------------------------- Iteration      1(   7)  ---------------------------------------


     EDDAV:  cpu time      2.2242: real time      2.2478
       DOS:  cpu time      0.0005: real time      0.0005
    --------------------------------------------
      LOOP:  cpu time      2.2246: real time      2.2482

 eigenvalue-minimisations  :  3408
 total energy-change (2. order) :-0.4001307E-03  (-0.4001051E-03)
 number of electron     240.0000000 magnetization      52.0000000
 augmentation part      240.0000000 magnetization      52.0000000

 Free energy of the ion-electron system (eV)
  ---------------------------------------------------
  alpha Z        PSCENC =       298.93079098
  Ewald energy   TEWEN  =     -8779.03240855
  -Hartree energ DENC   =     -2131.13855784
  -exchange      EXHF   =         0.00000000
  -V(xc)+E(xc)   XCENC  =       533.92900180
  PAW double counting   =      8141.38806575    -8271.61346273
  entropy T*S    EENTRO =        -0.00000000
  eigenvalues    EBANDS =     -2737.44046632
  atomic energy  EATOM  =     12703.13999606
  Solvation  Ediel_sol  =         0.00000000
  ---------------------------------------------------
  free energy    TOTEN  =      -241.83704086 eV

  energy without entropy =     -241.83704086  energy(sigma->0) =     -241.83704086


--------------------------------------------------------------------------------------------------------




--------------------------------------- Iteration      1(   8)  ---------------------------------------


     EDDAV:  cpu time      2.2348: real time      2.2598
       DOS:  cpu time      0.0005: real time      0.0005
    --------------------------------------------
      LOOP:  cpu time      2.2353: real time      2.2603

 eigenvalue-minimisations  :  3424
 total energy-change (2. order) :-0.2327103E-04  (-0.2327015E-04)
 number of electron     240.0000000 magnetization      52.0000000
 augmentation part      240.0000000 magnetization      52.0000000

 Free energy of the ion-electron system (eV)
  ---------------------------------------------------
  alpha Z        PSCENC =       298.93079098
  Ewald energy   TEWEN  =     -8779.03240855
  -Hartree energ DENC   =     -2131.13855784
  -exchange      EXHF   =         0.00000000
  -V(xc)+E(xc)   XCENC  =       533.92900180
  PAW double counting   =      8141.38806575    -8271.61346273
  entropy T*S    EENTRO =        -0.00000000
  eigenvalues    EBANDS =     -2737.44048959
  atomic energy  EATOM  =     12703.13999606
  Solvation  Ediel_sol  =         0.00000000
  ---------------------------------------------------
  free energy    TOTEN  =      -241.83706413 eV

  energy without entropy =     -241.83706413  energy(sigma->0) =     -241.83706413


--------------------------------------------------------------------------------------------------------




--------------------------------------- Iteration      1(   9)  ---------------------------------------


     EDDAV:  cpu time      2.2100: real time      2.2329
       DOS:  cpu time      0.0006: real time      0.0006
    --------------------------------------------
      LOOP:  cpu time      2.2105: real time      2.2334

 eigenvalue-minimisations  :  3384
 total energy-change (2. order) :-0.1501730E-05  (-0.1501997E-05)
 number of electron     240.0000000 magnetization      52.0000000
 augmentation part      240.0000000 magnetization      52.0000000

 Free energy of the ion-electron system (eV)
  ---------------------------------------------------
  alpha Z        PSCENC =       298.93079098
  Ewald energy   TEWEN  =     -8779.03240855
  -Hartree energ DENC   =     -2131.13855784
  -exchange      EXHF   =         0.00000000
  -V(xc)+E(xc)   XCENC  =       533.92900180
  PAW double counting   =      8141.38806575    -8271.61346273
  entropy T*S    EENTRO =        -0.00000000
  eigenvalues    EBANDS =     -2737.44049110
  atomic energy  EATOM  =     12703.13999606
  Solvation  Ediel_sol  =         0.00000000
  ---------------------------------------------------
  free energy    TOTEN  =      -241.83706563 eV

  energy without entropy =     -241.83706563  energy(sigma->0) =     -241.83706563


--------------------------------------------------------------------------------------------------------




--------------------------------------- Iteration      1(  10)  ---------------------------------------


     EDDAV:  cpu time      1.4757: real time      1.5023
       DOS:  cpu time      0.0004: real time      0.0004
    CHARGE:  cpu time      0.2740: real time      0.3498
    MIXING:  cpu time      0.0018: real time      0.0024
    --------------------------------------------
      LOOP:  cpu time      1.7520: real time      1.8550

 eigenvalue-minimisations  :  1992
 total energy-change (2. order) :-0.6311166E-07  (-0.6284556E-07)
 number of electron     239.9999998 magnetization      27.3507091
 augmentation part        1.4887505 magnetization      27.7924435

 Broyden mixing:
  rms(total) = 0.64667E+01    rms(broyden)= 0.64665E+01
  rms(prec ) = 0.67093E+01
  weight for this iteration     100.00

 Free energy of the ion-electron system (eV)
  ---------------------------------------------------
  alpha Z        PSCENC =       298.93079098
  Ewald energy   TEWEN  =     -8779.03240855
  -Hartree energ DENC   =     -2131.13855784
  -exchange      EXHF   =         0.00000000
  -V(xc)+E(xc)   XCENC  =       533.92900180
  PAW double counting   =      8141.38806575    -8271.61346273
  entropy T*S    EENTRO =        -0.00000000
  eigenvalues    EBANDS =     -2737.44049116
  atomic energy  EATOM  =     12703.13999606
  Solvation  Ediel_sol  =         0.00000000
  ---------------------------------------------------
  free energy    TOTEN  =      -241.83706570 eV

  energy without entropy =     -241.83706570  energy(sigma->0) =     -241.83706570


--------------------------------------------------------------------------------------------------------




--------------------------------------- Iteration      1(  11)  ---------------------------------------


    POTLOK:  cpu time      0.0547: real time      0.0591
    SETDIJ:  cpu time      0.4050: real time      0.4186
    EDDIAG:  cpu time      0.2824: real time      0.2869
  RMM-DIIS:  cpu time      0.8810: real time      0.8925
    ORTHCH:  cpu time      0.0534: real time      0.0548
       DOS:  cpu time      0.0005: real time      0.0005
    CHARGE:  cpu time      0.1700: real time      0.4547
    MIXING:  cpu time      0.0010: real time      0.0022
    --------------------------------------------
      LOOP:  cpu time      1.8479: real time      2.1692

 eigenvalue-minimisations  :  2112
 total energy-change (2. order) : 0.6987574E+01  (-0.4909764E+01)
 number of electron     239.9999998 magnetization      16.3701063
 augmentation part        1.6989865 magnetization      16.5548321

 Broyden mixing:
  rms(total) = 0.33136E+01    rms(broyden)= 0.33136E+01
  rms(prec ) = 0.34323E+01
  weight for this iteration     100.00

 eigenvalues of (default mixing * dielectric matrix)
  average eigenvalue GAMMA=   0.7263
  0.7263

 Free energy of the ion-electron system (eV)
  ---------------------------------------------------
  alpha Z        PSCENC =       298.93079098
  Ewald energy   TEWEN  =     -8779.03240855
  -Hartree energ DENC   =     -2180.86598954
  -exchange      EXHF   =         0.00000000
  -V(xc)+E(xc)   XCENC  =       542.52274816
  PAW double counting   =      8930.93044005    -9067.25215112
  entropy T*S    EENTRO =        -0.00000000
  eigenvalues    EBANDS =     -2683.22291771
  atomic energy  EATOM  =     12703.13999606
  Solvation  Ediel_sol  =         0.00000000
  ---------------------------------------------------
  free energy    TOTEN  =      -234.84949166 eV

  energy without entropy =     -234.84949166  energy(sigma->0) =     -234.84949166


--------------------------------------------------------------------------------------------------------




--------------------------------------- Iteration      1(  12)  ---------------------------------------


    POTLOK:  cpu time      0.0518: real time      0.0562
    SETDIJ:  cpu time      0.4021: real time      0.4111
    EDDIAG:  cpu time      0.2804: real time      0.3121
  RMM-DIIS:  cpu time      0.9205: real time      0.9318
    ORTHCH:  cpu time      0.0525: real time      0.0532
       DOS:  cpu time      0.0004: real time      0.0004
    CHARGE:  cpu time      0.1264: real time      0.1582
    MIXING:  cpu time      0.0011: real time      0.0011
    --------------------------------------------
      LOOP:  cpu time      1.8352: real time      1.9240

 eigenvalue-minimisations  :  2218
 total energy-change (2. order) :-0.2074342E+02  (-0.2335260E+01)
 number of electron     239.9999998 magnetization       0.8501524
 augmentation part        1.8025875 magnetization       1.1949090

 Broyden mixing:
  rms(total) = 0.20575E+01    rms(broyden)= 0.20575E+01
  rms(prec ) = 0.21182E+01
  weight for this iteration     100.00

 eigenvalues of (default mixing * dielectric matrix)
  average eigenvalue GAMMA=   1.1217
  1.5751  0.6683

 Free energy of the ion-electron system (eV)
  ---------------------------------------------------
  alpha Z        PSCENC =       298.93079098
  Ewald energy   TEWEN  =     -8779.03240855
  -Hartree energ DENC   =     -2206.43273499
  -exchange      EXHF   =         0.00000000
  -V(xc)+E(xc)   XCENC  =       536.05824634
  PAW double counting   =      9288.59214623    -9428.57609024
  entropy T*S    EENTRO =        -0.00000000
  eigenvalues    EBANDS =     -2668.27285628
  atomic energy  EATOM  =     12703.13999606
  Solvation  Ediel_sol  =         0.00000000
  ---------------------------------------------------
  free energy    TOTEN  =      -255.59291045 eV

  energy without entropy =     -255.59291045  energy(sigma->0) =     -255.59291045


--------------------------------------------------------------------------------------------------------




--------------------------------------- Iteration      1(  13)  ---------------------------------------


    POTLOK:  cpu time      0.0539: real time      0.0549
    SETDIJ:  cpu time      0.4138: real time      0.4155
    EDDIAG:  cpu time      0.2680: real time      0.2703
  RMM-DIIS:  cpu time      0.8948: real time      0.9049
    ORTHCH:  cpu time      0.0519: real time      0.0526
       DOS:  cpu time      0.0005: real time      0.0005
    CHARGE:  cpu time      0.1132: real time      0.1440
    MIXING:  cpu time      0.0011: real time      0.0011
    --------------------------------------------
      LOOP:  cpu time      1.7973: real time      1.8439

 eigenvalue-minimisations  :  2168
 total energy-change (2. order) :-0.2504744E+01  (-0.9071231E+00)
 number of electron     239.9999998 magnetization      -1.8762270
 augmentation part        1.9049790 magnetization      -1.7660066

 Broyden mixing:
  rms(total) = 0.71183E+00    rms(broyden)= 0.71183E+00
  rms(prec ) = 0.74377E+00
  weight for this iteration     100.00

 eigenvalues of (default mixing * dielectric matrix)
  average eigenvalue GAMMA=   1.3027
  2.5151  0.7420  0.6510

 Free energy of the ion-electron system (eV)
  ---------------------------------------------------
  alpha Z        PSCENC =       298.93079098
  Ewald energy   TEWEN  =     -8779.03240855
  -Hartree energ DENC   =     -2234.48794492
  -exchange      EXHF   =         0.00000000
  -V(xc)+E(xc)   XCENC  =       537.51711446
  PAW double counting   =      9780.98384321    -9924.82835298
  entropy T*S    EENTRO =        -0.00000000
  eigenvalues    EBANDS =     -2640.32069296
  atomic energy  EATOM  =     12703.13999606
  Solvation  Ediel_sol  =         0.00000000
  ---------------------------------------------------
  free energy    TOTEN  =      -258.09765470 eV

  energy without entropy =     -258.09765470  energy(sigma->0) =     -258.09765470


--------------------------------------------------------------------------------------------------------




--------------------------------------- Iteration      1(  14)  ---------------------------------------


    POTLOK:  cpu time      0.0531: real time      0.0540
    SETDIJ:  cpu time      0.4137: real time      0.4159
    EDDIAG:  cpu time      0.2683: real time      0.2709
  RMM-DIIS:  cpu time      1.1819: real time      1.1952
    ORTHCH:  cpu time      0.0515: real time      0.0520
       DOS:  cpu time      0.0005: real time      0.0005
    CHARGE:  cpu time      0.1140: real time      0.1308
    MIXING:  cpu time      0.0012: real time      0.0013
    --------------------------------------------
      LOOP:  cpu time      2.0841: real time      2.1206

 eigenvalue-minimisations  :  2827
 total energy-change (2. order) :-0.2036253E+00  (-0.2124022E+00)
 number of electron     239.9999998 magnetization      -0.8264080
 augmentation part        1.8769643 magnetization      -0.8005210

 Broyden mixing:
  rms(total) = 0.32617E+00    rms(broyden)= 0.32617E+00
  rms(prec ) = 0.36416E+00
  weight for this iteration     100.00

 eigenvalues of (default mixing * dielectric matrix)
  average eigenvalue GAMMA=   1.2727
  2.6225  1.1822  0.6911  0.5951

 Free energy of the ion-electron system (eV)
  ---------------------------------------------------
  alpha Z        PSCENC =       298.93079098
  Ewald energy   TEWEN  =     -8779.03240855
  -Hartree energ DENC   =     -2236.58534560
  -exchange      EXHF   =         0.00000000
  -V(xc)+E(xc)   XCENC  =       538.03246143
  PAW double counting   =      9866.82766744   -10011.53975269
  entropy T*S    EENTRO =        -0.00000000
  eigenvalues    EBANDS =     -2638.07468905
  atomic energy  EATOM  =     12703.13999606
  Solvation  Ediel_sol  =         0.00000000
  ---------------------------------------------------
  free energy    TOTEN  =      -258.30127998 eV

  energy without entropy =     -258.30127998  energy(sigma->0) =     -258.30127998


--------------------------------------------------------------------------------------------------------




--------------------------------------- Iteration      1(  15)  ---------------------------------------


    POTLOK:  cpu time      0.0521: real time      0.0545
    SETDIJ:  cpu time      0.4143: real time      0.4163
    EDDIAG:  cpu time      0.2682: real time      0.2701
  RMM-DIIS:  cpu time      0.9450: real time      0.9559
    ORTHCH:  cpu time      0.0508: real time      0.0518
       DOS:  cpu time      0.0005: real time      0.0005
    CHARGE:  cpu time      0.1141: real time      0.1280
    MIXING:  cpu time      0.0014: real time      0.0014
    --------------------------------------------
      LOOP:  cpu time      1.8464: real time      1.8785

 eigenvalue-minimisations  :  2263
 total energy-change (2. order) : 0.4088302E-01  (-0.3528167E-01)
 number of electron     239.9999998 magnetization      -0.2223290
 augmentation part        1.8271724 magnetization      -0.1962562

 Broyden mixing:
  rms(total) = 0.68370E-01    rms(broyden)= 0.68368E-01
  rms(prec ) = 0.81304E-01
  weight for this iteration     100.00

 eigenvalues of (default mixing * dielectric matrix)
  average eigenvalue GAMMA=   1.2726
  2.5347  1.5807  0.9596  0.6861  0.6022

 Free energy of the ion-electron system (eV)
  ---------------------------------------------------
  alpha Z        PSCENC =       298.93079098
  Ewald energy   TEWEN  =     -8779.03240855
  -Hartree energ DENC   =     -2231.58248070
  -exchange      EXHF   =         0.00000000
  -V(xc)+E(xc)   XCENC  =       537.64218764
  PAW double counting   =      9834.66642676    -9979.16872944
  entropy T*S    EENTRO =        -0.00000000
  eigenvalues    EBANDS =     -2642.85617972
  atomic energy  EATOM  =     12703.13999606
  Solvation  Ediel_sol  =         0.00000000
  ---------------------------------------------------
  free energy    TOTEN  =      -258.26039697 eV

  energy without entropy =     -258.26039697  energy(sigma->0) =     -258.26039697


--------------------------------------------------------------------------------------------------------




--------------------------------------- Iteration      1(  16)  ---------------------------------------


    POTLOK:  cpu time      0.0530: real time      0.0541
    SETDIJ:  cpu time      0.4130: real time      0.4144
    EDDIAG:  cpu time      0.2684: real time      0.2703
  RMM-DIIS:  cpu time      0.9635: real time      0.9747
    ORTHCH:  cpu time      0.0506: real time      0.0509
       DOS:  cpu time      0.0006: real time      0.0006
    CHARGE:  cpu time      0.1106: real time      0.1215
    MIXING:  cpu time      0.0014: real time      0.0014
    --------------------------------------------
      LOOP:  cpu time      1.8611: real time      1.8878

 eigenvalue-minimisations  :  2303
 total energy-change (2. order) :-0.2044884E-01  (-0.1152182E-01)
 number of electron     239.9999998 magnetization      -0.1117123
 augmentation part        1.8044586 magnetization      -0.0966809

 Broyden mixing:
  rms(total) = 0.31183E-01    rms(broyden)= 0.31182E-01
  rms(prec ) = 0.37946E-01
  weight for this iteration     100.00

 eigenvalues of (default mixing * dielectric matrix)
  average eigenvalue GAMMA=   1.2459
  2.4454  1.9340  1.0381  0.6198  0.6997  0.7381

 Free energy of the ion-electron system (eV)
  ---------------------------------------------------
  alpha Z        PSCENC =       298.93079098
  Ewald energy   TEWEN  =     -8779.03240855
  -Hartree energ DENC   =     -2231.02461247
  -exchange      EXHF   =         0.00000000
  -V(xc)+E(xc)   XCENC  =       537.56322178
  PAW double counting   =      9823.47707463    -9967.74755727
  entropy T*S    EENTRO =        -0.00000000
  eigenvalues    EBANDS =     -2643.58735096
  atomic energy  EATOM  =     12703.13999606
  Solvation  Ediel_sol  =         0.00000000
[...]
 -0.000   0.000   0.000  -0.003   0.004   0.001  -0.000   0.000   0.000  -0.000   0.000  -0.000   0.000   0.000
 -0.003   0.002   0.000  -0.001   0.001   0.009  -0.000   0.000   0.000  -0.000  -0.000   0.000   0.000  -0.000
 -0.020   0.020   0.000   0.006  -0.007  -0.001   0.000  -0.000  -0.000   0.000   0.000   0.000  -0.000  -0.000
 -0.039   0.040   0.000  -0.001   0.001  -0.008  -0.000   0.000  -0.000   0.000   0.000  -0.000  -0.000   0.000
 -0.023   0.023   0.000   0.001  -0.002   0.007   0.000  -0.000   0.000   0.000  -0.000   0.000  -0.000  -0.000
  0.020  -0.020  -0.000  -0.007   0.006   0.001  -0.000   0.000   0.000  -0.000  -0.000  -0.000   0.000   0.000
  0.039  -0.040  -0.000  -0.002   0.002  -0.012  -0.000   0.000  -0.000  -0.000   0.000  -0.000   0.000   0.000
 total augmentation occupancy for first ion, spin component:           2
  0.000  -0.000  -0.000   0.000  -0.000  -0.000  -0.000   0.000  -0.000  -0.000  -0.000   0.000   0.000  -0.000
 -0.000   0.000   0.000  -0.000   0.000   0.000   0.000  -0.000  -0.000   0.000   0.000  -0.000  -0.000   0.000
 -0.000   0.000   0.000   0.000  -0.000   0.000   0.000  -0.000   0.000   0.000   0.000   0.000  -0.000  -0.000
  0.000  -0.000   0.000  -0.000   0.000   0.000   0.000   0.000   0.000  -0.000   0.000   0.000   0.000   0.000
 -0.000   0.000  -0.000   0.000  -0.000  -0.000   0.000   0.000  -0.000   0.000  -0.000   0.000  -0.000  -0.000
 -0.000   0.000   0.000   0.000  -0.000  -0.000   0.000  -0.000  -0.000   0.000  -0.000   0.000  -0.000  -0.000
 -0.000   0.000   0.000   0.000   0.000   0.000   0.000   0.000  -0.000   0.000   0.000  -0.000  -0.000   0.000
  0.000  -0.000  -0.000   0.000   0.000  -0.000   0.000   0.000   0.000  -0.000  -0.000   0.000   0.000  -0.000
 -0.000  -0.000   0.000   0.000  -0.000  -0.000  -0.000   0.000  -0.000   0.000   0.000   0.000  -0.000  -0.000
 -0.000   0.000   0.000  -0.000   0.000   0.000   0.000  -0.000   0.000   0.000   0.000  -0.000  -0.000   0.000
 -0.000   0.000   0.000   0.000  -0.000  -0.000   0.000  -0.000   0.000   0.000  -0.000  -0.000  -0.000   0.000
  0.000  -0.000   0.000   0.000   0.000   0.000  -0.000   0.000   0.000  -0.000  -0.000   0.000   0.000   0.000
  0.000  -0.000  -0.000   0.000  -0.000  -0.000  -0.000   0.000  -0.000  -0.000  -0.000   0.000   0.000  -0.000
 -0.000   0.000  -0.000   0.000  -0.000  -0.000   0.000  -0.000  -0.000   0.000   0.000   0.000  -0.000   0.000


------------------------ aborting loop because EDIFF is reached ----------------------------------------


    CHARGE:  cpu time      0.1018: real time      0.1099
    FORLOC:  cpu time      0.0038: real time      0.0038
    FORNL :  cpu time      0.3046: real time      0.3073
    STRESS:  cpu time      0.9057: real time      0.9129
    FORCOR:  cpu time      0.0500: real time      0.0505
    FORHAR:  cpu time      0.0088: real time      0.0088
    MIXING:  cpu time      0.0007: real time      0.0008
    OFIELD:  cpu time      0.0000: real time      0.0000

 ---------------------------------------------------------------------------------------------

         DFTD3 V3.0 Rev 1        
 Edisp (eV)  -13.46999

 E6    (eV) :    -8.3012
 E8    (eV) :    -5.1688
 % E8        : 38.37
    FORVDW:  cpu time      0.2953: real time      0.2979

  FORCE on cell =-STRESS in cart. coord.  units (eV):
  Direction    XX          YY          ZZ          XY          YZ          ZX
  --------------------------------------------------------------------------------------
  Alpha Z   298.93079   298.93079   298.93079
  Ewald   -2868.46812 -2955.45126 -2955.45126    12.28522   -52.24449   -12.28522
  Hartree   767.76378   732.87128   732.87128    -3.06784   -35.42919     3.06783
  E(xc)    -947.46398  -947.74138  -947.74137     0.06819    -0.11545    -0.06819
  Local   -1600.53134 -1485.27001 -1485.27000    -6.52835    89.65100     6.52835
  n-local  1481.83718  1481.24847  1481.27652    -0.21206    -0.27380    -0.83475
  augment  -356.45553  -357.11539  -357.11568     0.06328     0.01086    -0.06572
  Kinetic  3235.70467  3248.20705  3248.19311    -3.09560    -0.79526     1.56920
  Fock        0.00000     0.00000     0.00000     0.00000     0.00000     0.00000
  vdW       -14.25465   -14.26647   -14.26647     0.01574     0.02171    -0.01574
  -------------------------------------------------------------------------------------
  Total      -2.93720     1.42001     1.42001     0.81630     0.82552    -0.81630
  in kB      -5.18218     2.50536     2.50536     1.44023     1.45649    -1.44022
  external pressure =       -0.06 kB  Pullay stress =        0.00 kB


 VOLUME and BASIS-vectors are now :
 -----------------------------------------------------------------------------
  energy-cutoff  :      520.00
  volume of cell :      908.09
      direct lattice vectors                 reciprocal lattice vectors
     9.683753663  0.000000000  0.000000000     0.103265741  0.000000000  0.000000000
     0.000000000  9.683753663  0.000000000     0.000000000  0.103265741  0.000000000
     0.000000000  0.000000000  9.683753663     0.000000000  0.000000000  0.103265741

  length of vectors
     9.683753663  9.683753663  9.683753663     0.103265741  0.103265741  0.103265741


 FORCES acting on ions
    electron-ion (+dipol)            ewald-force                    non-local-force                 convergence-correction
 -----------------------------------------------------------------------------------------------
   -.973E+01 0.103E+01 -.103E+01   0.875E+01 -.115E+01 0.115E+01   0.976E+00 0.121E+00 -.121E+00   0.958E-04 -.159E-04 0.159E-04
   -.111E+01 -.366E+01 0.366E+01   0.224E+00 0.389E+01 -.389E+01   0.885E+00 -.234E+00 0.234E+00   0.306E-04 -.525E-05 0.525E-05
   0.146E+01 0.501E+01 0.397E+01   -.797E+00 -.603E+01 -.326E+01   -.661E+00 0.102E+01 -.718E+00   0.671E-04 0.130E-03 -.139E-04
   0.146E+01 -.397E+01 -.501E+01   -.797E+00 0.326E+01 0.603E+01   -.661E+00 0.718E+00 -.102E+01   0.671E-04 0.139E-04 -.130E-03
   0.602E+01 0.394E+01 -.226E+01   -.699E+01 -.470E+01 0.124E+01   0.979E+00 0.761E+00 0.101E+01   0.112E-04 -.301E-04 0.264E-04
   -.450E+01 -.252E+01 0.443E+01   0.562E+01 0.158E+01 -.368E+01   -.111E+01 0.948E+00 -.753E+00   -.426E-04 0.843E-04 -.893E-04
   -.164E+02 0.910E+01 0.373E+01   0.145E+02 -.821E+01 -.303E+01   0.188E+01 -.894E+00 -.695E+00   -.103E-03 0.125E-03 0.423E-05
   -.648E+00 -.125E+02 0.126E+01   -.317E+00 0.116E+02 -.196E+01   0.961E+00 0.860E+00 0.702E+00   0.175E-03 -.151E-04 -.340E-04
   -.672E+01 0.352E+01 -.126E+02   0.529E+01 -.447E+01 0.111E+02   0.143E+01 0.947E+00 0.147E+01   -.662E-04 0.936E-04 -.732E-04
   0.741E+01 -.486E+01 -.524E+01   -.599E+01 0.558E+01 0.427E+01   -.142E+01 -.725E+00 0.974E+00   -.336E-05 -.733E-04 -.353E-04
   0.885E+01 -.495E+00 0.188E+01   -.795E+01 -.167E+00 -.662E+00   -.897E+00 0.658E+00 -.122E+01   0.101E-03 0.836E-04 -.407E-04
   -.231E+01 0.439E+01 0.434E+01   0.292E+01 -.378E+01 -.534E+01   -.610E+00 -.610E+00 0.101E+01   -.113E-03 0.536E-04 0.344E-04
   0.741E+01 0.524E+01 0.486E+01   -.599E+01 -.427E+01 -.558E+01   -.142E+01 -.974E+00 0.725E+00   -.336E-05 0.353E-04 0.733E-04
   -.672E+01 0.126E+02 -.352E+01   0.529E+01 -.111E+02 0.447E+01   0.143E+01 -.147E+01 -.947E+00   -.662E-04 0.732E-04 -.936E-04
   0.885E+01 -.188E+01 0.495E+00   -.795E+01 0.662E+00 0.167E+00   -.897E+00 0.122E+01 -.658E+00   0.101E-03 0.407E-04 -.836E-04
   -.231E+01 -.434E+01 -.439E+01   0.292E+01 0.534E+01 0.378E+01   -.610E+00 -.101E+01 0.610E+00   -.113E-03 -.344E-04 -.536E-04
   -.450E+01 -.443E+01 0.252E+01   0.562E+01 0.368E+01 -.158E+01   -.111E+01 0.753E+00 -.948E+00   -.426E-04 0.893E-04 -.843E-04
   0.602E+01 0.226E+01 -.394E+01   -.699E+01 -.124E+01 0.470E+01   0.979E+00 -.101E+01 -.761E+00   0.112E-04 -.264E-04 0.301E-04
   -.164E+02 -.373E+01 -.910E+01   0.145E+02 0.303E+01 0.821E+01   0.188E+01 0.695E+00 0.894E+00   -.103E-03 -.422E-05 -.125E-03
   -.648E+00 -.126E+01 0.125E+02   -.317E+00 0.196E+01 -.116E+02   0.961E+00 -.702E+00 -.860E+00   0.175E-03 0.340E-04 0.151E-04
   -.316E+01 -.865E+01 -.500E-01   0.267E+01 0.758E+01 -.116E+01   0.482E+00 0.107E+01 0.122E+01   -.162E-04 -.201E-05 0.364E-04
   -.316E+01 0.500E-01 0.865E+01   0.267E+01 0.116E+01 -.758E+01   0.482E+00 -.122E+01 -.107E+01   -.162E-04 -.364E-04 0.201E-05
   -.706E+01 -.257E+01 0.257E+01   0.779E+01 0.175E+01 -.175E+01   -.739E+00 0.817E+00 -.817E+00   -.421E-04 -.601E-04 0.601E-04
   0.262E+02 0.142E+01 -.142E+01   -.252E+02 -.263E+00 0.263E+00   -.915E+00 -.115E+01 0.115E+01   0.549E-04 -.860E-04 0.860E-04
   0.526E+01 -.306E+01 -.434E+01   -.614E+01 0.388E+01 0.480E+01   0.883E+00 -.814E+00 -.460E+00   -.539E-04 -.199E-03 -.989E-04
   0.526E+01 0.434E+01 0.306E+01   -.614E+01 -.480E+01 -.388E+01   0.883E+00 0.460E+00 0.814E+00   -.539E-04 0.989E-04 0.199E-03
   -.505E+01 0.793E+01 -.793E+01   0.484E+01 -.747E+01 0.747E+01   0.205E+00 -.465E+00 0.465E+00   0.520E-04 0.112E-03 -.112E-03
   0.864E+00 -.479E+01 0.479E+01   -.642E+00 0.453E+01 -.453E+01   -.212E+00 0.266E+00 -.266E+00   -.757E-06 -.141E-03 0.141E-03
   -.680E+02 0.275E+02 -.275E+02   0.720E+02 -.296E+02 0.296E+02   -.397E+01 0.211E+01 -.211E+01   -.488E-04 -.190E-03 0.190E-03
   -.396E+02 -.418E+02 0.418E+02   0.426E+02 0.448E+02 -.448E+02   -.295E+01 -.300E+01 0.300E+01   0.409E-03 0.507E-04 -.507E-04
   0.288E+02 0.543E+02 0.341E+02   -.315E+02 -.584E+02 -.368E+02   0.272E+01 0.412E+01 0.265E+01   0.489E-04 0.923E-05 0.273E-03
   0.288E+02 -.341E+02 -.543E+02   -.315E+02 0.368E+02 0.584E+02   0.272E+01 -.265E+01 -.412E+01   0.489E-04 -.273E-03 -.924E-05
   0.414E+02 -.289E+02 -.560E+02   -.448E+02 0.313E+02 0.591E+02   0.342E+01 -.240E+01 -.308E+01   -.509E-05 0.105E-03 -.114E-03
   0.414E+02 0.560E+02 0.289E+02   -.448E+02 -.591E+02 -.313E+02   0.342E+01 0.308E+01 0.240E+01   -.509E-05 0.114E-03 -.105E-03
   -.700E+02 -.287E+02 0.287E+02   0.741E+02 0.315E+02 -.315E+02   -.414E+01 -.280E+01 0.280E+01   -.158E-03 0.140E-03 -.140E-03
   -.182E+02 0.483E+02 -.483E+02   0.211E+02 -.517E+02 0.517E+02   -.287E+01 0.341E+01 -.341E+01   0.112E-03 0.988E-04 -.988E-04
   -.424E+02 -.431E+02 0.349E+02   0.455E+02 0.463E+02 -.374E+02   -.311E+01 -.328E+01 0.253E+01   0.104E-03 0.162E-03 0.277E-03
   -.295E+02 0.439E+02 -.322E+02   0.325E+02 -.472E+02 0.349E+02   -.292E+01 0.331E+01 -.270E+01   -.427E-04 0.124E-03 0.239E-04
   0.563E+02 -.214E+02 -.451E+02   -.594E+02 0.235E+02 0.486E+02   0.314E+01 -.210E+01 -.353E+01   0.117E-04 0.146E-03 0.260E-03
   0.143E+02 0.602E+02 0.724E+02   -.154E+02 -.634E+02 -.769E+02   0.108E+01 0.321E+01 0.451E+01   -.427E-03 0.626E-04 0.260E-03
   -.424E+02 -.349E+02 0.431E+02   0.455E+02 0.374E+02 -.463E+02   -.311E+01 -.253E+01 0.328E+01   0.104E-03 -.277E-03 -.162E-03
   -.295E+02 0.322E+02 -.439E+02   0.325E+02 -.349E+02 0.472E+02   -.292E+01 0.270E+01 -.331E+01   -.427E-04 -.239E-04 -.124E-03
   0.143E+02 -.724E+02 -.602E+02   -.154E+02 0.769E+02 0.634E+02   0.108E+01 -.451E+01 -.321E+01   -.427E-03 -.260E-03 -.626E-04
   0.563E+02 0.451E+02 0.214E+02   -.594E+02 -.486E+02 -.235E+02   0.314E+01 0.353E+01 0.210E+01   0.117E-04 -.260E-03 -.146E-03
   0.355E+02 -.350E+01 0.350E+01   -.363E+02 0.340E+01 -.340E+01   0.867E+00 0.952E-01 -.952E-01   0.629E-03 0.447E-04 -.447E-04
   -.284E+01 -.104E+02 0.104E+02   0.236E+01 0.108E+02 -.108E+02   0.495E+00 -.383E+00 0.383E+00   -.550E-03 0.203E-03 -.203E-03
   0.202E+01 -.462E+01 -.133E+02   -.203E+01 0.481E+01 0.136E+02   0.153E-01 -.192E+00 -.309E+00   -.139E-03 0.404E-04 -.352E-04
   0.202E+01 0.133E+02 0.462E+01   -.203E+01 -.136E+02 -.481E+01   0.153E-01 0.309E+00 0.192E+00   -.139E-03 0.352E-04 -.404E-04
   -.565E+01 -.462E+02 -.487E+01   0.588E+01 0.472E+02 0.501E+01   -.233E+00 -.967E+00 -.132E+00   0.178E-03 -.711E-03 -.126E-03
   -.565E+01 0.487E+01 0.462E+02   0.588E+01 -.501E+01 -.472E+02   -.233E+00 0.132E+00 0.967E+00   0.178E-03 0.126E-03 0.711E-03
   0.411E+02 0.147E+02 -.147E+02   -.417E+02 -.148E+02 0.148E+02   0.611E+00 0.156E+00 -.156E+00   0.427E-03 0.379E-03 -.379E-03
   -.341E+01 -.295E+02 0.295E+02   0.302E+01 0.299E+02 -.299E+02   0.388E+00 -.413E+00 0.413E+00   0.212E-03 -.134E-03 0.134E-03
 -----------------------------------------------------------------------------------------------
   -.654E+00 -.976E+00 0.976E+00   -.533E-13 0.533E-13 0.568E-13   0.674E+00 0.980E+00 -.980E+00   0.594E-03 0.490E-04 -.490E-04
 
 
 POSITION                                       TOTAL-FORCE (eV/Angst)
 -----------------------------------------------------------------------------------
      9.52885      2.18146      2.65911        -0.000182     -0.000167      0.000167
      9.46639      7.28678      7.23755        -0.000144     -0.000031      0.000031
      0.23207      2.87052      6.61288        -0.000048      0.000009     -0.000382
      0.23207      7.91145      1.97005        -0.000048      0.000382     -0.000009
      2.62023      2.75237      9.57758         0.000139      0.000315     -0.000035
      2.17195      7.79627      0.14809         0.000165      0.000369     -0.000109
      8.04721      1.83928      0.25593         0.000830     -0.000162     -0.000034
      7.86443      8.15663      9.33663        -0.000086      0.000389     -0.000124
      3.24808      9.22096      3.14531         0.000248     -0.000146      0.000302
      1.79327      0.32627      7.91408        -0.000206      0.000168      0.000119
      6.41063      9.42991      6.94440        -0.000990     -0.000038      0.000103
      6.82586      0.13038      2.86179         0.000149     -0.000151      0.000125
      1.79327      6.61025      4.51431        -0.000206     -0.000119     -0.000168
      3.24808      1.69526      5.30337         0.000248     -0.000302      0.000146
      6.41063      7.57993      5.09442        -0.000990     -0.000103      0.000038
      6.82586      1.97879      4.71019         0.000149     -0.000125      0.000151
      2.17195      4.69249      6.72805         0.000165      0.000109     -0.000369
      2.62023      4.94675      2.08821         0.000139      0.000035     -0.000315
      8.04721      4.58464      3.00129         0.000830      0.000034      0.000162
      7.86443      5.18770      6.36770        -0.000086      0.000124     -0.000389
      4.63949      3.10745      7.85530         0.000003      0.000224      0.000224
      4.63949      6.66903      1.73313         0.000003     -0.000224     -0.000224
      5.18911      2.97400      1.86658        -0.000163      0.000013     -0.000013
      6.57751      5.60793      8.91640         0.000091     -0.000072      0.000072
      4.83016      4.83434      4.78861         0.000177     -0.000005     -0.000043
      4.83016      0.05196      0.00624         0.000177      0.000043      0.000005
      9.61066      4.89530      9.62903         0.000058      0.000063     -0.000063
      0.05962      9.56389      4.96044        -0.000261     -0.000267      0.000267
      1.36442      8.44728      6.07705        -0.000010      0.000001     -0.000001
      1.35966      1.01108      3.82949        -0.000517     -0.000363      0.000363
      8.53266      8.35677      3.81970         0.000348      0.000125      0.000670
      8.53266      1.02087      6.16756         0.000348     -0.000670     -0.000125
      8.39648      6.11487      1.06660         0.000396     -0.000236     -0.000423
      8.39648      3.77398      8.40946         0.000396      0.000423      0.000236
      1.26370      5.98572      8.53861        -0.000217     -0.000282      0.000282
      0.93553      3.62469      1.21589        -0.000358      0.000358     -0.000358
      6.07801      1.33532      8.66671        -0.000305     -0.000328      0.000454
      6.02488      8.47078      1.12845        -0.000398      0.000357     -0.000307
      3.64688      1.11925      1.30162        -0.000038     -0.000436     -0.000498
      3.79018      8.63994      8.34258         0.000642      0.000410      0.000047
      6.07801      5.85762      3.50526        -0.000305     -0.000454      0.000328
      6.02488      3.71213      6.05355        -0.000398      0.000307     -0.000357
      3.79018      6.18175      5.88439         0.000642     -0.000047     -0.000410
      3.64688      3.53895      3.72133        -0.000038      0.000498      0.000436
      7.20343      7.23193      7.29240        -0.000177     -0.000002      0.000002
      7.33250      2.36650      2.47407         0.000063     -0.000097      0.000097
      2.43794      7.19820      2.35366         0.000025      0.000009     -0.000106
      2.43794      2.48692      7.32613         0.000025      0.000106     -0.000009
      0.11165      9.48493      0.05171        -0.000045      0.000060      0.000064
      0.11165      4.78886      5.03940        -0.000045     -0.000064     -0.000060
      5.17761      0.06900      4.77157        -0.000106      0.000017     -0.000017
      4.57064      4.63908      0.20149        -0.000088     -0.000060      0.000060
 -----------------------------------------------------------------------------------
    total drift:                                0.020181      0.004792     -0.004811


--------------------------------------------------------------------------------------------------------



  FREE ENERGIE OF THE ION-ELECTRON SYSTEM (eV)
  ---------------------------------------------------
  free  energy   TOTEN  =      -271.75877115 eV

  energy  without entropy=     -271.75877115  energy(sigma->0) =     -271.75877115
 
 d Force = 0.1177108E-05[ 0.641E-06, 0.171E-05]  d Energy = 0.1710371E-05-0.533E-06
 d Force = 0.1073457E-01[ 0.107E-01, 0.107E-01]  d Ewald  = 0.1073457E-01-0.491E-10


--------------------------------------------------------------------------------------------------------


    POTLOK:  cpu time      0.4684: real time      0.4702


--------------------------------------------------------------------------------------------------------


 stress matrix after NEB project (eV)
     -2.93720      0.81630     -0.81630
      0.81630      1.42001      0.82552
     -0.81630      0.82552      1.42001
  FORCES: max atom, RMS     0.000996    0.000495
  FORCE total and by dimension    0.003571    0.000990
  Stress total and by dimension    4.085135    2.937199
 Conjugate gradient step on ions:
 trial-energy change:   -0.000002  1 .order   -0.000001   -0.000002   -0.000001
  (g-gl).g = 0.130E-05      g.g   = 0.122E-05  gl.gl    = 0.452E-05
 g(Force)  = 0.122E-05   g(Stress)= 0.000E+00 ortho     =-0.788E-07
 gamma     =   0.28714
 trial     =   1.43208
 opt step  =   2.28715  (harmonic =   2.28715) maximal distance =0.00010450
 next E    =  -271.758771   (d E  =  -0.00000)


--------------------------------------------------------------------------------------------------------


  
 reached required accuracy - stopping structural energy minimisation
     LOOP+:  cpu time      6.2576: real time      6.3540
    4ORBIT:  cpu time      0.0000: real time      0.0000

 total amount of memory used by VASP MPI-rank0    46945. kBytes
=======================================================================

   base      :      30000. kBytes
   nonlr-proj:       6462. kBytes
   fftplans  :       1747. kBytes
   grid      :       5278. kBytes
   one-center:         62. kBytes
   wavefun   :       3396. kBytes
 
  
  
 General timing and accounting informations for this job:
 ========================================================
  
                  Total CPU time used (sec):       94.712
                            User time (sec):       93.224
                          System time (sec):        1.489
                         Elapsed time (sec):       99.240
  
                   Maximum memory used (kb):      393292.
                   Average memory used (kb):          N/A
  
                          Minor page faults:        69409
                          Major page faults:          132
                 Voluntary context switches:         8985
