<?xml version="1.0" encoding="ISO-8859-1"?>
<modeling>
 <generator>
  <i name="program" type="string">vasp </i>
  <i name="version" type="string">6.4.1  </i>
  <i name="subversion" type="string">05Apr23 (build Jun 07 2023 15:38:11) complex                          parallel </i>
  <i name="platform" type="string">LinuxIFC </i>
  <i name="date" type="string">2023 10 16 </i>
  <i name="time" type="string">22:19:37 </i>
 </generator>
 <incar>
  <i type="string" name="PREC">Accu</i>
  <i type="string" name="ALGO">F</i>
  <i type="logical" name="LDIAG"> T  </i>
  <i type="int" name="ISPIN">     2</i>
  <i type="int" name="NELM">   100</i>
  <i type="int" name="NELMDL">   -10</i>
  <i type="int" name="IBRION">     2</i>
  <i name="EDIFF">      0.00000100</i>
  <i name="EDIFFG">     -0.00100000</i>
  <i type="int" name="NSW">  1000</i>
  <i type="int" name="ISIF">     2</i>
  <i name="ENCUT">    520.00000000</i>
  <i name="POTIM">      0.20000000</i>
  <i type="string" name="LREAL">Auto</i>
  <i type="logical" name="LPLANE"> T  </i>
  <i type="int" name="ISMEAR">     0</i>
  <i name="SIGMA">      0.03000000</i>
  <i type="int" name="LMAXMIX">     4</i>
  <i type="logical" name="LWAVE"> F  </i>
  <i type="logical" name="LCHARG"> F  </i>
  <i type="logical" name="LASPH"> T  </i>
  <i type="string" name="GGA">PE</i>
  <i type="int" name="IVDW">    12</i>
 </incar>
 <primitive_cell>
  <structure name="primitive_cell" >
   <crystal>
    <varray name="basis" >
     <v>       9.68375366       0.00000000       0.00000000 </v>
     <v>       0.00000000       9.68375366       0.00000000 </v>
     <v>       0.00000000       0.00000000       9.68375366 </v>
    </varray>
    <i name="volume">    908.09482285 </i>
    <varray name="rec_basis" >
     <v>       0.10326574       0.00000000       0.00000000 </v>
     <v>       0.00000000       0.10326574       0.00000000 </v>
     <v>       0.00000000       0.00000000       0.10326574 </v>
    </varray>
   </crystal>
   <varray name="positions" >
    <v>       0.98400459       0.22527484       0.27459076 </v>
    <v>       0.97755476       0.75247544       0.74739015 </v>
    <v>       0.02396650       0.29642500       0.68289228 </v>
    <v>       0.02396650       0.81697331       0.20344059 </v>
    <v>       0.27057429       0.28421798       0.98903398 </v>
    <v>       0.22428473       0.80507930       0.01529655 </v>
    <v>       0.83098090       0.18993937       0.02643017 </v>
    <v>       0.81212729       0.84229250       0.96415609 </v>
    <v>       0.33540849       0.95221139       0.32479463 </v>
    <v>       0.18518970       0.03369096       0.81724938 </v>
    <v>       0.66202366       0.97378716       0.71711751 </v>
    <v>       0.70487479       0.01346800       0.29552016 </v>
    <v>       0.18518970       0.68261621       0.46617463 </v>
    <v>       0.33540849       0.17507097       0.54765420 </v>
    <v>       0.66202366       0.78274808       0.52607843 </v>
    <v>       0.70487479       0.20434543       0.48639760 </v>
    <v>       0.22428473       0.48456904       0.69478629 </v>
    <v>       0.27057429       0.51083162       0.21564761 </v>
    <v>       0.83098090       0.47343542       0.30992622 </v>
    <v>       0.81212729       0.53570951       0.65757309 </v>
    <v>       0.47909962       0.32088743       0.81117645 </v>
    <v>       0.47909962       0.68868914       0.17897816 </v>
    <v>       0.53586105       0.30711140       0.19275420 </v>
    <v>       0.67922994       0.57910988       0.92075571 </v>
    <v>       0.49878815       0.49921605       0.49449734 </v>
    <v>       0.49878815       0.00536825       0.00064954 </v>
    <v>       0.99245106       0.50551696       0.99434864 </v>
    <v>       0.00616049       0.98762675       0.51223885 </v>
    <v>       0.14088168       0.87232624       0.62753936 </v>
    <v>       0.14039932       0.10440376       0.39546183 </v>
    <v>       0.88114275       0.86299017       0.39444520 </v>
    <v>       0.88114275       0.10542039       0.63687543 </v>
    <v>       0.86707848       0.63144134       0.11013474 </v>
    <v>       0.86707848       0.38973086       0.86842425 </v>
    <v>       0.13047940       0.61811277       0.88175283 </v>
    <v>       0.09660300       0.37431983       0.12554576 </v>
    <v>       0.62763468       0.13787586       0.89497600 </v>
    <v>       0.62215502       0.87475516       0.11651740 </v>
    <v>       0.37661559       0.11557790       0.13440568 </v>
    <v>       0.39139651       0.89221917       0.86152477 </v>
    <v>       0.62763468       0.60488959       0.36198974 </v>
    <v>       0.62215502       0.38334819       0.62511043 </v>
    <v>       0.39139651       0.63834083       0.60764642 </v>
    <v>       0.37661559       0.36545992       0.38428770 </v>
    <v>       0.74387555       0.74681109       0.75305451 </v>
    <v>       0.75719720       0.24437851       0.25548709 </v>
    <v>       0.25175479       0.74332547       0.24305294 </v>
    <v>       0.25175479       0.25681266       0.75654012 </v>
    <v>       0.01152606       0.97944687       0.00533832 </v>
    <v>       0.01152606       0.49452728       0.52041872 </v>
    <v>       0.53468622       0.00712732       0.49273828 </v>
    <v>       0.47199412       0.47905286       0.02081274 </v>
   </varray>
  </structure>
  <varray name="primitive_index" >
   <v type="int" >        1 </v>
   <v type="int" >        2 </v>
   <v type="int" >        3 </v>
   <v type="int" >        4 </v>
   <v type="int" >        5 </v>
   <v type="int" >        6 </v>
   <v type="int" >        7 </v>
   <v type="int" >        8 </v>
   <v type="int" >        9 </v>
   <v type="int" >       10 </v>
   <v type="int" >       11 </v>
   <v type="int" >       12 </v>
   <v type="int" >       13 </v>
   <v type="int" >       14 </v>
   <v type="int" >       15 </v>
   <v type="int" >       16 </v>
   <v type="int" >       17 </v>
   <v type="int" >       18 </v>
   <v type="int" >       19 </v>
   <v type="int" >       20 </v>
   <v type="int" >       21 </v>
   <v type="int" >       22 </v>
   <v type="int" >       23 </v>
   <v type="int" >       24 </v>
   <v type="int" >       25 </v>
   <v type="int" >       26 </v>
   <v type="int" >       27 </v>
   <v type="int" >       28 </v>
   <v type="int" >       29 </v>
   <v type="int" >       30 </v>
   <v type="int" >       31 </v>
   <v type="int" >       32 </v>
   <v type="int" >       33 </v>
   <v type="int" >       34 </v>
   <v type="int" >       35 </v>
   <v type="int" >       36 </v>
   <v type="int" >       37 </v>
   <v type="int" >       38 </v>
   <v type="int" >       39 </v>
   <v type="int" >       40 </v>
   <v type="int" >       41 </v>
   <v type="int" >       42 </v>
   <v type="int" >       43 </v>
   <v type="int" >       44 </v>
   <v type="int" >       45 </v>
   <v type="int" >       46 </v>
   <v type="int" >       47 </v>
   <v type="int" >       48 </v>
   <v type="int" >       49 </v>
   <v type="int" >       50 </v>
   <v type="int" >       51 </v>
   <v type="int" >       52 </v>
  </varray>
 </primitive_cell>
 <kpoints>
  <generation param="Monkhorst-Pack">
   <v type="int" name="divisions">       2        2        2 </v>
   <v name="usershift">      0.00000000       0.00000000       0.00000000 </v>
   <v name="genvec1">      0.50000000       0.00000000       0.00000000 </v>
   <v name="genvec2">      0.00000000       0.50000000       0.00000000 </v>
   <v name="genvec3">      0.00000000       0.00000000       0.50000000 </v>
   <v name="shift">      0.50000000       0.50000000       0.50000000 </v>
  </generation>
  <varray name="kpointlist" >
   <v>       0.25000000       0.25000000       0.25000000 </v>
   <v>      -0.25000000      -0.25000000       0.25000000 </v>
   <v>       0.25000000      -0.25000000       0.25000000 </v>
  </varray>
  <varray name="weights" >
   <v>       0.50000000 </v>
   <v>       0.25000000 </v>
   <v>       0.25000000 </v>
  </varray>
 </kpoints>
 <parameters>
  <separator name="general" >
   <i type="string" name="SYSTEM">unknown system</i>
   <i type="logical" name="LCOMPAT"> F  </i>
  </separator>
  <separator name="electronic" >
   <i type="string" name="PREC">accu</i>
   <i name="ENMAX">    520.00000000</i>
   <i name="ENAUG">   1041.69900000</i>
   <i name="EDIFF">      0.00000100</i>
   <i type="int" name="IALGO">    68</i>
   <i type="int" name="IWAVPR">    11</i>
   <i type="int" name="NBANDS">   176</i>
   <i type="int" name="NBANDSLOW">    -1</i>
   <i type="int" name="NBANDSHIGH">    -1</i>
   <i name="NELECT">    240.00000000</i>
   <i type="int" name="TURBO">     0</i>
   <i type="int" name="IRESTART">     0</i>
   <i type="int" name="NREBOOT">     0</i>
   <i type="int" name="NMIN">     0</i>
   <i name="EREF">      0.00000000</i>
   <separator name="electronic smearing" >
    <i type="int" name="ISMEAR">     0</i>
    <i name="SIGMA">      0.03000000</i>
    <i name="KSPACING">      0.50000000</i>
    <i type="logical" name="KGAMMA"> T  </i>
    <i type="logical" name="KBLOWUP"> T  </i>
   </separator>
   <separator name="electronic projectors" >
    <i type="logical" name="LREAL"> T  </i>
    <v name="ROPT">     -0.00025000     -0.00025000     -0.00025000     -0.00025000</v>
    <i type="int" name="LMAXPAW">  -100</i>
    <i type="int" name="LMAXMIX">     4</i>
    <i type="logical" name="NLSPLINE"> F  </i>
   </separator>
   <separator name="electronic startup" >
    <i type="int" name="ISTART">     0</i>
    <i type="int" name="ICHARG">     2</i>
    <i type="int" name="INIWAV">     1</i>
   </separator>
   <separator name="electronic spin" >
    <i type="int" name="ISPIN">     2</i>
    <i type="logical" name="LNONCOLLINEAR"> F  </i>
    <v name="MAGMOM">      1.00000000      1.00000000      1.00000000      1.00000000      1.00000000      1.00000000      1.00000000      1.00000000      1.00000000      1.00000000      1.00000000      1.00000000      1.00000000      1.00000000      1.00000000      1.00000000      1.00000000      1.00000000      1.00000000      1.00000000
      1.00000000      1.00000000      1.00000000      1.00000000      1.00000000      1.00000000      1.00000000      1.00000000      1.00000000      1.00000000      1.00000000      1.00000000      1.00000000      1.00000000      1.00000000      1.00000000      1.00000000      1.00000000      1.00000000      1.00000000
      1.00000000      1.00000000      1.00000000      1.00000000      1.00000000      1.00000000      1.00000000      1.00000000      1.00000000      1.00000000      1.00000000      1.00000000</v>
    <i name="NUPDOWN">     -1.00000000</i>
    <i type="logical" name="LSORBIT"> F  </i>
    <v name="SAXIS">      0.00000000      0.00000000      1.00000000</v>
    <i type="logical" name="LSPIRAL"> F  </i>
    <v name="QSPIRAL">      0.00000000      0.00000000      0.00000000</v>
    <i type="logical" name="LZEROZ"> F  </i>
   </separator>
   <separator name="electronic exchange-correlation" >
    <i type="logical" name="LASPH"> T  </i>
    <i type="logical" name="LMETAGGA"> F  </i>
   </separator>
   <separator name="electronic convergence" >
    <i type="int" name="NELM">   100</i>
    <i type="int" name="NELMDL">   -10</i>
    <i type="int" name="NELMIN">     2</i>
    <i name="ENINI">    520.00000000</i>
    <separator name="electronic convergence detail" >
     <i type="logical" name="LDIAG"> T  </i>
     <i type="logical" name="LSUBROT"> F  </i>
     <i name="WEIMIN">      0.00100000</i>
     <i name="EBREAK">      0.00000000</i>
     <i name="DEPER">      0.30000000</i>
     <i type="int" name="NRMM">     4</i>
     <i name="TIME">      0.40000000</i>
    </separator>
   </separator>
   <separator name="electronic mixer" >
    <i name="AMIX">      0.40000000</i>
    <i name="BMIX">      1.00000000</i>
    <i name="AMIN">      0.10000000</i>
    <i name="AMIX_MAG">      1.60000000</i>
    <i name="BMIX_MAG">      1.00000000</i>
    <separator name="electronic mixer details" >
     <i type="int" name="IMIX">     4</i>
     <i type="logical" name="MIXFIRST"> F  </i>
     <i type="int" name="MAXMIX">   -45</i>
     <i name="WC">    100.00000000</i>
     <i type="int" name="INIMIX">     1</i>
     <i type="int" name="MIXPRE">     1</i>
     <i type="int" name="MREMOVE">     5</i>
    </separator>
   </separator>
   <separator name="electronic dipolcorrection" >
    <i type="logical" name="LDIPOL"> F  </i>
    <i type="logical" name="LMONO"> F  </i>
    <i type="int" name="IDIPOL">     0</i>
    <i name="EPSILON">      1.00000000</i>
    <v name="DIPOL">   -100.00000000   -100.00000000   -100.00000000</v>
    <i name="EFIELD">      0.00000000</i>
   </separator>
  </separator>
  <separator name="grids" >
   <i type="int" name="NGX">    72</i>
   <i type="int" name="NGY">    72</i>
   <i type="int" name="NGZ">    72</i>
   <i type="int" name="NGXF">   144</i>
   <i type="int" name="NGYF">   144</i>
   <i type="int" name="NGZF">   144</i>
   <i type="logical" name="ADDGRID"> F  </i>
  </separator>
  <separator name="ionic" >
   <i type="int" name="NSW">  1000</i>
   <i type="int" name="IBRION">     2</i>
   <i type="int" name="MDALGO">     0</i>
   <i type="int" name="ISIF">     2</i>
   <i name="PSTRESS">      0.00000000</i>
   <i name="EDIFFG">     -0.00100000</i>
   <i type="int" name="NFREE">     1</i>
   <i name="POTIM">      0.20000000</i>
   <i name="SMASS">     -3.00000000</i>
   <i name="SCALEE">      1.00000000</i>
  </separator>
  <separator name="ionic md" >
   <i name="TEBEG">      0.00010000</i>
   <i name="TEEND">      0.00010000</i>
   <i type="int" name="NBLOCK">     1</i>
   <i type="int" name="KBLOCK">  1000</i>
   <i type="int" name="NPACO">   256</i>
   <i name="APACO">     10.00000000</i>
  </separator>
  <separator name="symmetry" >
   <i type="int" name="ISYM">     2</i>
   <i name="SYMPREC">      0.00001000</i>
  </separator>
  <separator name="dos" >
   <i type="int" name="LORBIT">     0</i>
   <v name="RWIGS">     -1.00000000     -1.00000000     -1.00000000     -1.00000000</v>
   <i type="int" name="NEDOS">   301</i>
   <i name="EMIN">     10.00000000</i>
   <i name="EMAX">    -10.00000000</i>
   <i name="EFERMI">      0.00000000</i>
  </separator>
  <separator name="writing" >
   <i type="int" name="NWRITE">     2</i>
   <i type="logical" name="LWAVE"> F  </i>
   <i type="logical" name="LDOWNSAMPLE"> F  </i>
   <i type="logical" name="LCHARG"> F  </i>
   <i type="logical" name="LPARD"> F  </i>
   <i type="logical" name="LVTOT"> F  </i>
   <i type="logical" name="LVHAR"> F  </i>
   <i type="logical" name="LELF"> F  </i>
   <i type="logical" name="LOPTICS"> F  </i>
   <v name="STM">      0.00000000      0.00000000      0.00000000      0.00000000      0.00000000      0.00000000      0.00000000</v>
  </separator>
  <separator name="performance" >
   <i type="int" name="NPAR">     4</i>
   <i type="int" name="NSIM">     4</i>
   <i type="int" name="NBLK">    -1</i>
   <i type="logical" name="LPLANE"> T  </i>
   <i type="logical" name="LSCALAPACK"> T  </i>
   <i type="logical" name="LSCAAWARE"> F  </i>
   <i type="logical" name="LSCALU"> F  </i>
   <i type="logical" name="LASYNC"> F  </i>
   <i type="logical" name="LORBITALREAL"> F  </i>
  </separator>
  <separator name="miscellaneous" >
   <i type="int" name="IDIOT">     3</i>
   <i type="int" name="PHON_NSTRUCT">    -1</i>
   <i type="logical" name="LMUSIC"> F  </i>
   <v name="POMASS">      7.01000000     30.97400000     32.06600000     35.45300000</v>
   <v name="DARWINR">      0.00000000      0.00000000      0.00000000      0.00000000</v>
   <v name="DARWINV">      1.00000000      1.00000000      1.00000000      1.00000000</v>
   <i type="logical" name="LCORR"> T  </i>
  </separator>
  <i type="logical" name="GGA_COMPAT"> T  </i>
  <i type="logical" name="LBERRY"> F  </i>
  <i type="int" name="ICORELEVEL">     0</i>
  <i type="logical" name="LDAU"> F  </i>
  <i type="int" name="I_CONSTRAINED_M">     0</i>
  <separator name="electronic exchange-correlation" >
   <i type="string" name="GGA">PE</i>
   <i type="int" name="VOSKOWN">     0</i>
   <i type="logical" name="LHFCALC"> F  </i>
   <i type="string" name="PRECFOCK"></i>
   <i type="logical" name="LSYMGRAD"> F  </i>
   <i type="logical" name="LHFONE"> F  </i>
   <i type="logical" name="LRHFCALC"> F  </i>
   <i type="logical" name="LTHOMAS"> F  </i>
   <i type="logical" name="LMODELHF"> F  </i>
   <i type="logical" name="LFOCKACE"> F  </i>
   <i name="ENCUT4O">     -1.00000000</i>
   <i type="int" name="EXXOEP">     0</i>
   <i type="int" name="FOURORBIT">     0</i>
   <i name="AEXX">      0.00000000</i>
   <i name="HFALPHA">      0.00000000</i>
   <i name="MCALPHA">      0.00000000</i>
   <i name="ALDAX">      1.00000000</i>
   <i name="AGGAX">      1.00000000</i>
   <i name="ALDAC">      1.00000000</i>
   <i name="AGGAC">      1.00000000</i>
   <i type="int" name="NKREDX">     1</i>
   <i type="int" name="NKREDY">     1</i>
   <i type="int" name="NKREDZ">     1</i>
   <i type="logical" name="SHIFTRED"> F  </i>
   <i type="logical" name="ODDONLY"> F  </i>
   <i type="logical" name="EVENONLY"> F  </i>
   <i type="int" name="LMAXFOCK">     0</i>
   <i type="int" name="NMAXFOCKAE">     0</i>
   <i type="logical" name="LFOCKAEDFT"> F  </i>
   <i name="HFSCREEN">      0.00000000</i>
   <i name="HFSCREENC">      0.00000000</i>
   <i type="int" name="NBANDSGWLOW">     0</i>
  </separator>
  <separator name="vdW DFT" >
   <i type="logical" name="LUSE_VDW"> F  </i>
   <i type="int" name="IVDW_NL">     1</i>
   <i type="logical" name="LSPIN_VDW"> F  </i>
   <i name="Zab_VDW">     -0.84910000</i>
   <i name="PARAM1">      0.12340000</i>
   <i name="PARAM2">      1.00000000</i>
   <i name="PARAM3">      0.00000000</i>
  </separator>
  <separator name="model GW" >
   <i type="int" name="MODEL_GW">     0</i>
   <i name="MODEL_EPS0">     10.47801719</i>
   <i name="MODEL_ALPHA">      1.00000000</i>
  </separator>
  <separator name="linear response parameters" >
   <i type="logical" name="LEPSILON"> F  </i>
   <i type="logical" name="LRPA"> F  </i>
   <i type="logical" name="LNABLA"> F  </i>
   <i type="logical" name="LVEL"> F  </i>
   <i name="CSHIFT">      0.10000000</i>
   <i name="OMEGAMAX">     -1.00000000</i>
   <i name="DEG_THRESHOLD">      0.00200000</i>
   <i name="RTIME">     -0.10000000</i>
   <i name="WPLASMAI">      0.00000000</i>
   <v name="DFIELD">      0.00000000      0.00000000      0.00000000</v>
   <v name="WPLASMA">      0.00000000      0.00000000      0.00000000      0.00000000      0.00000000      0.00000000      0.00000000      0.00000000      0.00000000</v>
  </separator>
  <separator name="orbital magnetization" >
   <i type="logical" name="NUCIND"> F  </i>
   <v name="MAGPOS">      0.00000000      0.00000000      0.00000000</v>
   <i type="logical" name="LNICSALL"> T  </i>
   <i type="logical" name="ORBITALMAG"> F  </i>
   <i type="logical" name="LMAGBLOCH"> F  </i>
   <i type="logical" name="LCHIMAG"> F  </i>
   <i type="logical" name="LGAUGE"> T  </i>
   <i type="int" name="MAGATOM">     0</i>
   <v name="MAGDIPOL">      0.00000000      0.00000000      0.00000000</v>
   <v name="AVECCONST">      0.00000000      0.00000000      0.00000000</v>
  </separator>
  <separator name="response functions" >
   <i type="logical" name="LALL_IN_ONE"> F  </i>
   <i type="int" name="IALL_IN_ONE">    -1</i>
   <i type="int" name="NBANDS_WAVE">    -1</i>
   <i type="logical" name="LFINITE_TEMPERATURE"> F  </i>
   <i type="logical" name="LADDER"> F  </i>
   <i type="logical" name="LRPAFORCE"> F  </i>
   <i type="logical" name="LFXC"> F  </i>
   <i type="logical" name="LHARTREE"> T  </i>
   <i type="int" name="IBSE">     0</i>
   <v type="int" name="KPOINT">    -1     0     0     0</v>
   <i type="logical" name="LTCTC"> F  </i>
   <i type="logical" name="LTCTE"> F  </i>
   <i type="logical" name="LTETE"> F  </i>
   <i type="logical" name="LTRIPLET"> F  </i>
   <i type="logical" name="LFXCEPS"> F  </i>
   <i type="logical" name="LFXHEG"> F  </i>
   <i type="int" name="NATURALO">     2</i>
   <i type="logical" name="LHOLEGF"> F  </i>
   <i type="logical" name="L2ORDER"> F  </i>
   <i type="logical" name="LDMP1"> F  </i>
   <i type="logical" name="LMP2LT"> F  </i>
   <i type="logical" name="LSMP2LT"> F  </i>
   <i type="logical" name="LGWLF"> F  </i>
   <i name="ENCUTGW">     -1.60000002</i>
   <i name="ENCUTGWSOFT">     -1.60000002</i>
   <i name="ENCUTLF">     -1.00000000</i>
   <i type="logical" name="LESF_SPLINES"> F  </i>
   <i type="int" name="LMAXMP2">    -1</i>
   <i name="SCISSOR">      0.00000000</i>
   <i type="int" name="NOMEGA">     0</i>
   <i type="int" name="NOMEGAR">     0</i>
   <i type="int" name="NBANDSGW">    -1</i>
   <i type="int" name="NBANDSO">    -1</i>
   <i type="int" name="NBANDSV">    -1</i>
   <i type="int" name="NELMGW">     1</i>
   <i type="int" name="NELMHF">     1</i>
   <i type="int" name="DIM">     3</i>
   <i type="int" name="IESPILON">     4</i>
   <i type="int" name="ANTIRES">     0</i>
   <i name="OMEGAMAX">    -30.00000000</i>
   <i name="OMEGAMIN">    -30.00000000</i>
   <i name="OMEGATL">   -200.00000000</i>
   <i type="int" name="OMEGAGRID">     0</i>
   <i name="CSHIFT">     -0.10000000</i>
   <i type="logical" name="LSELFENERGY"> F  </i>
   <i type="logical" name="LSPECTRAL"> F  </i>
   <i type="logical" name="LSPECTRALGW"> F  </i>
   <i type="logical" name="LSINGLES"> F  </i>
   <i type="logical" name="LFERMIGW"> F  </i>
   <i type="logical" name="ODDONLYGW"> F  </i>
   <i type="logical" name="EVENONLYGW"> F  </i>
   <i type="int" name="NKREDLFX">     1</i>
   <i type="int" name="NKREDLFY">     1</i>
   <i type="int" name="NKREDLFZ">     1</i>
   <i type="int" name="MAXMEM">  2800</i>
   <i type="int" name="TELESCOPE">     0</i>
   <i type="int" name="NTAUPAR">    -1</i>
   <i type="int" name="NOMEGAPAR">    -1</i>
   <i name="DAMP_NEWTON">      0.80000001</i>
   <i name="LAMBDA">      1.00000000</i>
  </separator>
  <separator name="External order field" >
   <i name="OFIELD_KAPPA">      0.00000000</i>
   <v name="OFIELD_K">      0.00000000      0.00000000      0.00000000</v>
   <i name="OFIELD_Q6_NEAR">      0.00000000</i>
   <i name="OFIELD_Q6_FAR">      0.00000000</i>
   <i name="OFIELD_A">      0.00000000</i>
  </separator>
  <separator name="optional k-points parameters" >
   <i type="int" name="KPOINTS_OPT_MODE">     1</i>
   <i type="logical" name="LKPOINTS_OPT"> F  </i>
  </separator>
 </parameters>
 <atominfo>
  <atoms>      52 </atoms>
  <types>       4 </types>
  <array name="atoms" >
   <dimension dim="1">ion</dimension>
   <field type="string">element</field>
   <field type="int">atomtype</field>
   <set>
    <rc><c>Li</c><c>   1</c></rc>
    <rc><c>Li</c><c>   1</c></rc>
    <rc><c>Li</c><c>   1</c></rc>
    <rc><c>Li</c><c>   1</c></rc>
    <rc><c>Li</c><c>   1</c></rc>
    <rc><c>Li</c><c>   1</c></rc>
    <rc><c>Li</c><c>   1</c></rc>
    <rc><c>Li</c><c>   1</c></rc>
    <rc><c>Li</c><c>   1</c></rc>
    <rc><c>Li</c><c>   1</c></rc>
    <rc><c>Li</c><c>   1</c></rc>
    <rc><c>Li</c><c>   1</c></rc>
    <rc><c>Li</c><c>   1</c></rc>
    <rc><c>Li</c><c>   1</c></rc>
    <rc><c>Li</c><c>   1</c></rc>
    <rc><c>Li</c><c>   1</c></rc>
    <rc><c>Li</c><c>   1</c></rc>
    <rc><c>Li</c><c>   1</c></rc>
    <rc><c>Li</c><c>   1</c></rc>
    <rc><c>Li</c><c>   1</c></rc>
    <rc><c>Li</c><c>   1</c></rc>
    <rc><c>Li</c><c>   1</c></rc>
    <rc><c>Li</c><c>   1</c></rc>
    <rc><c>Li</c><c>   1</c></rc>
    <rc><c>P </c><c>   2</c></rc>
    <rc><c>P </c><c>   2</c></rc>
    <rc><c>P </c><c>   2</c></rc>
    <rc><c>P </c><c>   2</c></rc>
    <rc><c>S </c><c>   3</c></rc>
    <rc><c>S </c><c>   3</c></rc>
    <rc><c>S </c><c>   3</c></rc>
    <rc><c>S </c><c>   3</c></rc>
    <rc><c>S </c><c>   3</c></rc>
    <rc><c>S </c><c>   3</c></rc>
    <rc><c>S </c><c>   3</c></rc>
    <rc><c>S </c><c>   3</c></rc>
    <rc><c>S </c><c>   3</c></rc>
    <rc><c>S </c><c>   3</c></rc>
    <rc><c>S </c><c>   3</c></rc>
    <rc><c>S </c><c>   3</c></rc>
    <rc><c>S </c><c>   3</c></rc>
    <rc><c>S </c><c>   3</c></rc>
    <rc><c>S </c><c>   3</c></rc>
    <rc><c>S </c><c>   3</c></rc>
    <rc><c>S </c><c>   3</c></rc>
    <rc><c>S </c><c>   3</c></rc>
    <rc><c>S </c><c>   3</c></rc>
    <rc><c>S </c><c>   3</c></rc>
    <rc><c>Cl</c><c>   4</c></rc>
    <rc><c>Cl</c><c>   4</c></rc>
    <rc><c>Cl</c><c>   4</c></rc>
    <rc><c>Cl</c><c>   4</c></rc>
   </set>
  </array>
  <array name="atomtypes" >
   <dimension dim="1">type</dimension>
   <field type="int">atomspertype</field>
   <field type="string">element</field>
   <field>mass</field>
   <field>valence</field>
   <field type="string">pseudopotential</field>
   <set>
    <rc><c>  24</c><c>Li</c><c>      7.01000000</c><c>      3.00000000</c><c>  PAW_PBE Li_sv_GW 25Mar2010            </c></rc>
    <rc><c>   4</c><c>P </c><c>     30.97400000</c><c>      5.00000000</c><c>  PAW_PBE P_GW 19Mar2012                </c></rc>
    <rc><c>  20</c><c>S </c><c>     32.06600000</c><c>      6.00000000</c><c>  PAW_PBE S_GW 19Mar2012                </c></rc>
    <rc><c>   4</c><c>Cl</c><c>     35.45300000</c><c>      7.00000000</c><c>  PAW_PBE Cl_GW 19Mar2012               </c></rc>
   </set>
  </array>
 </atominfo>
 <structure name="initialpos" >
  <crystal>
   <varray name="basis" >
    <v>       9.68375366       0.00000000       0.00000000 </v>
    <v>       0.00000000       9.68375366       0.00000000 </v>
    <v>       0.00000000       0.00000000       9.68375366 </v>
   </varray>
   <i name="volume">    908.09482285 </i>
   <varray name="rec_basis" >
    <v>       0.10326574       0.00000000       0.00000000 </v>
    <v>       0.00000000       0.10326574       0.00000000 </v>
    <v>       0.00000000       0.00000000       0.10326574 </v>
   </varray>
  </crystal>
  <varray name="positions" >
   <v>       0.98400459       0.22527484       0.27459076 </v>
   <v>       0.97755476       0.75247544       0.74739015 </v>
   <v>       0.02396650       0.29642500       0.68289228 </v>
   <v>       0.02396650       0.81697331       0.20344059 </v>
   <v>       0.27057429       0.28421798       0.98903398 </v>
   <v>       0.22428473       0.80507930       0.01529655 </v>
   <v>       0.83098090       0.18993937       0.02643017 </v>
   <v>       0.81212729       0.84229250       0.96415609 </v>
   <v>       0.33540849       0.95221139       0.32479463 </v>
   <v>       0.18518970       0.03369096       0.81724938 </v>
   <v>       0.66202366       0.97378716       0.71711751 </v>
   <v>       0.70487479       0.01346800       0.29552016 </v>
   <v>       0.18518970       0.68261621       0.46617463 </v>
   <v>       0.33540849       0.17507097       0.54765420 </v>
   <v>       0.66202366       0.78274808       0.52607843 </v>
   <v>       0.70487479       0.20434543       0.48639760 </v>
   <v>       0.22428473       0.48456904       0.69478629 </v>
   <v>       0.27057429       0.51083162       0.21564761 </v>
   <v>       0.83098090       0.47343542       0.30992622 </v>
   <v>       0.81212729       0.53570951       0.65757309 </v>
   <v>       0.47909962       0.32088743       0.81117645 </v>
   <v>       0.47909962       0.68868914       0.17897816 </v>
   <v>       0.53586105       0.30711140       0.19275420 </v>
   <v>       0.67922994       0.57910988       0.92075571 </v>
   <v>       0.49878815       0.49921605       0.49449734 </v>
   <v>       0.49878815       0.00536825       0.00064954 </v>
   <v>       0.99245106       0.50551696       0.99434864 </v>
   <v>       0.00616049       0.98762675       0.51223885 </v>
   <v>       0.14088168       0.87232624       0.62753936 </v>
   <v>       0.14039932       0.10440376       0.39546183 </v>
   <v>       0.88114275       0.86299017       0.39444520 </v>
   <v>       0.88114275       0.10542039       0.63687543 </v>
   <v>       0.86707848       0.63144134       0.11013474 </v>
   <v>       0.86707848       0.38973086       0.86842425 </v>
   <v>       0.13047940       0.61811277       0.88175283 </v>
   <v>       0.09660300       0.37431983       0.12554576 </v>
   <v>       0.62763468       0.13787586       0.89497600 </v>
   <v>       0.62215502       0.87475516       0.11651740 </v>
   <v>       0.37661559       0.11557790       0.13440568 </v>
   <v>       0.39139651       0.89221917       0.86152477 </v>
   <v>       0.62763468       0.60488959       0.36198974 </v>
   <v>       0.62215502       0.38334819       0.62511043 </v>
   <v>       0.39139651       0.63834083       0.60764642 </v>
   <v>       0.37661559       0.36545992       0.38428770 </v>
   <v>       0.74387555       0.74681109       0.75305451 </v>
   <v>       0.75719720       0.24437851       0.25548709 </v>
   <v>       0.25175479       0.74332547       0.24305294 </v>
   <v>       0.25175479       0.25681266       0.75654012 </v>
   <v>       0.01152606       0.97944687       0.00533832 </v>
   <v>       0.01152606       0.49452728       0.52041872 </v>
   <v>       0.53468622       0.00712732       0.49273828 </v>
   <v>       0.47199412       0.47905286       0.02081274 </v>
  </varray>
 </structure>
 <calculation>
  <scstep>
   <time name="dav">    1.66    1.76</time>
   <time name="total">    2.13    2.26</time>
   <energy>
    <i name="alphaZ">    298.93079098 </i>
    <i name="ewald">  -8779.03240855 </i>
    <i name="hartreedc">  -2131.13855784 </i>
    <i name="XCdc">    533.92900180 </i>
    <i name="pawpsdc">   8141.38806575 </i>
    <i name="pawaedc">  -8271.61346273 </i>
    <i name="eentropy">     -0.00248619 </i>
    <i name="bandstr">   -924.22348775 </i>
    <i name="atom">  12703.13999606 </i>
    <i name="e_fr_energy">   1571.37745152 </i>
    <i name="e_wo_entrp">   1571.37993771 </i>
    <i name="e_0_energy">   1571.37869462 </i>
   </energy>
  </scstep>
  <scstep>
   <time name="dav">    1.92    1.94</time>
   <time name="total">    1.92    1.94</time>
   <energy>
    <i name="e_fr_energy">    -55.31688979 </i>
    <i name="e_wo_entrp">    -55.31688979 </i>
    <i name="e_0_energy">    -55.31688979 </i>
   </energy>
  </scstep>
  <scstep>
   <time name="dav">    1.93    1.95</time>
   <time name="total">    1.93    1.95</time>
   <energy>
    <i name="e_fr_energy">   -228.57099653 </i>
    <i name="e_wo_entrp">   -228.57099653 </i>
    <i name="e_0_energy">   -228.57099653 </i>
   </energy>
  </scstep>
  <scstep>
   <time name="dav">    2.37    2.40</time>
   <time name="total">    2.37    2.40</time>
   <energy>
    <i name="e_fr_energy">   -241.57250988 </i>
    <i name="e_wo_entrp">   -241.57250988 </i>
    <i name="e_0_energy">   -241.57250988 </i>
   </energy>
  </scstep>
  <scstep>
   <time name="dav">    2.23    2.25</time>
   <time name="total">    2.23    2.25</time>
   <energy>
    <i name="e_fr_energy">   -241.82462970 </i>
    <i name="e_wo_entrp">   -241.82462970 </i>
    <i name="e_0_energy">   -241.82462970 </i>
   </energy>
  </scstep>
  <scstep>
   <time name="dav">    2.27    2.29</time>
   <time name="total">    2.27    2.30</time>
   <energy>
    <i name="e_fr_energy">   -241.83664073 </i>
    <i name="e_wo_entrp">   -241.83664073 </i>
    <i name="e_0_energy">   -241.83664073 </i>
   </energy>
  </scstep>
  <scstep>
   <time name="dav">    2.22    2.25</time>
   <time name="total">    2.22    2.25</time>
   <energy>
    <i name="e_fr_energy">   -241.83704086 </i>
    <i name="e_wo_entrp">   -241.83704086 </i>
    <i name="e_0_energy">   -241.83704086 </i>
   </energy>
  </scstep>
  <scstep>
   <time name="dav">    2.23    2.26</time>
   <time name="total">    2.24    2.26</time>
   <energy>
    <i name="e_fr_energy">   -241.83706413 </i>
    <i name="e_wo_entrp">   -241.83706413 </i>
    <i name="e_0_energy">   -241.83706413 </i>
   </energy>
  </scstep>
  <scstep>
   <time name="dav">    2.21    2.23</time>
   <time name="total">    2.21    2.23</time>
   <energy>
    <i name="e_fr_energy">   -241.83706563 </i>
    <i name="e_wo_entrp">   -241.83706563 </i>
    <i name="e_0_energy">   -241.83706563 </i>
   </energy>
  </scstep>
  <scstep>
   <time name="dav">    1.48    1.50</time>
   <time name="total">    1.75    1.85</time>
   <energy>
    <i name="e_fr_energy">   -241.83706570 </i>
    <i name="e_wo_entrp">   -241.83706570 </i>
    <i name="e_0_energy">   -241.83706570 </i>
   </energy>
  </scstep>
  <scstep>
   <time name="diag">    0.28    0.29</time>
   <time name="diis">    0.88    0.89</time>
   <time name="orth">    0.05    0.05</time>
   <time name="total">    1.85    2.17</time>
   <energy>
    <i name="e_fr_energy">   -234.84949166 </i>
    <i name="e_wo_entrp">   -234.84949166 </i>
    <i name="e_0_energy">   -234.84949166 </i>
   </energy>
  </scstep>
  <scstep>
   <time name="diag">    0.28    0.31</time>
   <time name="diis">    0.92    0.93</time>
   <time name="orth">    0.05    0.05</time>
   <time name="total">    1.84    1.92</time>
   <energy>
    <i name="e_fr_energy">   -255.59291045 </i>
    <i name="e_wo_entrp">   -255.59291045 </i>
    <i name="e_0_energy">   -255.59291045 </i>
   </energy>
  </scstep>
  <scstep>
   <time name="diag">    0.27    0.27</time>
   <time name="diis">    0.89    0.90</time>
   <time name="orth">    0.05    0.05</time>
   <time name="total">    1.80    1.84</time>
   <energy>
    <i name="e_fr_energy">   -258.09765470 </i>
    <i name="e_wo_entrp">   -258.09765470 </i>
    <i name="e_0_energy">   -258.09765470 </i>
   </energy>
  </scstep>
  <scstep>
   <time name="diag">    0.27    0.27</time>
   <time name="diis">    1.18    1.20</time>
   <time name="orth">    0.05    0.05</time>
   <time name="total">    2.08    2.12</time>
   <energy>
    <i name="e_fr_energy">   -258.30127998 </i>
    <i name="e_wo_entrp">   -258.30127998 </i>
    <i name="e_0_energy">   -258.30127998 </i>
   </energy>
  </scstep>
  <scstep>
   <time name="diag">    0.27    0.27</time>
   <time name="diis">    0.95    0.96</time>
   <time name="orth">    0.05    0.05</time>
   <time name="total">    1.85    1.88</time>
   <energy>
    <i name="e_fr_energy">   -258.26039697 </i>
    <i name="e_wo_entrp">   -258.26039697 </i>
    <i name="e_0_energy">   -258.26039697 </i>
   </energy>
  </scstep>
  <scstep>
   <time name="diag">    0.27    0.27</time>
   <time name="diis">    0.96    0.97</time>
   <time name="orth">    0.05    0.05</time>
   <time name="total">    1.86    1.89</time>
   <energy>
    <i name="e_fr_energy">   -258.28084581 </i>
    <i name="e_wo_entrp">   -258.28084581 </i>
    <i name="e_0_energy">   -258.28084581 </i>
   </energy>
  </scstep>
  <scstep>
   <time name="diag">    0.27    0.27</time>
   <time name="diis">    1.10    1.11</time>
   <time name="orth">    0.05    0.05</time>
   <time name="total">    2.00    2.02</time>
   <energy>
    <i name="e_fr_energy">   -258.28702056 </i>
    <i name="e_wo_entrp">   -258.28702056 </i>
    <i name="e_0_energy">   -258.28702056 </i>
   </energy>
  </scstep>
  <scstep>
   <time name="diag">    0.27    0.27</time>
   <time name="diis">    1.06    1.08</time>
   <time name="orth">    0.05    0.05</time>
   <time name="total">    1.96    1.99</time>
   <energy>
    <i name="e_fr_energy">   -258.28815278 </i>
    <i name="e_wo_entrp">   -258.28815278 </i>
    <i name="e_0_energy">   -258.28815278 </i>
   </energy>
  </scstep>
  <scstep>
   <time name="diag">    0.27    0.27</time>
   <time name="diis">    1.19    1.21</time>
   <time name="orth">    0.05    0.05</time>
   <time name="total">    2.08    2.10</time>
   <energy>
    <i name="e_fr_energy">   -258.28866940 </i>
    <i name="e_wo_entrp">   -258.28866940 </i>
    <i name="e_0_energy">   -258.28866940 </i>
   </energy>
  </scstep>
  <scstep>
   <time name="diag">    0.27    0.27</time>
   <time name="diis">    1.19    1.21</time>
   <time name="orth">    0.05    0.05</time>
   <time name="total">    2.08    2.11</time>
   <energy>
    <i name="e_fr_energy">   -258.28876459 </i>
    <i name="e_wo_entrp">   -258.28876459 </i>
    <i name="e_0_energy">   -258.28876459 </i>
   </energy>
  </scstep>
  <scstep>
   <time name="diag">    0.27    0.27</time>
   <time name="diis">    1.04    1.05</time>
   <time name="orth">    0.05    0.05</time>
   <time name="total">    1.93    1.95</time>
   <energy>
    <i name="e_fr_energy">   -258.28878168 </i>
    <i name="e_wo_entrp">   -258.28878168 </i>
    <i name="e_0_energy">   -258.28878168 </i>
   </energy>
  </scstep>
  <scstep>
   <time name="diag">    0.27    0.27</time>
   <time name="diis">    1.19    1.20</time>
   <time name="orth">    0.05    0.05</time>
   <time name="total">    2.07    2.10</time>
   <energy>
    <i name="e_fr_energy">   -258.28878961 </i>
    <i name="e_wo_entrp">   -258.28878961 </i>
    <i name="e_0_energy">   -258.28878961 </i>
   </energy>
  </scstep>
  <scstep>
   <time name="diag">    0.27    0.27</time>
   <time name="diis">    1.00    1.01</time>
   <time name="orth">    0.05    0.05</time>
   <time name="total">    1.89    1.91</time>
   <energy>
    <i name="e_fr_energy">   -258.28878944 </i>
    <i name="e_wo_entrp">   -258.28878944 </i>
    <i name="e_0_energy">   -258.28878944 </i>
   </energy>
  </scstep>
  <scstep>
   <time name="diag">    0.27    0.27</time>
   <time name="diis">    0.77    0.78</time>
   <time name="orth">    0.05    0.05</time>
   <time name="total">    1.56    1.57</time>
   <energy>
    <i name="alphaZ">    298.93079098 </i>
    <i name="ewald">  -8779.03240855 </i>
    <i name="hartreedc">  -2233.76066762 </i>
    <i name="XCdc">    537.67084514 </i>
    <i name="pawpsdc">   9821.91199384 </i>
    <i name="pawaedc">  -9965.94743940 </i>
    <i name="eentropy">     -0.00000000 </i>
    <i name="bandstr">  -2641.20189898 </i>
    <i name="atom">  12703.13999606 </i>
    <i name="e_fr_energy">   -258.28878854 </i>
    <i name="e_wo_entrp">   -258.28878854 </i>
    <i name="e_0_energy">   -258.28878854 </i>
   </energy>
  </scstep>
  <structure>
   <crystal>
    <varray name="basis" >
     <v>       9.68375366       0.00000000       0.00000000 </v>
     <v>       0.00000000       9.68375366       0.00000000 </v>
     <v>       0.00000000       0.00000000       9.68375366 </v>
    </varray>
    <i name="volume">    908.09482285 </i>
    <varray name="rec_basis" >
     <v>       0.10326574       0.00000000       0.00000000 </v>
     <v>       0.00000000       0.10326574       0.00000000 </v>
     <v>       0.00000000       0.00000000       0.10326574 </v>
    </varray>
   </crystal>
   <varray name="positions" >
    <v>       0.98400459       0.22527484       0.27459076 </v>
    <v>       0.97755476       0.75247544       0.74739015 </v>
    <v>       0.02396650       0.29642500       0.68289228 </v>
    <v>       0.02396650       0.81697331       0.20344059 </v>
    <v>       0.27057429       0.28421798       0.98903398 </v>
    <v>       0.22428473       0.80507930       0.01529655 </v>
    <v>       0.83098090       0.18993937       0.02643017 </v>
    <v>       0.81212729       0.84229250       0.96415609 </v>
    <v>       0.33540849       0.95221139       0.32479463 </v>
    <v>       0.18518970       0.03369096       0.81724938 </v>
    <v>       0.66202366       0.97378716       0.71711751 </v>
    <v>       0.70487479       0.01346800       0.29552016 </v>
    <v>       0.18518970       0.68261621       0.46617463 </v>
    <v>       0.33540849       0.17507097       0.54765420 </v>
    <v>       0.66202366       0.78274808       0.52607843 </v>
    <v>       0.70487479       0.20434543       0.48639760 </v>
    <v>       0.22428473       0.48456904       0.69478629 </v>
    <v>       0.27057429       0.51083162       0.21564761 </v>
    <v>       0.83098090       0.47343542       0.30992622 </v>
    <v>       0.81212729       0.53570951       0.65757309 </v>
    <v>       0.47909962       0.32088743       0.81117645 </v>
    <v>       0.47909962       0.68868914       0.17897816 </v>
    <v>       0.53586105       0.30711140       0.19275420 </v>
    <v>       0.67922994       0.57910988       0.92075571 </v>
    <v>       0.49878815       0.49921605       0.49449734 </v>
    <v>       0.49878815       0.00536825       0.00064954 </v>
    <v>       0.99245106       0.50551696       0.99434864 </v>
    <v>       0.00616049       0.98762675       0.51223885 </v>
    <v>       0.14088168       0.87232624       0.62753936 </v>
    <v>       0.14039932       0.10440376       0.39546183 </v>
    <v>       0.88114275       0.86299017       0.39444520 </v>
    <v>       0.88114275       0.10542039       0.63687543 </v>
    <v>       0.86707848       0.63144134       0.11013474 </v>
    <v>       0.86707848       0.38973086       0.86842425 </v>
    <v>       0.13047940       0.61811277       0.88175283 </v>
    <v>       0.09660300       0.37431983       0.12554576 </v>
    <v>       0.62763468       0.13787586       0.89497600 </v>
    <v>       0.62215502       0.87475516       0.11651740 </v>
    <v>       0.37661559       0.11557790       0.13440568 </v>
    <v>       0.39139651       0.89221917       0.86152477 </v>
    <v>       0.62763468       0.60488959       0.36198974 </v>
    <v>       0.62215502       0.38334819       0.62511043 </v>
    <v>       0.39139651       0.63834083       0.60764642 </v>
    <v>       0.37661559       0.36545992       0.38428770 </v>
    <v>       0.74387555       0.74681109       0.75305451 </v>
    <v>       0.75719720       0.24437851       0.25548709 </v>
    <v>       0.25175479       0.74332547       0.24305294 </v>
    <v>       0.25175479       0.25681266       0.75654012 </v>
    <v>       0.01152606       0.97944687       0.00533832 </v>
    <v>       0.01152606       0.49452728       0.52041872 </v>
    <v>       0.53468622       0.00712732       0.49273828 </v>
    <v>       0.47199412       0.47905286       0.02081274 </v>
   </varray>
  </structure>
  <varray name="forces" >
   <v>       0.00003538      -0.00048943       0.00048943 </v>
   <v>      -0.00009651      -0.00010256       0.00010256 </v>
   <v>      -0.00017106       0.00016051      -0.00085782 </v>
   <v>      -0.00017106       0.00085782      -0.00016051 </v>
   <v>       0.00063259       0.00076205       0.00021396 </v>
   <v>       0.00030302       0.00091268      -0.00049160 </v>
   <v>       0.00210936      -0.00047389      -0.00017535 </v>
   <v>      -0.00020931       0.00084439      -0.00020392 </v>
   <v>       0.00078064      -0.00016975       0.00093586 </v>
   <v>      -0.00063632       0.00009370       0.00039795 </v>
   <v>      -0.00264937      -0.00006676       0.00009020 </v>
   <v>       0.00024344      -0.00048674       0.00047479 </v>
   <v>      -0.00063632      -0.00039795      -0.00009370 </v>
   <v>       0.00078064      -0.00093586       0.00016975 </v>
   <v>      -0.00264937      -0.00009020       0.00006676 </v>
   <v>       0.00024344      -0.00047479       0.00048674 </v>
   <v>       0.00030302       0.00049160      -0.00091268 </v>
   <v>       0.00063259      -0.00021396      -0.00076205 </v>
   <v>       0.00210936       0.00017535       0.00047389 </v>
   <v>      -0.00020931       0.00020392      -0.00084439 </v>
   <v>       0.00016008       0.00059034       0.00072822 </v>
   <v>       0.00016008      -0.00072822      -0.00059034 </v>
   <v>      -0.00036827       0.00009455      -0.00009455 </v>
   <v>       0.00008212      -0.00036415       0.00036415 </v>
   <v>       0.00028484       0.00089376       0.00045064 </v>
   <v>       0.00028484      -0.00045064      -0.00089376 </v>
   <v>       0.00018268      -0.00017200       0.00017200 </v>
   <v>      -0.00099331      -0.00034080       0.00034080 </v>
   <v>       0.00256043      -0.00195976       0.00195976 </v>
   <v>       0.00143478       0.00132168      -0.00132168 </v>
   <v>      -0.00159976      -0.00291858      -0.00059009 </v>
   <v>      -0.00159976       0.00059009       0.00291858 </v>
   <v>      -0.00169163       0.00225200       0.00155877 </v>
   <v>      -0.00169163      -0.00155877      -0.00225200 </v>
   <v>       0.00258600       0.00135867      -0.00135867 </v>
   <v>       0.00093106      -0.00205032       0.00205032 </v>
   <v>       0.00223501       0.00246678      -0.00061186 </v>
   <v>       0.00145202      -0.00211349       0.00192544 </v>
   <v>      -0.00269282       0.00083746       0.00158984 </v>
   <v>      -0.00058126      -0.00153278      -0.00296073 </v>
   <v>       0.00223501       0.00061186      -0.00246678 </v>
   <v>       0.00145202      -0.00192544       0.00211349 </v>
   <v>      -0.00058126       0.00296073       0.00153278 </v>
   <v>      -0.00269282      -0.00158984      -0.00083746 </v>
   <v>      -0.00098064      -0.00010718       0.00010718 </v>
   <v>      -0.00010997       0.00005858      -0.00005858 </v>
   <v>       0.00009361       0.00024202      -0.00003491 </v>
   <v>       0.00009361       0.00003491      -0.00024202 </v>
   <v>       0.00052083       0.00263629       0.00020792 </v>
   <v>       0.00052083      -0.00020792      -0.00263629 </v>
   <v>      -0.00210032      -0.00026606       0.00026606 </v>
   <v>      -0.00033123       0.00073609      -0.00073609 </v>
  </varray>
  <varray name="stress" >
   <v>      -5.10828955       1.44122124      -1.44122124 </v>
   <v>       1.44122194       2.57865447       1.45866046 </v>
   <v>      -1.44122194       1.45866046       2.57865447 </v>
  </varray>
  <energy>
   <i name="e_fr_energy">   -271.75876323 </i>
   <i name="e_wo_entrp">   -271.75876323 </i>
   <i name="e_0_energy">   -271.75876323 </i>
  </energy>
  <time name="totalsc">   50.85   52.07</time>
 </calculation>
 <calculation>
  <scstep>
   <time name="dav">    1.71    1.73</time>
   <time name="total">    2.29    2.35</time>
   <energy>
    <i name="alphaZ">    298.93079098 </i>
    <i name="ewald">  -8779.12232913 </i>
    <i name="hartreedc">  -2233.69243410 </i>
    <i name="XCdc">    537.66899251 </i>
    <i name="pawpsdc">   9821.89812029 </i>
    <i name="pawaedc">  -9965.93348688 </i>
    <i name="eentropy">     -0.00000000 </i>
    <i name="bandstr">  -2641.17843771 </i>
    <i name="atom">  12703.13999606 </i>
    <i name="e_fr_energy">   -258.28878796 </i>
    <i name="e_wo_entrp">   -258.28878796 </i>
    <i name="e_0_energy">   -258.28878796 </i>
   </energy>
  </scstep>
  <scstep>
   <time name="diag">    0.28    0.28</time>
   <time name="diis">    0.84    0.85</time>
   <time name="orth">    0.05    0.05</time>
   <time name="total">    1.63    1.65</time>
   <energy>
    <i name="alphaZ">    298.93079098 </i>
    <i name="ewald">  -8779.12232913 </i>
    <i name="hartreedc">  -2233.69004500 </i>
    <i name="XCdc">    537.66861949 </i>
    <i name="pawpsdc">   9821.80844059 </i>
    <i name="pawaedc">  -9965.84317977 </i>
    <i name="eentropy">     -0.00000000 </i>
    <i name="bandstr">  -2641.18108147 </i>
    <i name="atom">  12703.13999606 </i>
    <i name="e_fr_energy">   -258.28878824 </i>
    <i name="e_wo_entrp">   -258.28878824 </i>
    <i name="e_0_energy">   -258.28878824 </i>
   </energy>
  </scstep>
  <structure>
   <crystal>
    <varray name="basis" >
     <v>       9.68375366       0.00000000       0.00000000 </v>
     <v>       0.00000000       9.68375366       0.00000000 </v>
     <v>       0.00000000       0.00000000       9.68375366 </v>
    </varray>
    <i name="volume">    908.09482285 </i>
    <varray name="rec_basis" >
     <v>       0.10326574       0.00000000       0.00000000 </v>
     <v>       0.00000000       0.10326574       0.00000000 </v>
     <v>       0.00000000       0.00000000       0.10326574 </v>
    </varray>
   </crystal>
   <varray name="positions" >
    <v>       0.98400466       0.22527386       0.27459173 </v>
    <v>       0.97755457       0.75247524       0.74739036 </v>
    <v>       0.02396616       0.29642532       0.68289057 </v>
    <v>       0.02396616       0.81697502       0.20344027 </v>
    <v>       0.27057555       0.28421950       0.98903440 </v>
    <v>       0.22428533       0.80508112       0.01529557 </v>
    <v>       0.83098510       0.18993843       0.02642982 </v>
    <v>       0.81212688       0.84229418       0.96415568 </v>
    <v>       0.33541005       0.95221105       0.32479649 </v>
    <v>       0.18518843       0.03369115       0.81725017 </v>
    <v>       0.66201838       0.97378703       0.71711769 </v>
    <v>       0.70487528       0.01346703       0.29552111 </v>
    <v>       0.18518843       0.68261542       0.46617445 </v>
    <v>       0.33541005       0.17506910       0.54765454 </v>
    <v>       0.66201838       0.78274790       0.52607856 </v>
    <v>       0.70487528       0.20434449       0.48639857 </v>
    <v>       0.22428533       0.48457002       0.69478447 </v>
    <v>       0.27057555       0.51083119       0.21564609 </v>
    <v>       0.83098510       0.47343577       0.30992716 </v>
    <v>       0.81212688       0.53570992       0.65757141 </v>
    <v>       0.47909994       0.32088861       0.81117790 </v>
    <v>       0.47909994       0.68868769       0.17897699 </v>
    <v>       0.53586031       0.30711159       0.19275401 </v>
    <v>       0.67923011       0.57910916       0.92075644 </v>
    <v>       0.49878872       0.49921784       0.49449824 </v>
    <v>       0.49878872       0.00536736       0.00064776 </v>
    <v>       0.99245142       0.50551662       0.99434898 </v>
    <v>       0.00615851       0.98762607       0.51223953 </v>
    <v>       0.14088678       0.87232233       0.62754326 </v>
    <v>       0.14040218       0.10440639       0.39545920 </v>
    <v>       0.88113956       0.86298435       0.39444403 </v>
    <v>       0.88113956       0.10542157       0.63688124 </v>
    <v>       0.86707511       0.63144583       0.11013784 </v>
    <v>       0.86707511       0.38972775       0.86841976 </v>
    <v>       0.13048455       0.61811548       0.88175012 </v>
    <v>       0.09660485       0.37431575       0.12554985 </v>
    <v>       0.62763913       0.13788077       0.89497478 </v>
    <v>       0.62215791       0.87475095       0.11652124 </v>
    <v>       0.37661022       0.11557957       0.13440884 </v>
    <v>       0.39139536       0.89221612       0.86151887 </v>
    <v>       0.62763913       0.60489081       0.36198482 </v>
    <v>       0.62215791       0.38334436       0.62511464 </v>
    <v>       0.39139536       0.63834673       0.60764948 </v>
    <v>       0.37661022       0.36545675       0.38428603 </v>
    <v>       0.74387359       0.74681088       0.75305472 </v>
    <v>       0.75719698       0.24437862       0.25548697 </v>
    <v>       0.25175498       0.74332595       0.24305287 </v>
    <v>       0.25175498       0.25681273       0.75653964 </v>
    <v>       0.01152710       0.97945212       0.00533873 </v>
    <v>       0.01152710       0.49452686       0.52041347 </v>
    <v>       0.53468204       0.00712679       0.49273881 </v>
    <v>       0.47199346       0.47905433       0.02081127 </v>
   </varray>
  </structure>
  <varray name="forces" >
   <v>      -0.00004847      -0.00021789       0.00021789 </v>
   <v>      -0.00008065      -0.00004352       0.00004352 </v>
   <v>      -0.00009427       0.00014640      -0.00057021 </v>
   <v>      -0.00009427       0.00057021      -0.00014640 </v>
   <v>       0.00036911       0.00049490       0.00009199 </v>
   <v>       0.00017661       0.00061739      -0.00027971 </v>
   <v>       0.00131375      -0.00027940      -0.00011577 </v>
   <v>      -0.00007511       0.00055643      -0.00013457 </v>
   <v>       0.00045882      -0.00010270       0.00054036 </v>
   <v>      -0.00038375       0.00009269       0.00019718 </v>
   <v>      -0.00163620       0.00000541       0.00003922 </v>
   <v>       0.00013722      -0.00026261       0.00024577 </v>
   <v>      -0.00038375      -0.00019718      -0.00009269 </v>
   <v>       0.00045882      -0.00054036       0.00010270 </v>
   <v>      -0.00163620      -0.00003922      -0.00000541 </v>
   <v>       0.00013722      -0.00024577       0.00026261 </v>
   <v>       0.00017661       0.00027971      -0.00061739 </v>
   <v>       0.00036911      -0.00009199      -0.00049490 </v>
   <v>       0.00131375       0.00011577       0.00027940 </v>
   <v>      -0.00007511       0.00013457      -0.00055643 </v>
   <v>       0.00007222       0.00037144       0.00040689 </v>
   <v>       0.00007222      -0.00040689      -0.00037144 </v>
   <v>      -0.00029676       0.00006749      -0.00006749 </v>
   <v>       0.00009157      -0.00016811       0.00016811 </v>
   <v>       0.00011257       0.00051430       0.00013322 </v>
   <v>       0.00011257      -0.00013322      -0.00051430 </v>
   <v>       0.00003076       0.00007301      -0.00007301 </v>
   <v>      -0.00041330      -0.00042354       0.00042354 </v>
   <v>       0.00087412      -0.00077524       0.00077524 </v>
   <v>       0.00027831       0.00048898      -0.00048898 </v>
   <v>      -0.00082105      -0.00153681      -0.00005594 </v>
   <v>      -0.00082105       0.00005594       0.00153681 </v>
   <v>      -0.00056703       0.00106260       0.00038589 </v>
   <v>      -0.00056703      -0.00038589      -0.00106260 </v>
   <v>       0.00106305       0.00052012      -0.00052012 </v>
   <v>       0.00044346      -0.00092090       0.00092090 </v>
   <v>       0.00097052       0.00118544      -0.00006951 </v>
   <v>       0.00060288      -0.00086001       0.00092735 </v>
   <v>      -0.00125156       0.00014648       0.00033229 </v>
   <v>      -0.00012825      -0.00054773      -0.00151518 </v>
   <v>       0.00097052       0.00006951      -0.00118544 </v>
   <v>       0.00060288      -0.00092735       0.00086001 </v>
   <v>      -0.00012825       0.00151518       0.00054773 </v>
   <v>      -0.00125156      -0.00033229      -0.00014648 </v>
   <v>      -0.00035301      -0.00006049       0.00006049 </v>
   <v>      -0.00000175      -0.00010670       0.00010670 </v>
   <v>       0.00006364       0.00008843      -0.00019147 </v>
   <v>       0.00006364       0.00019147      -0.00008843 </v>
   <v>       0.00010792       0.00034682       0.00006515 </v>
   <v>       0.00010792      -0.00006515      -0.00034682 </v>
   <v>      -0.00016687       0.00019740      -0.00019740 </v>
   <v>      -0.00027651      -0.00023716       0.00023716 </v>
  </varray>
  <varray name="stress" >
   <v>      -5.13973081       1.44142115      -1.44142115 </v>
   <v>       1.44142205       2.54779785       1.45876202 </v>
   <v>      -1.44142205       1.45876202       2.54779785 </v>
  </varray>
  <energy>
   <i name="e_fr_energy">   -271.75876690 </i>
   <i name="e_wo_entrp">   -271.75876690 </i>
   <i name="e_0_energy">   -271.75876690 </i>
  </energy>
  <time name="totalsc">    6.65    6.80</time>
 </calculation>
 <calculation>
  <scstep>
   <time name="dav">    1.80    1.83</time>
   <time name="total">    2.38    2.42</time>
   <energy>
    <i name="alphaZ">    298.93079098 </i>
    <i name="ewald">  -8779.19048455 </i>
    <i name="hartreedc">  -2233.63510078 </i>
    <i name="XCdc">    537.66697026 </i>
    <i name="pawpsdc">   9821.75072926 </i>
    <i name="pawaedc">  -9965.78487587 </i>
    <i name="eentropy">     -0.00000000 </i>
    <i name="bandstr">  -2641.16681226 </i>
    <i name="atom">  12703.13999606 </i>
    <i name="e_fr_energy">   -258.28878690 </i>
    <i name="e_wo_entrp">   -258.28878690 </i>
    <i name="e_0_energy">   -258.28878690 </i>
   </energy>
  </scstep>
  <scstep>
   <time name="diag">    0.28    0.28</time>
   <time name="diis">    0.74    0.75</time>
   <time name="orth">    0.05    0.05</time>
   <time name="total">    1.52    1.54</time>
   <energy>
    <i name="alphaZ">    298.93079098 </i>
    <i name="ewald">  -8779.19048455 </i>
    <i name="hartreedc">  -2233.63024074 </i>
    <i name="XCdc">    537.66668597 </i>
    <i name="pawpsdc">   9821.67423184 </i>
    <i name="pawaedc">  -9965.70802864 </i>
    <i name="eentropy">     -0.00000000 </i>
    <i name="bandstr">  -2641.17173777 </i>
    <i name="atom">  12703.13999606 </i>
    <i name="e_fr_energy">   -258.28878687 </i>
    <i name="e_wo_entrp">   -258.28878687 </i>
    <i name="e_0_energy">   -258.28878687 </i>
   </energy>
  </scstep>
  <structure>
   <crystal>
    <varray name="basis" >
     <v>       9.68375366       0.00000000       0.00000000 </v>
     <v>       0.00000000       9.68375366       0.00000000 </v>
     <v>       0.00000000       0.00000000       9.68375366 </v>
    </varray>
    <i name="volume">    908.09482285 </i>
    <varray name="rec_basis" >
     <v>       0.10326574       0.00000000       0.00000000 </v>
     <v>       0.00000000       0.10326574       0.00000000 </v>
     <v>       0.00000000       0.00000000       0.10326574 </v>
    </varray>
   </crystal>
   <varray name="positions" >
    <v>       0.98400471       0.22527312       0.27459247 </v>
    <v>       0.97755442       0.75247508       0.74739051 </v>
    <v>       0.02396590       0.29642557       0.68288928 </v>
    <v>       0.02396590       0.81697632       0.20344003 </v>
    <v>       0.27057651       0.28422065       0.98903473 </v>
    <v>       0.22428579       0.80508250       0.01529483 </v>
    <v>       0.83098829       0.18993771       0.02642956 </v>
    <v>       0.81212656       0.84229546       0.96415537 </v>
    <v>       0.33541122       0.95221080       0.32479791 </v>
    <v>       0.18518747       0.03369129       0.81725077 </v>
    <v>       0.66201438       0.97378693       0.71711783 </v>
    <v>       0.70487565       0.01346629       0.29552182 </v>
    <v>       0.18518747       0.68261482       0.46617430 </v>
    <v>       0.33541122       0.17506769       0.54765480 </v>
    <v>       0.66201438       0.78274776       0.52607866 </v>
    <v>       0.70487565       0.20434377       0.48639930 </v>
    <v>       0.22428579       0.48457076       0.69478309 </v>
    <v>       0.27057651       0.51083087       0.21564494 </v>
    <v>       0.83098829       0.47343603       0.30992788 </v>
    <v>       0.81212656       0.53571022       0.65757014 </v>
    <v>       0.47910018       0.32088950       0.81117900 </v>
    <v>       0.47910018       0.68868659       0.17897609 </v>
    <v>       0.53585976       0.30711173       0.19275387 </v>
    <v>       0.67923023       0.57910861       0.92075699 </v>
    <v>       0.49878915       0.49921919       0.49449892 </v>
    <v>       0.49878915       0.00536668       0.00064641 </v>
    <v>       0.99245170       0.50551636       0.99434924 </v>
    <v>       0.00615701       0.98762555       0.51224004 </v>
    <v>       0.14089065       0.87231937       0.62754622 </v>
    <v>       0.14040435       0.10440839       0.39545720 </v>
    <v>       0.88113715       0.86297994       0.39444314 </v>
    <v>       0.88113715       0.10542246       0.63688565 </v>
    <v>       0.86707256       0.63144923       0.11014020 </v>
    <v>       0.86707256       0.38972540       0.86841636 </v>
    <v>       0.13048846       0.61811753       0.88174807 </v>
    <v>       0.09660626       0.37431265       0.12555295 </v>
    <v>       0.62764251       0.13788450       0.89497386 </v>
    <v>       0.62216010       0.87474776       0.11652415 </v>
    <v>       0.37660616       0.11558083       0.13441125 </v>
    <v>       0.39139448       0.89221380       0.86151440 </v>
    <v>       0.62764251       0.60489174       0.36198109 </v>
    <v>       0.62216010       0.38334145       0.62511784 </v>
    <v>       0.39139448       0.63835120       0.60765179 </v>
    <v>       0.37660616       0.36545435       0.38428476 </v>
    <v>       0.74387211       0.74681071       0.75305488 </v>
    <v>       0.75719681       0.24437871       0.25548688 </v>
    <v>       0.25175512       0.74332632       0.24305282 </v>
    <v>       0.25175512       0.25681278       0.75653927 </v>
    <v>       0.01152788       0.97945611       0.00533904 </v>
    <v>       0.01152788       0.49452655       0.52040949 </v>
    <v>       0.53467886       0.00712639       0.49273921 </v>
    <v>       0.47199296       0.47905544       0.02081016 </v>
   </varray>
  </structure>
  <varray name="forces" >
   <v>      -0.00009983      -0.00028672       0.00028672 </v>
   <v>      -0.00006456      -0.00002832       0.00002832 </v>
   <v>      -0.00008441       0.00013964      -0.00064846 </v>
   <v>      -0.00008441       0.00064846      -0.00013964 </v>
   <v>       0.00044311       0.00058796       0.00010202 </v>
   <v>       0.00023363       0.00073813      -0.00029588 </v>
   <v>       0.00170458      -0.00037245      -0.00013570 </v>
   <v>      -0.00010001       0.00063952      -0.00013265 </v>
   <v>       0.00057530      -0.00013222       0.00070291 </v>
   <v>      -0.00044974       0.00011648       0.00023459 </v>
   <v>      -0.00209494      -0.00002136       0.00007079 </v>
   <v>       0.00015069      -0.00030474       0.00025728 </v>
   <v>      -0.00044974      -0.00023459      -0.00011648 </v>
   <v>       0.00057530      -0.00070291       0.00013222 </v>
   <v>      -0.00209494      -0.00007079       0.00002136 </v>
   <v>       0.00015069      -0.00025728       0.00030474 </v>
   <v>       0.00023363       0.00029588      -0.00073813 </v>
   <v>       0.00044311      -0.00010202      -0.00058796 </v>
   <v>       0.00170458       0.00013570       0.00037245 </v>
   <v>      -0.00010001       0.00013265      -0.00063952 </v>
   <v>       0.00007672       0.00044739       0.00048634 </v>
   <v>       0.00007672      -0.00048634      -0.00044739 </v>
   <v>      -0.00035266       0.00006721      -0.00006721 </v>
   <v>       0.00006768      -0.00021064       0.00021064 </v>
   <v>       0.00002963       0.00021791       0.00001943 </v>
   <v>       0.00002963      -0.00001943      -0.00021791 </v>
   <v>       0.00001630       0.00011738      -0.00011738 </v>
   <v>       0.00006164      -0.00053498       0.00053498 </v>
   <v>       0.00056968      -0.00037652       0.00037652 </v>
   <v>      -0.00002416       0.00011447      -0.00011447 </v>
   <v>      -0.00061450      -0.00154712       0.00031429 </v>
   <v>      -0.00061450      -0.00031429       0.00154712 </v>
   <v>      -0.00022749       0.00069333       0.00010484 </v>
   <v>      -0.00022749      -0.00010484      -0.00069333 </v>
   <v>       0.00080411       0.00015254      -0.00015254 </v>
   <v>       0.00012361      -0.00064265       0.00064265 </v>
   <v>       0.00081656       0.00092742       0.00020423 </v>
   <v>       0.00029305      -0.00063848       0.00066680 </v>
   <v>      -0.00103311      -0.00031430      -0.00009817 </v>
   <v>       0.00033522      -0.00037170      -0.00145716 </v>
   <v>       0.00081656      -0.00020423      -0.00092742 </v>
   <v>       0.00029305      -0.00066680       0.00063848 </v>
   <v>       0.00033522       0.00145716       0.00037170 </v>
   <v>      -0.00103311       0.00009817       0.00031430 </v>
   <v>      -0.00067230      -0.00006754       0.00006754 </v>
   <v>      -0.00000909      -0.00006350       0.00006350 </v>
   <v>       0.00008570       0.00015284      -0.00016177 </v>
   <v>       0.00008570       0.00016177      -0.00015284 </v>
   <v>       0.00024979       0.00114924       0.00016388 </v>
   <v>       0.00024979      -0.00016388      -0.00114924 </v>
   <v>      -0.00081654       0.00003639      -0.00003639 </v>
   <v>      -0.00038342       0.00001303      -0.00001303 </v>
  </varray>
  <varray name="stress" >
   <v>      -5.15898079       1.44119614      -1.44119614 </v>
   <v>       1.44119687       2.52831808       1.45814430 </v>
   <v>      -1.44119687       1.45814430       2.52831808 </v>
  </varray>
  <energy>
   <i name="e_fr_energy">   -271.75876853 </i>
   <i name="e_wo_entrp">   -271.75876853 </i>
   <i name="e_0_energy">   -271.75876853 </i>
  </energy>
  <time name="totalsc">    6.62    6.75</time>
 </calculation>
 <calculation>
  <scstep>
   <time name="dav">    1.77    1.79</time>
   <time name="total">    2.34    2.37</time>
   <energy>
    <i name="alphaZ">    298.93079098 </i>
    <i name="ewald">  -8779.32676472 </i>
    <i name="hartreedc">  -2233.51948192 </i>
    <i name="XCdc">    537.66369650 </i>
    <i name="pawpsdc">   9821.62283458 </i>
    <i name="pawaedc">  -9965.65636600 </i>
    <i name="eentropy">     -0.00000000 </i>
    <i name="bandstr">  -2641.14348619 </i>
    <i name="atom">  12703.13999606 </i>
    <i name="e_fr_energy">   -258.28878070 </i>
    <i name="e_wo_entrp">   -258.28878070 </i>
    <i name="e_0_energy">   -258.28878070 </i>
   </energy>
  </scstep>
  <scstep>
   <time name="diag">    0.28    0.28</time>
   <time name="diis">    0.91    0.92</time>
   <time name="orth">    0.05    0.05</time>
   <time name="total">    1.79    1.81</time>
   <energy>
    <i name="e_fr_energy">   -258.28878127 </i>
    <i name="e_wo_entrp">   -258.28878127 </i>
    <i name="e_0_energy">   -258.28878127 </i>
   </energy>
  </scstep>
  <scstep>
   <time name="diag">    0.27    0.27</time>
   <time name="diis">    0.78    0.79</time>
   <time name="orth">    0.05    0.05</time>
   <time name="total">    1.56    1.58</time>
   <energy>
    <i name="alphaZ">    298.93079098 </i>
    <i name="ewald">  -8779.32676472 </i>
    <i name="hartreedc">  -2233.50793315 </i>
    <i name="XCdc">    537.66314683 </i>
    <i name="pawpsdc">   9821.42956935 </i>
    <i name="pawaedc">  -9965.46245084 </i>
    <i name="eentropy">     -0.00000000 </i>
    <i name="bandstr">  -2641.15513601 </i>
    <i name="atom">  12703.13999606 </i>
    <i name="e_fr_energy">   -258.28878151 </i>
    <i name="e_wo_entrp">   -258.28878151 </i>
    <i name="e_0_energy">   -258.28878151 </i>
   </energy>
  </scstep>
  <structure>
   <crystal>
    <varray name="basis" >
     <v>       9.68375366       0.00000000       0.00000000 </v>
     <v>       0.00000000       9.68375366       0.00000000 </v>
     <v>       0.00000000       0.00000000       9.68375366 </v>
    </varray>
    <i name="volume">    908.09482285 </i>
    <varray name="rec_basis" >
     <v>       0.10326574       0.00000000       0.00000000 </v>
     <v>       0.00000000       0.10326574       0.00000000 </v>
     <v>       0.00000000       0.00000000       0.10326574 </v>
    </varray>
   </crystal>
   <varray name="positions" >
    <v>       0.98400482       0.22527164       0.27459395 </v>
    <v>       0.97755413       0.75247477       0.74739082 </v>
    <v>       0.02396539       0.29642605       0.68288669 </v>
    <v>       0.02396539       0.81697891       0.20343954 </v>
    <v>       0.27057842       0.28422295       0.98903537 </v>
    <v>       0.22428671       0.80508526       0.01529335 </v>
    <v>       0.83099466       0.18993628       0.02642903 </v>
    <v>       0.81212593       0.84229801       0.96415475 </v>
    <v>       0.33541358       0.95221028       0.32480073 </v>
    <v>       0.18518555       0.03369157       0.81725198 </v>
    <v>       0.66200637       0.97378673       0.71711810 </v>
    <v>       0.70487638       0.01346482       0.29552326 </v>
    <v>       0.18518555       0.68261362       0.46617402 </v>
    <v>       0.33541358       0.17506486       0.54765531 </v>
    <v>       0.66200637       0.78274749       0.52607887 </v>
    <v>       0.70487638       0.20434234       0.48640077 </v>
    <v>       0.22428671       0.48457225       0.69478034 </v>
    <v>       0.27057842       0.51083022       0.21564264 </v>
    <v>       0.83099466       0.47343656       0.30992931 </v>
    <v>       0.81212593       0.53571084       0.65756758 </v>
    <v>       0.47910066       0.32089128       0.81118120 </v>
    <v>       0.47910066       0.68868439       0.17897431 </v>
    <v>       0.53585864       0.30711201       0.19275358 </v>
    <v>       0.67923048       0.57910751       0.92075809 </v>
    <v>       0.49879001       0.49922189       0.49450028 </v>
    <v>       0.49879001       0.00536531       0.00064371 </v>
    <v>       0.99245225       0.50551584       0.99434976 </v>
    <v>       0.00615401       0.98762452       0.51224107 </v>
    <v>       0.14089839       0.87231345       0.62755214 </v>
    <v>       0.14040868       0.10441238       0.39545321 </v>
    <v>       0.88113231       0.86297112       0.39444135 </v>
    <v>       0.88113231       0.10542424       0.63689447 </v>
    <v>       0.86706744       0.63145604       0.11014491 </v>
    <v>       0.86706744       0.38972069       0.86840956 </v>
    <v>       0.13049627       0.61812163       0.88174396 </v>
    <v>       0.09660907       0.37430645       0.12555914 </v>
    <v>       0.62764926       0.13789195       0.89497201 </v>
    <v>       0.62216449       0.87474137       0.11652996 </v>
    <v>       0.37659802       0.11558336       0.13441605 </v>
    <v>       0.39139272       0.89220917       0.86150545 </v>
    <v>       0.62764926       0.60489359       0.36197364 </v>
    <v>       0.62216449       0.38333563       0.62512422 </v>
    <v>       0.39139272       0.63836014       0.60765642 </v>
    <v>       0.37659802       0.36544955       0.38428223 </v>
    <v>       0.74386915       0.74681039       0.75305520 </v>
    <v>       0.75719648       0.24437889       0.25548670 </v>
    <v>       0.25175540       0.74332705       0.24305271 </v>
    <v>       0.25175540       0.25681288       0.75653854 </v>
    <v>       0.01152946       0.97946407       0.00533967 </v>
    <v>       0.01152946       0.49452592       0.52040152 </v>
    <v>       0.53467252       0.00712558       0.49274001 </v>
    <v>       0.47199195       0.47905766       0.02080793 </v>
   </varray>
  </structure>
  <varray name="forces" >
   <v>      -0.00031136      -0.00019799       0.00019799 </v>
   <v>      -0.00012203       0.00000142      -0.00000142 </v>
   <v>       0.00008502       0.00013254      -0.00045043 </v>
   <v>       0.00008502       0.00045043      -0.00013254 </v>
   <v>       0.00021924       0.00033560      -0.00009312 </v>
   <v>       0.00016768       0.00048201      -0.00002026 </v>
   <v>       0.00151153      -0.00030574      -0.00001976 </v>
   <v>       0.00005007       0.00047876      -0.00013832 </v>
   <v>       0.00036554      -0.00014230       0.00044123 </v>
   <v>      -0.00025237       0.00018135       0.00011228 </v>
   <v>      -0.00182245      -0.00002542       0.00009372 </v>
   <v>       0.00008102      -0.00006946       0.00014604 </v>
   <v>      -0.00025237      -0.00011228      -0.00018135 </v>
   <v>       0.00036554      -0.00044123       0.00014230 </v>
   <v>      -0.00182245      -0.00009372       0.00002542 </v>
   <v>       0.00008102      -0.00014604       0.00006946 </v>
   <v>       0.00016768       0.00002026      -0.00048201 </v>
   <v>       0.00021924       0.00009312      -0.00033560 </v>
   <v>       0.00151153       0.00001976       0.00030574 </v>
   <v>       0.00005007       0.00013832      -0.00047876 </v>
   <v>      -0.00008696       0.00028876       0.00029236 </v>
   <v>      -0.00008696      -0.00029236      -0.00028876 </v>
   <v>      -0.00027426       0.00002833      -0.00002833 </v>
   <v>       0.00010035      -0.00011304       0.00011304 </v>
   <v>      -0.00012635      -0.00039627      -0.00030025 </v>
   <v>      -0.00012635       0.00030025       0.00039627 </v>
   <v>      -0.00010662       0.00026579      -0.00026579 </v>
   <v>       0.00105971      -0.00075671       0.00075671 </v>
   <v>      -0.00112524       0.00110001      -0.00110001 </v>
   <v>      -0.00124014      -0.00111764       0.00111764 </v>
   <v>       0.00032315      -0.00027792       0.00123304 </v>
   <v>       0.00032315      -0.00123304       0.00027792 </v>
   <v>       0.00106758      -0.00066289      -0.00117410 </v>
   <v>       0.00106758       0.00117410       0.00066289 </v>
   <v>      -0.00069014      -0.00094233       0.00094233 </v>
   <v>      -0.00067154       0.00055499      -0.00055499 </v>
   <v>      -0.00046185      -0.00051729       0.00105085 </v>
   <v>      -0.00084091       0.00073642      -0.00058546 </v>
   <v>       0.00058926      -0.00147011      -0.00164298 </v>
   <v>       0.00132865       0.00074300      -0.00002596 </v>
   <v>      -0.00046185      -0.00105085       0.00051729 </v>
   <v>      -0.00084091       0.00058546      -0.00073642 </v>
   <v>       0.00132865       0.00002596      -0.00074300 </v>
   <v>       0.00058926       0.00164298       0.00147011 </v>
   <v>      -0.00036886      -0.00002165       0.00002165 </v>
   <v>       0.00002484      -0.00012589       0.00012589 </v>
   <v>       0.00007864       0.00007560      -0.00022930 </v>
   <v>       0.00007864       0.00022930      -0.00007560 </v>
   <v>      -0.00004839       0.00055379       0.00010227 </v>
   <v>      -0.00004839      -0.00010227      -0.00055379 </v>
   <v>      -0.00042902       0.00011984      -0.00011984 </v>
   <v>      -0.00030188      -0.00014370       0.00014370 </v>
  </varray>
  <varray name="stress" >
   <v>      -5.18318345       1.44063667      -1.44063667 </v>
   <v>       1.44063745       2.50447575       1.45739739 </v>
   <v>      -1.44063745       1.45739739       2.50447575 </v>
  </varray>
  <energy>
   <i name="e_fr_energy">   -271.75876921 </i>
   <i name="e_wo_entrp">   -271.75876921 </i>
   <i name="e_0_energy">   -271.75876921 </i>
  </energy>
  <time name="totalsc">    8.41    8.53</time>
 </calculation>
 <calculation>
  <scstep>
   <time name="dav">    1.68    1.70</time>
   <time name="total">    2.25    2.28</time>
   <energy>
    <i name="alphaZ">    298.93079098 </i>
    <i name="ewald">  -8779.29036058 </i>
    <i name="hartreedc">  -2233.53754251 </i>
    <i name="XCdc">    537.66392643 </i>
    <i name="pawpsdc">   9821.42359503 </i>
    <i name="pawaedc">  -9965.45638003 </i>
    <i name="eentropy">     -0.00000000 </i>
    <i name="bandstr">  -2641.16280864 </i>
    <i name="atom">  12703.13999606 </i>
    <i name="e_fr_energy">   -258.28878326 </i>
    <i name="e_wo_entrp">   -258.28878326 </i>
    <i name="e_0_energy">   -258.28878326 </i>
   </energy>
  </scstep>
  <scstep>
   <time name="diag">    0.28    0.28</time>
   <time name="diis">    0.56    0.56</time>
   <time name="orth">    0.05    0.05</time>
   <time name="total">    1.34    1.35</time>
   <energy>
    <i name="alphaZ">    298.93079098 </i>
    <i name="ewald">  -8779.29036058 </i>
    <i name="hartreedc">  -2233.53875336 </i>
    <i name="XCdc">    537.66400483 </i>
    <i name="pawpsdc">   9821.43658487 </i>
    <i name="pawaedc">  -9965.46931781 </i>
    <i name="eentropy">     -0.00000000 </i>
    <i name="bandstr">  -2641.16172851 </i>
    <i name="atom">  12703.13999606 </i>
    <i name="e_fr_energy">   -258.28878352 </i>
    <i name="e_wo_entrp">   -258.28878352 </i>
    <i name="e_0_energy">   -258.28878352 </i>
   </energy>
  </scstep>
  <structure>
   <crystal>
    <varray name="basis" >
     <v>       9.68375366       0.00000000       0.00000000 </v>
     <v>       0.00000000       9.68375366       0.00000000 </v>
     <v>       0.00000000       0.00000000       9.68375366 </v>
    </varray>
    <i name="volume">    908.09482285 </i>
    <varray name="rec_basis" >
     <v>       0.10326574       0.00000000       0.00000000 </v>
     <v>       0.00000000       0.10326574       0.00000000 </v>
     <v>       0.00000000       0.00000000       0.10326574 </v>
    </varray>
   </crystal>
   <varray name="positions" >
    <v>       0.98400479       0.22527204       0.27459356 </v>
    <v>       0.97755421       0.75247485       0.74739074 </v>
    <v>       0.02396553       0.29642592       0.68288738 </v>
    <v>       0.02396553       0.81697822       0.20343967 </v>
    <v>       0.27057791       0.28422234       0.98903520 </v>
    <v>       0.22428646       0.80508452       0.01529374 </v>
    <v>       0.83099296       0.18993667       0.02642917 </v>
    <v>       0.81212610       0.84229733       0.96415492 </v>
    <v>       0.33541295       0.95221042       0.32479998 </v>
    <v>       0.18518606       0.03369150       0.81725166 </v>
    <v>       0.66200851       0.97378678       0.71711803 </v>
    <v>       0.70487618       0.01346522       0.29552287 </v>
    <v>       0.18518606       0.68261394       0.46617410 </v>
    <v>       0.33541295       0.17506562       0.54765517 </v>
    <v>       0.66200851       0.78274756       0.52607881 </v>
    <v>       0.70487618       0.20434272       0.48640038 </v>
    <v>       0.22428646       0.48457185       0.69478107 </v>
    <v>       0.27057791       0.51083039       0.21564325 </v>
    <v>       0.83099296       0.47343642       0.30992893 </v>
    <v>       0.81212610       0.53571067       0.65756827 </v>
    <v>       0.47910053       0.32089081       0.81118061 </v>
    <v>       0.47910053       0.68868498       0.17897479 </v>
    <v>       0.53585894       0.30711194       0.19275366 </v>
    <v>       0.67923041       0.57910780       0.92075779 </v>
    <v>       0.49878978       0.49922116       0.49449992 </v>
    <v>       0.49878978       0.00536568       0.00064443 </v>
    <v>       0.99245210       0.50551597       0.99434962 </v>
    <v>       0.00615481       0.98762480       0.51224080 </v>
    <v>       0.14089632       0.87231503       0.62755056 </v>
    <v>       0.14040752       0.10441132       0.39545428 </v>
    <v>       0.88113360       0.86297348       0.39444183 </v>
    <v>       0.88113360       0.10542376       0.63689211 </v>
    <v>       0.86706881       0.63145422       0.11014365 </v>
    <v>       0.86706881       0.38972195       0.86841138 </v>
    <v>       0.13049418       0.61812054       0.88174506 </v>
    <v>       0.09660832       0.37430811       0.12555749 </v>
    <v>       0.62764745       0.13788996       0.89497250 </v>
    <v>       0.62216332       0.87474308       0.11652841 </v>
    <v>       0.37660019       0.11558269       0.13441477 </v>
    <v>       0.39139319       0.89221041       0.86150784 </v>
    <v>       0.62764745       0.60489309       0.36197563 </v>
    <v>       0.62216332       0.38333718       0.62512252 </v>
    <v>       0.39139319       0.63835775       0.60765519 </v>
    <v>       0.37660019       0.36545083       0.38428291 </v>
    <v>       0.74386994       0.74681048       0.75305512 </v>
    <v>       0.75719657       0.24437884       0.25548675 </v>
    <v>       0.25175533       0.74332685       0.24305274 </v>
    <v>       0.25175533       0.25681286       0.75653874 </v>
    <v>       0.01152904       0.97946194       0.00533950 </v>
    <v>       0.01152904       0.49452609       0.52040365 </v>
    <v>       0.53467421       0.00712580       0.49273980 </v>
    <v>       0.47199222       0.47905707       0.02080853 </v>
   </varray>
  </structure>
  <varray name="forces" >
   <v>      -0.00025331      -0.00065763       0.00065763 </v>
   <v>      -0.00025438      -0.00010734       0.00010734 </v>
   <v>      -0.00008913       0.00025096      -0.00121038 </v>
   <v>      -0.00008913       0.00121038      -0.00025096 </v>
   <v>       0.00079567       0.00101536       0.00012191 </v>
   <v>       0.00042200       0.00127657      -0.00044529 </v>
   <v>       0.00272823      -0.00060763      -0.00011754 </v>
   <v>      -0.00017724       0.00123151      -0.00030686 </v>
   <v>       0.00097580      -0.00029628       0.00119969 </v>
   <v>      -0.00085512       0.00023674       0.00050601 </v>
   <v>      -0.00326249      -0.00009290       0.00016283 </v>
   <v>       0.00028927      -0.00053678       0.00060640 </v>
   <v>      -0.00085512      -0.00050601      -0.00023674 </v>
   <v>       0.00097580      -0.00119969       0.00029628 </v>
   <v>      -0.00326249      -0.00016283       0.00009290 </v>
[...]
       <r>     7.8728    12.6286   144.1029 </r>
       <r>     8.0662    12.2781   146.4769 </r>
       <r>     8.2595    15.7982   149.5320 </r>
       <r>     8.4529    17.2956   152.8801 </r>
       <r>     8.6462    13.7583   155.5405 </r>
       <r>     8.8396    14.0417   158.2568 </r>
       <r>     9.0330    16.8798   161.5237 </r>
       <r>     9.2263    20.7949   165.5516 </r>
       <r>     9.4197    16.4269   168.7293 </r>
       <r>     9.6130    19.2152   172.4450 </r>
       <r>     9.8064    13.3682   175.0299 </r>
       <r>     9.9997     5.0156   176.0000 </r>
       <r>    10.1931     0.0000   176.0000 </r>
       <r>    10.3865     0.0000   176.0000 </r>
       <r>    10.5798     0.0000   176.0000 </r>
       <r>    10.7732     0.0000   176.0000 </r>
       <r>    10.9665     0.0000   176.0000 </r>
       <r>    11.1599     0.0000   176.0000 </r>
       <r>    11.3532     0.0000   176.0000 </r>
       <r>    11.5466     0.0000   176.0000 </r>
       <r>    11.7400     0.0000   176.0000 </r>
       <r>    11.9333     0.0000   176.0000 </r>
       <r>    12.1267     0.0000   176.0000 </r>
       <r>    12.3200     0.0000   176.0000 </r>
       <r>    12.5134     0.0000   176.0000 </r>
      </set>
      <set comment="spin 2">
       <r>   -45.4936     0.0000     0.0000 </r>
       <r>   -45.3002     0.0000     0.0000 </r>
       <r>   -45.1069     0.0000     0.0000 </r>
       <r>   -44.9135     0.0000     0.0000 </r>
       <r>   -44.7202     0.0000     0.0000 </r>
       <r>   -44.5268     0.0000     0.0000 </r>
       <r>   -44.3334     0.0000     0.0000 </r>
       <r>   -44.1401     0.0000     0.0000 </r>
       <r>   -43.9467     0.0000     0.0000 </r>
       <r>   -43.7534     0.0000     0.0000 </r>
       <r>   -43.5600     0.0000     0.0000 </r>
       <r>   -43.3667     0.0000     0.0000 </r>
       <r>   -43.1733     0.0000     0.0000 </r>
       <r>   -42.9799     0.0000     0.0000 </r>
       <r>   -42.7866     5.1729     1.0002 </r>
       <r>   -42.5932    12.3882     3.3960 </r>
       <r>   -42.3999    62.0050    15.3851 </r>
       <r>   -42.2065    39.4886    23.0447 </r>
       <r>   -42.0132     4.9407    24.0000 </r>
       <r>   -41.8198     0.0000    24.0000 </r>
       <r>   -41.6265     0.0000    24.0000 </r>
       <r>   -41.4331     0.0000    24.0000 </r>
       <r>   -41.2397     0.0000    24.0000 </r>
       <r>   -41.0464     0.0000    24.0000 </r>
       <r>   -40.8530     0.0000    24.0000 </r>
       <r>   -40.6597     0.0000    24.0000 </r>
       <r>   -40.4663     0.0000    24.0000 </r>
       <r>   -40.2730     0.0000    24.0000 </r>
       <r>   -40.0796     0.0000    24.0000 </r>
       <r>   -39.8862     0.0000    24.0000 </r>
       <r>   -39.6929     0.0000    24.0000 </r>
       <r>   -39.4995     0.0000    24.0000 </r>
       <r>   -39.3062     0.0000    24.0000 </r>
       <r>   -39.1128     0.0000    24.0000 </r>
       <r>   -38.9195     0.0000    24.0000 </r>
       <r>   -38.7261     0.0000    24.0000 </r>
       <r>   -38.5327     0.0000    24.0000 </r>
       <r>   -38.3394     0.0000    24.0000 </r>
       <r>   -38.1460     0.0000    24.0000 </r>
       <r>   -37.9527     0.0000    24.0000 </r>
       <r>   -37.7593     0.0000    24.0000 </r>
       <r>   -37.5660     0.0000    24.0000 </r>
       <r>   -37.3726     0.0000    24.0000 </r>
       <r>   -37.1793     0.0000    24.0000 </r>
       <r>   -36.9859     0.0000    24.0000 </r>
       <r>   -36.7925     0.0000    24.0000 </r>
       <r>   -36.5992     0.0000    24.0000 </r>
       <r>   -36.4058     0.0000    24.0000 </r>
       <r>   -36.2125     0.0000    24.0000 </r>
       <r>   -36.0191     0.0000    24.0000 </r>
       <r>   -35.8258     0.0000    24.0000 </r>
       <r>   -35.6324     0.0000    24.0000 </r>
       <r>   -35.4390     0.0000    24.0000 </r>
       <r>   -35.2457     0.0000    24.0000 </r>
       <r>   -35.0523     0.0000    24.0000 </r>
       <r>   -34.8590     0.0000    24.0000 </r>
       <r>   -34.6656     0.0000    24.0000 </r>
       <r>   -34.4723     0.0000    24.0000 </r>
       <r>   -34.2789     0.0000    24.0000 </r>
       <r>   -34.0855     0.0000    24.0000 </r>
       <r>   -33.8922     0.0000    24.0000 </r>
       <r>   -33.6988     0.0000    24.0000 </r>
       <r>   -33.5055     0.0000    24.0000 </r>
       <r>   -33.3121     0.0000    24.0000 </r>
       <r>   -33.1188     0.0000    24.0000 </r>
       <r>   -32.9254     0.0000    24.0000 </r>
       <r>   -32.7321     0.0000    24.0000 </r>
       <r>   -32.5387     0.0000    24.0000 </r>
       <r>   -32.3453     0.0000    24.0000 </r>
       <r>   -32.1520     0.0000    24.0000 </r>
       <r>   -31.9586     0.0000    24.0000 </r>
       <r>   -31.7653     0.0000    24.0000 </r>
       <r>   -31.5719     0.0000    24.0000 </r>
       <r>   -31.3786     0.0000    24.0000 </r>
       <r>   -31.1852     0.0000    24.0000 </r>
       <r>   -30.9918     0.0000    24.0000 </r>
       <r>   -30.7985     0.0000    24.0000 </r>
       <r>   -30.6051     0.0000    24.0000 </r>
       <r>   -30.4118     0.0000    24.0000 </r>
       <r>   -30.2184     0.0000    24.0000 </r>
       <r>   -30.0251     0.0000    24.0000 </r>
       <r>   -29.8317     0.0000    24.0000 </r>
       <r>   -29.6383     0.0000    24.0000 </r>
       <r>   -29.4450     0.0000    24.0000 </r>
       <r>   -29.2516     0.0000    24.0000 </r>
       <r>   -29.0583     0.0000    24.0000 </r>
       <r>   -28.8649     0.0000    24.0000 </r>
       <r>   -28.6716     0.0000    24.0000 </r>
       <r>   -28.4782     0.0000    24.0000 </r>
       <r>   -28.2848     0.0000    24.0000 </r>
       <r>   -28.0915     0.0000    24.0000 </r>
       <r>   -27.8981     0.0000    24.0000 </r>
       <r>   -27.7048     0.0000    24.0000 </r>
       <r>   -27.5114     0.0000    24.0000 </r>
       <r>   -27.3181     0.0000    24.0000 </r>
       <r>   -27.1247     0.0000    24.0000 </r>
       <r>   -26.9314     0.0000    24.0000 </r>
       <r>   -26.7380     0.0000    24.0000 </r>
       <r>   -26.5446     0.0000    24.0000 </r>
       <r>   -26.3513     0.0000    24.0000 </r>
       <r>   -26.1579     0.0000    24.0000 </r>
       <r>   -25.9646     0.0000    24.0000 </r>
       <r>   -25.7712     0.0000    24.0000 </r>
       <r>   -25.5779     0.0000    24.0000 </r>
       <r>   -25.3845     0.0000    24.0000 </r>
       <r>   -25.1911     0.0000    24.0000 </r>
       <r>   -24.9978     0.0000    24.0000 </r>
       <r>   -24.8044     0.0000    24.0000 </r>
       <r>   -24.6111     0.0000    24.0000 </r>
       <r>   -24.4177     0.0000    24.0000 </r>
       <r>   -24.2244     0.0000    24.0000 </r>
       <r>   -24.0310     0.0000    24.0000 </r>
       <r>   -23.8376     0.0000    24.0000 </r>
       <r>   -23.6443     0.0000    24.0000 </r>
       <r>   -23.4509     0.0000    24.0000 </r>
       <r>   -23.2576     0.0000    24.0000 </r>
       <r>   -23.0642     0.0000    24.0000 </r>
       <r>   -22.8709     0.0000    24.0000 </r>
       <r>   -22.6775     0.0000    24.0000 </r>
       <r>   -22.4842     0.0000    24.0000 </r>
       <r>   -22.2908     0.0000    24.0000 </r>
       <r>   -22.0974     0.0000    24.0000 </r>
       <r>   -21.9041     0.0000    24.0000 </r>
       <r>   -21.7107     0.0000    24.0000 </r>
       <r>   -21.5174     0.0000    24.0000 </r>
       <r>   -21.3240     0.0000    24.0000 </r>
       <r>   -21.1307     0.0000    24.0000 </r>
       <r>   -20.9373     0.0000    24.0000 </r>
       <r>   -20.7439     0.0000    24.0000 </r>
       <r>   -20.5506     0.0000    24.0000 </r>
       <r>   -20.3572     0.0000    24.0000 </r>
       <r>   -20.1639     0.0000    24.0000 </r>
       <r>   -19.9705     0.0000    24.0000 </r>
       <r>   -19.7772     0.0000    24.0000 </r>
       <r>   -19.5838     0.0000    24.0000 </r>
       <r>   -19.3904     0.0000    24.0000 </r>
       <r>   -19.1971     0.0000    24.0000 </r>
       <r>   -19.0037     0.0000    24.0000 </r>
       <r>   -18.8104     0.0000    24.0000 </r>
       <r>   -18.6170     0.0000    24.0000 </r>
       <r>   -18.4237     0.0000    24.0000 </r>
       <r>   -18.2303     0.0000    24.0000 </r>
       <r>   -18.0370     0.0000    24.0000 </r>
       <r>   -17.8436     0.0000    24.0000 </r>
       <r>   -17.6502     0.0000    24.0000 </r>
       <r>   -17.4569     0.0000    24.0000 </r>
       <r>   -17.2635     0.0000    24.0000 </r>
       <r>   -17.0702     0.0000    24.0000 </r>
       <r>   -16.8768     0.0000    24.0000 </r>
       <r>   -16.6835     0.0000    24.0000 </r>
       <r>   -16.4901     0.0000    24.0000 </r>
       <r>   -16.2967     0.0000    24.0000 </r>
       <r>   -16.1034     0.0000    24.0000 </r>
       <r>   -15.9100     0.0000    24.0000 </r>
       <r>   -15.7167     0.0000    24.0000 </r>
       <r>   -15.5233     0.0000    24.0000 </r>
       <r>   -15.3300     0.0000    24.0000 </r>
       <r>   -15.1366     0.0000    24.0000 </r>
       <r>   -14.9432     0.0000    24.0000 </r>
       <r>   -14.7499     0.0000    24.0000 </r>
       <r>   -14.5565     0.0000    24.0000 </r>
       <r>   -14.3632     0.0000    24.0000 </r>
       <r>   -14.1698     0.0000    24.0000 </r>
       <r>   -13.9765     0.0000    24.0000 </r>
       <r>   -13.7831     0.0000    24.0000 </r>
       <r>   -13.5898     0.0000    24.0000 </r>
       <r>   -13.3964     0.0000    24.0000 </r>
       <r>   -13.2030     4.8827    24.9441 </r>
       <r>   -13.0097     3.1915    25.5612 </r>
       <r>   -12.8163    12.6133    28.0001 </r>
       <r>   -12.6230    10.1268    29.9581 </r>
       <r>   -12.4296    10.5256    31.9933 </r>
       <r>   -12.2363     0.0000    32.0000 </r>
       <r>   -12.0429     0.0000    32.0000 </r>
       <r>   -11.8495     0.0000    32.0000 </r>
       <r>   -11.6562     0.0000    32.0000 </r>
       <r>   -11.4628     0.0000    32.0000 </r>
       <r>   -11.2695     0.0000    32.0000 </r>
       <r>   -11.0761     0.0000    32.0000 </r>
       <r>   -10.8828     0.0000    32.0000 </r>
       <r>   -10.6894     0.0000    32.0000 </r>
       <r>   -10.4960     0.0000    32.0000 </r>
       <r>   -10.3027    15.3012    34.9586 </r>
       <r>   -10.1093     8.9477    36.6923 </r>
       <r>    -9.9160    27.2765    41.9664 </r>
       <r>    -9.7226    10.4737    44.0000 </r>
       <r>    -9.5293     0.0000    44.0000 </r>
       <r>    -9.3359     0.0000    44.0000 </r>
       <r>    -9.1426     0.0000    44.0000 </r>
       <r>    -8.9492     0.0000    44.0000 </r>
       <r>    -8.7558     0.0000    44.0000 </r>
       <r>    -8.5625     0.0000    44.0000 </r>
       <r>    -8.3691    15.5091    46.9988 </r>
       <r>    -8.1758     5.1718    48.0000 </r>
       <r>    -7.9824     0.0000    48.0000 </r>
       <r>    -7.7891     0.0000    48.0000 </r>
       <r>    -7.5957     0.0000    48.0000 </r>
       <r>    -7.4023     0.0000    48.0000 </r>
       <r>    -7.2090     0.0000    48.0000 </r>
       <r>    -7.0156     0.0000    48.0000 </r>
       <r>    -6.8223     0.0000    48.0000 </r>
       <r>    -6.6289     0.0000    48.0000 </r>
       <r>    -6.4356     0.0000    48.0000 </r>
       <r>    -6.2422     0.0121    48.0023 </r>
       <r>    -6.0488     5.1597    49.0000 </r>
       <r>    -5.8555     0.3846    49.0744 </r>
       <r>    -5.6621     5.2613    50.0917 </r>
       <r>    -5.4688     9.8694    52.0000 </r>
       <r>    -5.2754     0.0000    52.0000 </r>
       <r>    -5.0821     0.0000    52.0000 </r>
       <r>    -4.8887     0.0000    52.0000 </r>
       <r>    -4.6954     0.0000    52.0000 </r>
       <r>    -4.5020     0.0000    52.0000 </r>
       <r>    -4.3086     0.0000    52.0000 </r>
       <r>    -4.1153     0.0000    52.0000 </r>
       <r>    -3.9219     0.0000    52.0000 </r>
       <r>    -3.7286     0.0000    52.0000 </r>
       <r>    -3.5352     0.0000    52.0000 </r>
       <r>    -3.3419     0.0289    52.0056 </r>
       <r>    -3.1485    15.4833    54.9994 </r>
       <r>    -2.9551     0.2420    55.0468 </r>
       <r>    -2.7618     7.9766    56.5891 </r>
       <r>    -2.5684    11.3440    58.7826 </r>
       <r>    -2.3751    16.5762    61.9877 </r>
       <r>    -2.1817    10.3766    63.9997 </r>
       <r>    -1.9884     0.0000    64.0000 </r>
       <r>    -1.7950     0.0000    64.0000 </r>
       <r>    -1.6016     5.1405    64.9940 </r>
       <r>    -1.4083    11.7634    67.2749 </r>
       <r>    -1.2149    26.6255    72.4231 </r>
       <r>    -1.0216    13.2152    74.9785 </r>
       <r>    -0.8282     5.2680    76.0000 </r>
       <r>    -0.6349     4.6510    76.8993 </r>
       <r>    -0.4415    10.8642    79.0000 </r>
       <r>    -0.2482    14.1082    81.7279 </r>
       <r>    -0.0548    19.8814    85.5732 </r>
       <r>     0.1386    25.0572    90.4198 </r>
       <r>     0.3319    20.5124    94.3916 </r>
       <r>     0.5253     8.2910    96.0000 </r>
       <r>     0.7186     6.5302    97.2626 </r>
       <r>     0.9120    19.9747   101.1251 </r>
       <r>     1.1053    23.2761   105.6276 </r>
       <r>     1.2987    25.3650   110.5332 </r>
       <r>     1.4921    28.6240   116.0692 </r>
       <r>     1.6854    12.6367   118.5136 </r>
       <r>     1.8788     7.6869   119.9999 </r>
       <r>     2.0721     0.0000   120.0000 </r>
       <r>     2.2655     0.0000   120.0000 </r>
       <r>     2.4588     0.0000   120.0000 </r>
       <r>     2.6522     0.0000   120.0000 </r>
       <r>     2.8456     0.0000   120.0000 </r>
       <r>     3.0389     0.0000   120.0000 </r>
       <r>     3.2323     0.0000   120.0000 </r>
       <r>     3.4256     0.0000   120.0000 </r>
       <r>     3.6190     0.0000   120.0000 </r>
       <r>     3.8123     0.0000   120.0000 </r>
       <r>     4.0057     0.0000   120.0000 </r>
       <r>     4.1990     0.0000   120.0000 </r>
       <r>     4.3924     3.9293   120.7598 </r>
       <r>     4.5858     1.2425   121.0000 </r>
       <r>     4.7791     0.0000   121.0000 </r>
       <r>     4.9725     0.0000   121.0000 </r>
       <r>     5.1658     3.7429   121.7237 </r>
       <r>     5.3592    10.2300   123.7017 </r>
       <r>     5.5525     1.5409   124.0000 </r>
       <r>     5.7459     0.0252   124.0049 </r>
       <r>     5.9393     8.7239   125.6917 </r>
       <r>     6.1326    17.1979   129.0170 </r>
       <r>     6.3260     5.0801   130.0000 </r>
       <r>     6.5193     7.9696   131.5410 </r>
       <r>     6.7127     7.8208   133.0542 </r>
       <r>     6.9060    14.5067   135.8592 </r>
       <r>     7.0994     5.8687   136.9939 </r>
       <r>     7.2928     2.5942   137.4956 </r>
       <r>     7.4861    10.9642   139.6156 </r>
       <r>     7.6795    10.5779   141.6610 </r>
       <r>     7.8728    12.6286   144.1029 </r>
       <r>     8.0662    12.2781   146.4769 </r>
       <r>     8.2595    15.7982   149.5320 </r>
       <r>     8.4529    17.2956   152.8801 </r>
       <r>     8.6462    13.7583   155.5405 </r>
       <r>     8.8396    14.0417   158.2568 </r>
       <r>     9.0330    16.8798   161.5237 </r>
       <r>     9.2263    20.7948   165.5515 </r>
       <r>     9.4197    16.4342   168.7307 </r>
       <r>     9.6130    19.2327   172.4498 </r>
       <r>     9.8064    14.3775   175.2298 </r>
       <r>     9.9997     3.9772   176.0000 </r>
       <r>    10.1931     0.0000   176.0000 </r>
       <r>    10.3865     0.0000   176.0000 </r>
       <r>    10.5798     0.0000   176.0000 </r>
       <r>    10.7732     0.0000   176.0000 </r>
       <r>    10.9665     0.0000   176.0000 </r>
       <r>    11.1599     0.0000   176.0000 </r>
       <r>    11.3532     0.0000   176.0000 </r>
       <r>    11.5466     0.0000   176.0000 </r>
       <r>    11.7400     0.0000   176.0000 </r>
       <r>    11.9333     0.0000   176.0000 </r>
       <r>    12.1267     0.0000   176.0000 </r>
       <r>    12.3200     0.0000   176.0000 </r>
       <r>    12.5134     0.0000   176.0000 </r>
      </set>
     </set>
    </array>
   </total>
  </dos>
 </calculation>
 <structure name="finalpos" >
  <crystal>
   <varray name="basis" >
    <v>       9.68375366       0.00000000       0.00000000 </v>
    <v>       0.00000000       9.68375366       0.00000000 </v>
    <v>       0.00000000       0.00000000       9.68375366 </v>
   </varray>
   <i name="volume">    908.09482285 </i>
   <varray name="rec_basis" >
    <v>       0.10326574       0.00000000       0.00000000 </v>
    <v>       0.00000000       0.10326574       0.00000000 </v>
    <v>       0.00000000       0.00000000       0.10326574 </v>
   </varray>
  </crystal>
  <varray name="positions" >
   <v>       0.98400396       0.22527026       0.27459533 </v>
   <v>       0.97755350       0.75247457       0.74739102 </v>
   <v>       0.02396534       0.29642668       0.68288399 </v>
   <v>       0.02396534       0.81698160       0.20343891 </v>
   <v>       0.27058010       0.28422514       0.98903546 </v>
   <v>       0.22428764       0.80508807       0.01529254 </v>
   <v>       0.83100094       0.18993497       0.02642885 </v>
   <v>       0.81212575       0.84230074       0.96415404 </v>
   <v>       0.33541569       0.95220960       0.32480328 </v>
   <v>       0.18518380       0.03369221       0.81725297 </v>
   <v>       0.66199836       0.97378656       0.71711849 </v>
   <v>       0.70487702       0.01346384       0.29552450 </v>
   <v>       0.18518380       0.68261263       0.46617338 </v>
   <v>       0.33541569       0.17506231       0.54765599 </v>
   <v>       0.66199836       0.78274710       0.52607903 </v>
   <v>       0.70487702       0.20434109       0.48640175 </v>
   <v>       0.22428764       0.48457306       0.69477753 </v>
   <v>       0.27058010       0.51083014       0.21564045 </v>
   <v>       0.83100094       0.47343675       0.30993062 </v>
   <v>       0.81212575       0.53571155       0.65756485 </v>
   <v>       0.47910067       0.32089304       0.81118325 </v>
   <v>       0.47910067       0.68868235       0.17897256 </v>
   <v>       0.53585733       0.30711224       0.19275336 </v>
   <v>       0.67923098       0.57910655       0.92075904 </v>
   <v>       0.49878981       0.49922137       0.49449976 </v>
   <v>       0.49878981       0.00536583       0.00064423 </v>
   <v>       0.99245215       0.50551640       0.99434920 </v>
   <v>       0.00615628       0.98762217       0.51224343 </v>
   <v>       0.14089737       0.87231481       0.62755078 </v>
   <v>       0.14040646       0.10441033       0.39545526 </v>
   <v>       0.88113174       0.86296771       0.39444445 </v>
   <v>       0.88113174       0.10542114       0.63689788 </v>
   <v>       0.86706900       0.63145622       0.11014295 </v>
   <v>       0.86706900       0.38972265       0.86840937 </v>
   <v>       0.13049659       0.61812014       0.88174545 </v>
   <v>       0.09660793       0.37430621       0.12555939 </v>
   <v>       0.62765001       0.13789271       0.89497455 </v>
   <v>       0.62216339       0.87474160       0.11653005 </v>
   <v>       0.37659731       0.11557986       0.13441279 </v>
   <v>       0.39139594       0.89220991       0.86150285 </v>
   <v>       0.62765001       0.60489104       0.36197289 </v>
   <v>       0.62216339       0.38333555       0.62512400 </v>
   <v>       0.39139594       0.63836274       0.60765568 </v>
   <v>       0.37659731       0.36545280       0.38428573 </v>
   <v>       0.74386746       0.74681027       0.75305533 </v>
   <v>       0.75719629       0.24437860       0.25548700 </v>
   <v>       0.25175563       0.74332742       0.24305200 </v>
   <v>       0.25175563       0.25681359       0.75653817 </v>
   <v>       0.01152980       0.97946804       0.00534014 </v>
   <v>       0.01152980       0.49452546       0.52039755 </v>
   <v>       0.53466943       0.00712572       0.49273987 </v>
   <v>       0.47199076       0.47905810       0.02080749 </v>
  </varray>
 </structure>
</modeling>
