unknown system                          
           1
     9.683754    0.000000    0.000000
     0.000000    9.683754    0.000000
     0.000000    0.000000    9.683754
   Li   P    S    Cl
    24     4    20     4
Direct configuration=     1
   0.98400459  0.22527484  0.27459076
   0.97755476  0.75247544  0.74739015
   0.02396650  0.29642500  0.68289228
   0.02396650  0.81697331  0.20344059
   0.27057429  0.28421798  0.98903398
   0.22428473  0.80507930  0.01529655
   0.83098090  0.18993937  0.02643017
   0.81212729  0.84229250  0.96415609
   0.33540849  0.95221139  0.32479463
   0.18518970  0.03369096  0.81724938
   0.66202366  0.97378716  0.71711751
   0.70487479  0.01346800  0.29552016
   0.18518970  0.68261621  0.46617463
   0.33540849  0.17507097  0.54765420
   0.66202366  0.78274808  0.52607843
   0.70487479  0.20434543  0.48639760
   0.22428473  0.48456904  0.69478629
   0.27057429  0.51083162  0.21564761
   0.83098090  0.47343542  0.30992622
   0.81212729  0.53570951  0.65757309
   0.47909962  0.32088743  0.81117645
   0.47909962  0.68868914  0.17897816
   0.53586105  0.30711140  0.19275420
   0.67922994  0.57910988  0.92075571
   0.49878815  0.49921605  0.49449734
   0.49878815  0.00536825  0.00064954
   0.99245106  0.50551696  0.99434864
   0.00616049  0.98762675  0.51223885
   0.14088168  0.87232624  0.62753936
   0.14039932  0.10440376  0.39546183
   0.88114275  0.86299017  0.39444520
   0.88114275  0.10542039  0.63687543
   0.86707848  0.63144134  0.11013474
   0.86707848  0.38973086  0.86842425
   0.13047940  0.61811277  0.88175283
   0.09660300  0.37431983  0.12554576
   0.62763468  0.13787586  0.89497600
   0.62215502  0.87475516  0.11651740
   0.37661559  0.11557790  0.13440568
   0.39139651  0.89221917  0.86152477
   0.62763468  0.60488959  0.36198974
   0.62215502  0.38334819  0.62511043
   0.39139651  0.63834083  0.60764642
   0.37661559  0.36545992  0.38428770
   0.74387555  0.74681109  0.75305451
   0.75719720  0.24437851  0.25548709
   0.25175479  0.74332547  0.24305294
   0.25175479  0.25681266  0.75654012
   0.01152606  0.97944687  0.00533832
   0.01152606  0.49452728  0.52041872
   0.53468622  0.00712732  0.49273828
   0.47199412  0.47905286  0.02081274
Direct configuration=     2
   0.98400466  0.22527386  0.27459173
   0.97755457  0.75247524  0.74739036
   0.02396616  0.29642532  0.68289057
   0.02396616  0.81697502  0.20344027
   0.27057555  0.28421950  0.98903440
   0.22428533  0.80508112  0.01529557
   0.83098510  0.18993843  0.02642982
   0.81212688  0.84229418  0.96415568
   0.33541005  0.95221105  0.32479649
   0.18518843  0.03369115  0.81725017
   0.66201838  0.97378703  0.71711769
   0.70487528  0.01346703  0.29552111
   0.18518843  0.68261542  0.46617445
   0.33541005  0.17506910  0.54765454
   0.66201838  0.78274790  0.52607856
   0.70487528  0.20434449  0.48639857
   0.22428533  0.48457002  0.69478447
   0.27057555  0.51083119  0.21564609
   0.83098510  0.47343577  0.30992716
   0.81212688  0.53570992  0.65757141
   0.47909994  0.32088861  0.81117790
   0.47909994  0.68868769  0.17897699
   0.53586031  0.30711159  0.19275401
   0.67923011  0.57910916  0.92075644
   0.49878872  0.49921784  0.49449824
   0.49878872  0.00536736  0.00064776
   0.99245142  0.50551662  0.99434898
   0.00615851  0.98762607  0.51223953
   0.14088678  0.87232233  0.62754326
   0.14040218  0.10440639  0.39545920
   0.88113956  0.86298435  0.39444403
   0.88113956  0.10542157  0.63688124
   0.86707511  0.63144583  0.11013784
   0.86707511  0.38972775  0.86841976
   0.13048455  0.61811548  0.88175012
   0.09660485  0.37431575  0.12554985
   0.62763913  0.13788077  0.89497478
   0.62215791  0.87475095  0.11652124
   0.37661022  0.11557957  0.13440884
   0.39139536  0.89221612  0.86151887
   0.62763913  0.60489081  0.36198482
   0.62215791  0.38334436  0.62511464
   0.39139536  0.63834673  0.60764948
   0.37661022  0.36545675  0.38428603
   0.74387359  0.74681088  0.75305472
   0.75719698  0.24437862  0.25548697
   0.25175498  0.74332595  0.24305287
   0.25175498  0.25681273  0.75653964
   0.01152710  0.97945212  0.00533873
   0.01152710  0.49452686  0.52041347
   0.53468204  0.00712679  0.49273881
   0.47199346  0.47905433  0.02081127
Direct configuration=     3
   0.98400471  0.22527312  0.27459247
   0.97755442  0.75247508  0.74739051
   0.02396590  0.29642557  0.68288928
   0.02396590  0.81697632  0.20344003
   0.27057651  0.28422065  0.98903473
   0.22428579  0.80508250  0.01529483
   0.83098829  0.18993771  0.02642956
   0.81212656  0.84229546  0.96415537
   0.33541122  0.95221080  0.32479791
   0.18518747  0.03369129  0.81725077
   0.66201438  0.97378693  0.71711783
   0.70487565  0.01346629  0.29552182
   0.18518747  0.68261482  0.46617430
   0.33541122  0.17506769  0.54765480
   0.66201438  0.78274776  0.52607866
   0.70487565  0.20434377  0.48639930
   0.22428579  0.48457076  0.69478309
   0.27057651  0.51083087  0.21564494
   0.83098829  0.47343603  0.30992788
   0.81212656  0.53571022  0.65757014
   0.47910018  0.32088950  0.81117900
   0.47910018  0.68868659  0.17897609
   0.53585976  0.30711173  0.19275387
   0.67923023  0.57910861  0.92075699
   0.49878915  0.49921919  0.49449892
   0.49878915  0.00536668  0.00064641
   0.99245170  0.50551636  0.99434924
   0.00615701  0.98762555  0.51224004
   0.14089065  0.87231937  0.62754622
   0.14040435  0.10440839  0.39545720
   0.88113715  0.86297994  0.39444314
   0.88113715  0.10542246  0.63688565
   0.86707256  0.63144923  0.11014020
   0.86707256  0.38972540  0.86841636
   0.13048846  0.61811753  0.88174807
   0.09660626  0.37431265  0.12555295
   0.62764251  0.13788450  0.89497386
   0.62216010  0.87474776  0.11652415
   0.37660616  0.11558083  0.13441125
   0.39139448  0.89221380  0.86151440
   0.62764251  0.60489174  0.36198109
   0.62216010  0.38334145  0.62511784
   0.39139448  0.63835120  0.60765179
   0.37660616  0.36545435  0.38428476
   0.74387211  0.74681071  0.75305488
   0.75719681  0.24437871  0.25548688
   0.25175512  0.74332632  0.24305282
   0.25175512  0.25681278  0.75653927
   0.01152788  0.97945611  0.00533904
   0.01152788  0.49452655  0.52040949
   0.53467886  0.00712639  0.49273921
   0.47199296  0.47905544  0.02081016
Direct configuration=     4
   0.98400482  0.22527164  0.27459395
   0.97755413  0.75247477  0.74739082
   0.02396539  0.29642605  0.68288669
   0.02396539  0.81697891  0.20343954
   0.27057842  0.28422295  0.98903537
   0.22428671  0.80508526  0.01529335
   0.83099466  0.18993628  0.02642903
   0.81212593  0.84229801  0.96415475
   0.33541358  0.95221028  0.32480073
   0.18518555  0.03369157  0.81725198
   0.66200637  0.97378673  0.71711810
   0.70487638  0.01346482  0.29552326
   0.18518555  0.68261362  0.46617402
   0.33541358  0.17506486  0.54765531
   0.66200637  0.78274749  0.52607887
   0.70487638  0.20434234  0.48640077
   0.22428671  0.48457225  0.69478034
   0.27057842  0.51083022  0.21564264
   0.83099466  0.47343656  0.30992931
   0.81212593  0.53571084  0.65756758
   0.47910066  0.32089128  0.81118120
   0.47910066  0.68868439  0.17897431
   0.53585864  0.30711201  0.19275358
   0.67923048  0.57910751  0.92075809
   0.49879001  0.49922189  0.49450028
   0.49879001  0.00536531  0.00064371
   0.99245225  0.50551584  0.99434976
   0.00615401  0.98762452  0.51224107
   0.14089839  0.87231345  0.62755214
   0.14040868  0.10441238  0.39545321
   0.88113231  0.86297112  0.39444135
   0.88113231  0.10542424  0.63689447
   0.86706744  0.63145604  0.11014491
   0.86706744  0.38972069  0.86840956
   0.13049627  0.61812163  0.88174396
   0.09660907  0.37430645  0.12555914
   0.62764926  0.13789195  0.89497201
   0.62216449  0.87474137  0.11652996
   0.37659802  0.11558336  0.13441605
   0.39139272  0.89220917  0.86150545
   0.62764926  0.60489359  0.36197364
   0.62216449  0.38333563  0.62512422
   0.39139272  0.63836014  0.60765642
   0.37659802  0.36544955  0.38428223
   0.74386915  0.74681039  0.75305520
   0.75719648  0.24437889  0.25548670
   0.25175540  0.74332705  0.24305271
   0.25175540  0.25681288  0.75653854
   0.01152946  0.97946407  0.00533967
   0.01152946  0.49452592  0.52040152
   0.53467252  0.00712558  0.49274001
   0.47199195  0.47905766  0.02080793
Direct configuration=     5
   0.98400479  0.22527204  0.27459356
   0.97755421  0.75247485  0.74739074
   0.02396553  0.29642592  0.68288738
   0.02396553  0.81697822  0.20343967
   0.27057791  0.28422234  0.98903520
   0.22428646  0.80508452  0.01529374
   0.83099296  0.18993667  0.02642917
   0.81212610  0.84229733  0.96415492
   0.33541295  0.95221042  0.32479998
   0.18518606  0.03369150  0.81725166
   0.66200851  0.97378678  0.71711803
   0.70487618  0.01346522  0.29552287
   0.18518606  0.68261394  0.46617410
   0.33541295  0.17506562  0.54765517
   0.66200851  0.78274756  0.52607881
   0.70487618  0.20434272  0.48640038
   0.22428646  0.48457185  0.69478107
   0.27057791  0.51083039  0.21564325
   0.83099296  0.47343642  0.30992893
   0.81212610  0.53571067  0.65756827
   0.47910053  0.32089081  0.81118061
   0.47910053  0.68868498  0.17897479
   0.53585894  0.30711194  0.19275366
   0.67923041  0.57910780  0.92075779
   0.49878978  0.49922116  0.49449992
   0.49878978  0.00536568  0.00064443
   0.99245210  0.50551597  0.99434962
   0.00615481  0.98762480  0.51224080
   0.14089632  0.87231503  0.62755056
   0.14040752  0.10441132  0.39545428
   0.88113360  0.86297348  0.39444183
   0.88113360  0.10542376  0.63689211
   0.86706881  0.63145422  0.11014365
   0.86706881  0.38972195  0.86841138
   0.13049418  0.61812054  0.88174506
   0.09660832  0.37430811  0.12555749
   0.62764745  0.13788996  0.89497250
   0.62216332  0.87474308  0.11652841
   0.37660019  0.11558269  0.13441477
   0.39139319  0.89221041  0.86150784
   0.62764745  0.60489309  0.36197563
   0.62216332  0.38333718  0.62512252
   0.39139319  0.63835775  0.60765519
   0.37660019  0.36545083  0.38428291
   0.74386994  0.74681048  0.75305512
   0.75719657  0.24437884  0.25548675
   0.25175533  0.74332685  0.24305274
   0.25175533  0.25681286  0.75653874
   0.01152904  0.97946194  0.00533950
   0.01152904  0.49452609  0.52040365
   0.53467421  0.00712580  0.49273980
   0.47199222  0.47905707  0.02080853
Direct configuration=     6
   0.98400481  0.22527175  0.27459384
   0.97755415  0.75247480  0.74739080
   0.02396543  0.29642601  0.68288688
   0.02396543  0.81697871  0.20343958
   0.27057828  0.28422278  0.98903532
   0.22428664  0.80508505  0.01529346
   0.83099418  0.18993639  0.02642907
   0.81212598  0.84229782  0.96415480
   0.33541341  0.95221032  0.32480052
   0.18518569  0.03369155  0.81725189
   0.66200697  0.97378674  0.71711808
   0.70487633  0.01346493  0.29552315
   0.18518569  0.68261371  0.46617404
   0.33541341  0.17506507  0.54765527
   0.66200697  0.78274751  0.52607885
   0.70487633  0.20434244  0.48640066
   0.22428664  0.48457214  0.69478054
   0.27057828  0.51083027  0.21564281
   0.83099418  0.47343652  0.30992920
   0.81212598  0.53571079  0.65756778
   0.47910062  0.32089115  0.81118104
   0.47910062  0.68868456  0.17897445
   0.53585873  0.30711199  0.19275360
   0.67923046  0.57910759  0.92075800
   0.49878995  0.49922168  0.49450018
   0.49878995  0.00536542  0.00064391
   0.99245221  0.50551587  0.99434972
   0.00615424  0.98762460  0.51224099
   0.14089780  0.87231390  0.62755170
   0.14040835  0.10441208  0.39545351
   0.88113268  0.86297179  0.39444149
   0.88113268  0.10542411  0.63689381
   0.86706783  0.63145553  0.11014455
   0.86706783  0.38972104  0.86841007
   0.13049568  0.61812132  0.88174427
   0.09660886  0.37430692  0.12555867
   0.62764875  0.13789139  0.89497215
   0.62216416  0.87474185  0.11652953
   0.37659863  0.11558317  0.13441569
   0.39139285  0.89220952  0.86150612
   0.62764875  0.60489345  0.36197420
   0.62216416  0.38333607  0.62512374
   0.39139285  0.63835947  0.60765608
   0.37659863  0.36544991  0.38428242
   0.74386937  0.74681041  0.75305518
   0.75719650  0.24437888  0.25548672
   0.25175538  0.74332700  0.24305272
   0.25175538  0.25681288  0.75653860
   0.01152934  0.97946347  0.00533962
   0.01152934  0.49452597  0.52040212
   0.53467299  0.00712564  0.49273995
   0.47199203  0.47905749  0.02080810
Direct configuration=     7
   0.98400396  0.22527026  0.27459533
   0.97755350  0.75247457  0.74739102
   0.02396534  0.29642668  0.68288399
   0.02396534  0.81698160  0.20343891
   0.27058010  0.28422514  0.98903546
   0.22428764  0.80508807  0.01529254
   0.83100094  0.18993497  0.02642885
   0.81212575  0.84230074  0.96415404
   0.33541569  0.95220960  0.32480328
   0.18518380  0.03369221  0.81725297
   0.66199836  0.97378656  0.71711849
   0.70487702  0.01346384  0.29552450
   0.18518380  0.68261263  0.46617338
   0.33541569  0.17506231  0.54765599
   0.66199836  0.78274710  0.52607903
   0.70487702  0.20434109  0.48640175
   0.22428764  0.48457306  0.69477753
   0.27058010  0.51083014  0.21564045
   0.83100094  0.47343675  0.30993062
   0.81212575  0.53571155  0.65756485
   0.47910067  0.32089304  0.81118325
   0.47910067  0.68868235  0.17897256
   0.53585733  0.30711224  0.19275336
   0.67923098  0.57910655  0.92075904
   0.49878981  0.49922137  0.49449976
   0.49878981  0.00536583  0.00064423
   0.99245215  0.50551640  0.99434920
   0.00615628  0.98762217  0.51224343
   0.14089737  0.87231481  0.62755078
   0.14040646  0.10441033  0.39545526
   0.88113174  0.86296771  0.39444445
   0.88113174  0.10542114  0.63689788
   0.86706900  0.63145622  0.11014295
   0.86706900  0.38972265  0.86840937
   0.13049659  0.61812014  0.88174545
   0.09660793  0.37430621  0.12555939
   0.62765001  0.13789271  0.89497455
   0.62216339  0.87474160  0.11653005
   0.37659731  0.11557986  0.13441279
   0.39139594  0.89220991  0.86150285
   0.62765001  0.60489104  0.36197289
   0.62216339  0.38333555  0.62512400
   0.39139594  0.63836274  0.60765568
   0.37659731  0.36545280  0.38428573
   0.74386746  0.74681027  0.75305533
   0.75719629  0.24437860  0.25548700
   0.25175563  0.74332742  0.24305200
   0.25175563  0.25681359  0.75653817
   0.01152980  0.97946804  0.00534014
   0.01152980  0.49452546  0.52039755
   0.53466943  0.00712572  0.49273987
   0.47199076  0.47905810  0.02080749
