       N       E                     dE             d eps       ncg     rms          rms(c)
DAV:   1     0.157695966965E+04    0.15770E+04   -0.11335E+05  2320   0.126E+03
DAV:   2    -0.596896173104E+02   -0.16366E+04   -0.15419E+04  2896   0.359E+02
DAV:   3    -0.229937772012E+03   -0.17025E+03   -0.16818E+03  2848   0.116E+02
DAV:   4    -0.242441240251E+03   -0.12503E+02   -0.12478E+02  3528   0.324E+01
DAV:   5    -0.242738603293E+03   -0.29736E+00   -0.29725E+00  3432   0.471E+00
DAV:   6    -0.242746612070E+03   -0.80088E-02   -0.80075E-02  3472   0.102E+00
DAV:   7    -0.242747000041E+03   -0.38797E-03   -0.38795E-03  3424   0.207E-01
DAV:   8    -0.242747024141E+03   -0.24100E-04   -0.24100E-04  3448   0.612E-02
DAV:   9    -0.242747025746E+03   -0.16049E-05   -0.16049E-05  3384   0.134E-02
DAV:  10    -0.242747025821E+03   -0.75517E-07   -0.75209E-07  1992   0.423E-03    0.652E+01
RMM:  11    -0.235070608681E+03    0.76764E+01   -0.49784E+01  2112   0.196E+01    0.334E+01
RMM:  12    -0.255884124641E+03   -0.20814E+02   -0.24147E+01  2226   0.138E+01    0.206E+01
RMM:  13    -0.258343608302E+03   -0.24595E+01   -0.95799E+00  2174   0.549E+00    0.703E+00
RMM:  14    -0.258569888413E+03   -0.22628E+00   -0.22753E+00  2845   0.348E+00    0.330E+00
RMM:  15    -0.258522792103E+03    0.47096E-01   -0.35562E-01  2284   0.171E+00    0.756E-01
RMM:  16    -0.258542009867E+03   -0.19218E-01   -0.12826E-01  2294   0.960E-01    0.329E-01
RMM:  17    -0.258548815010E+03   -0.68051E-02   -0.31572E-02  2568   0.505E-01    0.181E-01
RMM:  18    -0.258549980868E+03   -0.11659E-02   -0.77573E-03  2609   0.220E-01    0.967E-02
RMM:  19    -0.258550589943E+03   -0.60908E-03   -0.20887E-03  2812   0.114E-01    0.467E-02
RMM:  20    -0.258550705753E+03   -0.11581E-03   -0.60231E-04  2837   0.547E-02    0.264E-02
RMM:  21    -0.258550726385E+03   -0.20632E-04   -0.18207E-04  2607   0.298E-02    0.108E-02
RMM:  22    -0.258550735032E+03   -0.86474E-05   -0.61253E-05  2826   0.166E-02    0.642E-03
RMM:  23    -0.258550734716E+03    0.31607E-06   -0.14894E-05  2329   0.881E-03    0.305E-03
RMM:  24    -0.258550734238E+03    0.47776E-06   -0.62082E-06  1834   0.629E-03
   1 F= -.27188506E+03 E0= -.27188506E+03  d E =-.271885E+03  mag=    -0.0005
       N       E                     dE             d eps       ncg     rms          rms(c)
DAV:   1    -0.258550873502E+03   -0.13879E-03   -0.50737E-03  2288   0.132E-01    0.148E-02
RMM:   2    -0.258550890751E+03   -0.17249E-04   -0.29669E-04  2156   0.641E-02    0.685E-03
RMM:   3    -0.258550900064E+03   -0.93135E-05   -0.12240E-04  2443   0.288E-02    0.424E-03
RMM:   4    -0.258550902562E+03   -0.24975E-05   -0.20857E-05  2354   0.125E-02    0.311E-03
RMM:   5    -0.258550902710E+03   -0.14836E-06   -0.24265E-06  1561   0.486E-03
   2 F= -.27188527E+03 E0= -.27188527E+03  d E =-.211688E-03  mag=     0.0000
       N       E                     dE             d eps       ncg     rms          rms(c)
DAV:   1    -0.258550890405E+03    0.12157E-04   -0.11818E-02  2544   0.203E-01    0.222E-02
RMM:   2    -0.258550936280E+03   -0.45875E-04   -0.69975E-04  2158   0.978E-02    0.106E-02
RMM:   3    -0.258550958570E+03   -0.22290E-04   -0.27852E-04  2489   0.439E-02    0.662E-03
RMM:   4    -0.258550963853E+03   -0.52834E-05   -0.48137E-05  2586   0.185E-02    0.479E-03
RMM:   5    -0.258550964112E+03   -0.25843E-06   -0.54930E-06  1960   0.593E-03
   3 F= -.27188540E+03 E0= -.27188540E+03  d E =-.339410E-03  mag=     0.0000
       N       E                     dE             d eps       ncg     rms          rms(c)
DAV:   1    -0.258550962760E+03    0.10931E-05   -0.11471E-05  2648   0.656E-03    0.128E-03
RMM:   2    -0.258550962556E+03    0.20446E-06   -0.86923E-07  1355   0.372E-03
   4 F= -.27188540E+03 E0= -.27188540E+03  d E =-.339730E-03  mag=     0.0000
       N       E                     dE             d eps       ncg     rms          rms(c)
DAV:   1    -0.258550984063E+03   -0.21303E-04   -0.13757E-03  2608   0.698E-02    0.689E-03
RMM:   2    -0.258550987804E+03   -0.37405E-05   -0.42675E-05  2450   0.228E-02    0.242E-03
RMM:   3    -0.258550988875E+03   -0.10715E-05   -0.12348E-05  2358   0.110E-02    0.178E-03
RMM:   4    -0.258550988961E+03   -0.85671E-07   -0.23656E-06  1500   0.602E-03
   5 F= -.27188542E+03 E0= -.27188542E+03  d E =-.188242E-04  mag=     0.0000
       N       E                     dE             d eps       ncg     rms          rms(c)
DAV:   1    -0.258551002775E+03   -0.13900E-04   -0.10666E-02  2472   0.194E-01    0.195E-02
RMM:   2    -0.258551032817E+03   -0.30042E-04   -0.32817E-04  2448   0.627E-02    0.697E-03
RMM:   3    -0.258551041383E+03   -0.85666E-05   -0.92935E-05  2924   0.305E-02    0.494E-03
RMM:   4    -0.258551042491E+03   -0.11077E-05   -0.15824E-05  2198   0.111E-02    0.308E-03
RMM:   5    -0.258551042390E+03    0.10067E-06   -0.12979E-06  1418   0.471E-03
   6 F= -.27188545E+03 E0= -.27188545E+03  d E =-.511383E-04  mag=     0.0000
       N       E                     dE             d eps       ncg     rms          rms(c)
DAV:   1    -0.258550902880E+03    0.13961E-03   -0.42583E-02  2400   0.388E-01    0.387E-02
RMM:   2    -0.258551024171E+03   -0.12129E-03   -0.13114E-03  2450   0.125E-01    0.136E-02
RMM:   3    -0.258551056880E+03   -0.32708E-04   -0.34888E-04  2868   0.607E-02    0.935E-03
RMM:   4    -0.258551063054E+03   -0.61743E-05   -0.81512E-05  2921   0.263E-02    0.632E-03
RMM:   5    -0.258551063005E+03    0.48911E-07   -0.48320E-06  1821   0.706E-03
   7 F= -.27188543E+03 E0= -.27188543E+03  d E =-.297311E-04  mag=    -0.0000
       N       E                     dE             d eps       ncg     rms          rms(c)
DAV:   1    -0.258550963808E+03    0.99246E-04   -0.24534E-02  2336   0.295E-01    0.289E-02
RMM:   2    -0.258551035421E+03   -0.71612E-04   -0.75395E-04  2456   0.942E-02    0.100E-02
RMM:   3    -0.258551054542E+03   -0.19121E-04   -0.19812E-04  2850   0.457E-02    0.708E-03
RMM:   4    -0.258551057800E+03   -0.32579E-05   -0.46346E-05  2732   0.199E-02    0.456E-03
RMM:   5    -0.258551057711E+03    0.88363E-07   -0.23418E-06  1502   0.563E-03
   8 F= -.27188545E+03 E0= -.27188545E+03  d E =-.563201E-04  mag=     0.0000
       N       E                     dE             d eps       ncg     rms          rms(c)
DAV:   1    -0.258551070893E+03   -0.13094E-04   -0.67421E-04  2432   0.473E-02    0.469E-03
RMM:   2    -0.258551072720E+03   -0.18265E-05   -0.20675E-05  2440   0.154E-02    0.153E-03
RMM:   3    -0.258551073090E+03   -0.37064E-06   -0.53386E-06  1674   0.704E-03
   9 F= -.27188546E+03 E0= -.27188546E+03  d E =-.114792E-04  mag=    -0.0000
       N       E                     dE             d eps       ncg     rms          rms(c)
DAV:   1    -0.258551092041E+03   -0.19322E-04   -0.27342E-03  2360   0.943E-02    0.915E-03
RMM:   2    -0.258551099107E+03   -0.70655E-05   -0.76701E-05  2507   0.306E-02    0.317E-03
RMM:   3    -0.258551101162E+03   -0.20551E-05   -0.23090E-05  2591   0.148E-02    0.241E-03
RMM:   4    -0.258551101241E+03   -0.78779E-07   -0.27874E-06  1426   0.576E-03
  10 F= -.27188549E+03 E0= -.27188549E+03  d E =-.318383E-04  mag=     0.0000
       N       E                     dE             d eps       ncg     rms          rms(c)
DAV:   1    -0.258551111451E+03   -0.10289E-04   -0.10836E-02  2352   0.188E-01    0.190E-02
RMM:   2    -0.258551139495E+03   -0.28044E-04   -0.30190E-04  2552   0.585E-02    0.634E-03
RMM:   3    -0.258551146568E+03   -0.70725E-05   -0.75886E-05  2822   0.279E-02    0.399E-03
RMM:   4    -0.258551148064E+03   -0.14965E-05   -0.19492E-05  2103   0.129E-02    0.305E-03
RMM:   5    -0.258551148028E+03    0.36029E-07   -0.98613E-07  1410   0.445E-03
  11 F= -.27188552E+03 E0= -.27188552E+03  d E =-.630767E-04  mag=    -0.0000
       N       E                     dE             d eps       ncg     rms          rms(c)
DAV:   1    -0.258551051418E+03    0.96646E-04   -0.43206E-02  2336   0.375E-01    0.378E-02
RMM:   2    -0.258551164311E+03   -0.11289E-03   -0.12077E-03  2560   0.117E-01    0.123E-02
RMM:   3    -0.258551195398E+03   -0.31088E-04   -0.32505E-04  2860   0.555E-02    0.851E-03
RMM:   4    -0.258551199632E+03   -0.42340E-05   -0.55331E-05  2866   0.226E-02    0.649E-03
RMM:   5    -0.258551199350E+03    0.28202E-06   -0.37838E-06  1657   0.645E-03
  12 F= -.27188554E+03 E0= -.27188554E+03  d E =-.834334E-04  mag=    -0.0000
       N       E                     dE             d eps       ncg     rms          rms(c)
DAV:   1    -0.258551171965E+03    0.27668E-04   -0.45577E-03  2552   0.123E-01    0.118E-02
RMM:   2    -0.258551184601E+03   -0.12637E-04   -0.12919E-04  2589   0.383E-02    0.381E-03
RMM:   3    -0.258551187765E+03   -0.31634E-05   -0.32312E-05  2596   0.176E-02    0.271E-03
RMM:   4    -0.258551188196E+03   -0.43078E-06   -0.71225E-06  1630   0.857E-03
  13 F= -.27188554E+03 E0= -.27188554E+03  d E =-.822895E-04  mag=    -0.0000
       N       E                     dE             d eps       ncg     rms          rms(c)
DAV:   1    -0.258551190003E+03   -0.22386E-05   -0.14598E-03  2608   0.695E-02    0.727E-03
RMM:   2    -0.258551193731E+03   -0.37274E-05   -0.41938E-05  2578   0.216E-02    0.221E-03
RMM:   3    -0.258551194816E+03   -0.10850E-05   -0.12174E-05  2121   0.102E-02    0.141E-03
RMM:   4    -0.258551194824E+03   -0.79635E-08   -0.10026E-06  1384   0.469E-03
  14 F= -.27188554E+03 E0= -.27188554E+03  d E =-.832019E-04  mag=    -0.0000
       N       E                     dE             d eps       ncg     rms          rms(c)
DAV:   1    -0.258551190373E+03    0.44426E-05   -0.36375E-04  2400   0.349E-02    0.347E-03
RMM:   2    -0.258551191522E+03   -0.11484E-05   -0.11172E-05  2164   0.112E-02    0.112E-03
RMM:   3    -0.258551191741E+03   -0.21957E-06   -0.26442E-06  1413   0.534E-03
  15 F= -.27188554E+03 E0= -.27188554E+03  d E =-.829801E-04  mag=    -0.0000
       N       E                     dE             d eps       ncg     rms          rms(c)
DAV:   1    -0.258551193333E+03   -0.18118E-05   -0.14909E-04  2368   0.228E-02    0.263E-03
RMM:   2    -0.258551193682E+03   -0.34842E-06   -0.46116E-06  1543   0.785E-03
  16 F= -.27188554E+03 E0= -.27188554E+03  d E =-.830614E-04  mag=     0.0000
       N       E                     dE             d eps       ncg     rms          rms(c)
DAV:   1    -0.258551192695E+03    0.63860E-06   -0.34785E-05  2280   0.117E-02    0.139E-03
RMM:   2    -0.258551192787E+03   -0.91864E-07   -0.89722E-07  1117   0.347E-03
  17 F= -.27188554E+03 E0= -.27188554E+03  d E =-.830959E-04  mag=    -0.0000
       N       E                     dE             d eps       ncg     rms          rms(c)
DAV:   1    -0.258551193282E+03   -0.58748E-06   -0.70901E-06  1528   0.528E-03    0.601E-04
RMM:   2    -0.258551193293E+03   -0.10588E-07   -0.31606E-07  1053   0.264E-03
  18 F= -.27188554E+03 E0= -.27188554E+03  d E =-.831639E-04  mag=    -0.0000
       N       E                     dE             d eps       ncg     rms          rms(c)
DAV:   1    -0.258551193173E+03    0.10933E-06   -0.44433E-07  1248   0.170E-03    0.254E-04
RMM:   2    -0.258551193176E+03   -0.28867E-08   -0.24093E-08   617   0.692E-04
  19 F= -.27188554E+03 E0= -.27188554E+03  d E =-.831658E-04  mag=    -0.0000
       N       E                     dE             d eps       ncg     rms          rms(c)
DAV:   1    -0.258551193244E+03   -0.70753E-07   -0.94023E-08  1200   0.723E-04    0.140E-04
RMM:   2    -0.258551193243E+03    0.80217E-09   -0.13315E-08   687   0.523E-04
  20 F= -.27188554E+03 E0= -.27188554E+03  d E =-.831737E-04  mag=     0.0000
       N       E                     dE             d eps       ncg     rms          rms(c)
DAV:   1    -0.258551199844E+03   -0.66002E-05   -0.14995E-03  2344   0.673E-02    0.540E-03
RMM:   2    -0.258551203731E+03   -0.38872E-05   -0.41914E-05  2635   0.200E-02    0.142E-03
RMM:   3    -0.258551204395E+03   -0.66364E-06   -0.93813E-06  1731   0.947E-03
  21 F= -.27188555E+03 E0= -.27188555E+03  d E =-.967016E-05  mag=     0.0000
       N       E                     dE             d eps       ncg     rms          rms(c)
DAV:   1    -0.258551207357E+03   -0.36260E-05   -0.26383E-04  2592   0.286E-02    0.210E-03
RMM:   2    -0.258551208043E+03   -0.68546E-06   -0.78145E-06  1780   0.972E-03
  22 F= -.27188555E+03 E0= -.27188555E+03  d E =-.127236E-04  mag=    -0.0000
       N       E                     dE             d eps       ncg     rms          rms(c)
DAV:   1    -0.258551211475E+03   -0.41181E-05   -0.99522E-04  2432   0.551E-02    0.418E-03
RMM:   2    -0.258551214176E+03   -0.27010E-05   -0.29197E-05  2568   0.175E-02    0.127E-03
RMM:   3    -0.258551214630E+03   -0.45363E-06   -0.68397E-06  1696   0.822E-03
  23 F= -.27188555E+03 E0= -.27188555E+03  d E =-.181159E-04  mag=     0.0000
       N       E                     dE             d eps       ncg     rms          rms(c)
DAV:   1    -0.258551211561E+03    0.26151E-05   -0.39486E-03  2432   0.109E-01    0.830E-03
RMM:   2    -0.258551221543E+03   -0.99821E-05   -0.10653E-04  2740   0.327E-02    0.241E-03
RMM:   3    -0.258551223923E+03   -0.23800E-05   -0.28065E-05  2380   0.156E-02    0.248E-03
RMM:   4    -0.258551223968E+03   -0.44794E-07   -0.20333E-06  1452   0.535E-03
  24 F= -.27188556E+03 E0= -.27188556E+03  d E =-.250982E-04  mag=    -0.0000
       N       E                     dE             d eps       ncg     rms          rms(c)
DAV:   1    -0.258551227953E+03   -0.40301E-05   -0.27946E-03  2496   0.895E-02    0.565E-03
RMM:   2    -0.258551235364E+03   -0.74111E-05   -0.78228E-05  2795   0.277E-02    0.211E-03
RMM:   3    -0.258551237105E+03   -0.17409E-05   -0.20103E-05  2208   0.127E-02    0.202E-03
RMM:   4    -0.258551237089E+03    0.16140E-07   -0.10884E-06  1420   0.477E-03
  25 F= -.27188557E+03 E0= -.27188557E+03  d E =-.123174E-04  mag=    -0.0000
       N       E                     dE             d eps       ncg     rms          rms(c)
DAV:   1    -0.258551236647E+03    0.45860E-06   -0.20272E-03  2608   0.760E-02    0.503E-03
RMM:   2    -0.258551241970E+03   -0.53234E-05   -0.56703E-05  2742   0.235E-02    0.185E-03
RMM:   3    -0.258551243193E+03   -0.12231E-05   -0.14569E-05  1980   0.110E-02    0.162E-03
RMM:   4    -0.258551243201E+03   -0.74087E-08   -0.86296E-07  1408   0.493E-03
  26 F= -.27188558E+03 E0= -.27188558E+03  d E =-.177431E-04  mag=    -0.0000
       N       E                     dE             d eps       ncg     rms          rms(c)
DAV:   1    -0.258551239922E+03    0.32708E-05   -0.33845E-03  2416   0.915E-02    0.555E-03
RMM:   2    -0.258551248022E+03   -0.80998E-05   -0.83795E-05  2840   0.262E-02    0.206E-03
RMM:   3    -0.258551250052E+03   -0.20294E-05   -0.22180E-05  1985   0.122E-02    0.186E-03
RMM:   4    -0.258551250077E+03   -0.25722E-07   -0.10282E-06  1424   0.482E-03
  27 F= -.27188559E+03 E0= -.27188559E+03  d E =-.100354E-04  mag=    -0.0000
       N       E                     dE             d eps       ncg     rms          rms(c)
DAV:   1    -0.258551242600E+03    0.74513E-05   -0.39151E-03  2544   0.982E-02    0.599E-03
RMM:   2    -0.258551251879E+03   -0.92786E-05   -0.96442E-05  2848   0.282E-02    0.225E-03
RMM:   3    -0.258551254290E+03   -0.24107E-05   -0.26150E-05  2144   0.132E-02    0.206E-03
RMM:   4    -0.258551254299E+03   -0.89567E-08   -0.10265E-06  1404   0.480E-03
  28 F= -.27188560E+03 E0= -.27188560E+03  d E =-.176280E-04  mag=    -0.0000
       N       E                     dE             d eps       ncg     rms          rms(c)
DAV:   1    -0.258551254138E+03    0.15205E-06   -0.22024E-04  2712   0.233E-02    0.152E-03
RMM:   2    -0.258551254674E+03   -0.53601E-06   -0.54621E-06  1469   0.745E-03
  29 F= -.27188560E+03 E0= -.27188560E+03  d E =-.187940E-04  mag=    -0.0000
       N       E                     dE             d eps       ncg     rms          rms(c)
DAV:   1    -0.258551256075E+03   -0.19374E-05   -0.10925E-03  2368   0.532E-02    0.340E-03
RMM:   2    -0.258551259236E+03   -0.31609E-05   -0.32583E-05  2525   0.181E-02    0.143E-03
RMM:   3    -0.258551259868E+03   -0.63237E-06   -0.81354E-06  1712   0.808E-03
  30 F= -.27188560E+03 E0= -.27188560E+03  d E =-.490517E-05  mag=    -0.0000
       N       E                     dE             d eps       ncg     rms          rms(c)
DAV:   1    -0.258551260096E+03   -0.86013E-06   -0.78356E-06  1952   0.674E-03    0.960E-04
RMM:   2    -0.258551260154E+03   -0.57609E-07   -0.65971E-07  1149   0.391E-03
  31 F= -.27188560E+03 E0= -.27188560E+03  d E =-.517091E-05  mag=     0.0000
       N       E                     dE             d eps       ncg     rms          rms(c)
DAV:   1    -0.258551260616E+03   -0.52038E-06   -0.23563E-05  2064   0.834E-03    0.477E-04
RMM:   2    -0.258551260700E+03   -0.83402E-07   -0.78523E-07  1098   0.345E-03
  32 F= -.27188560E+03 E0= -.27188560E+03  d E =-.567783E-05  mag=    -0.0000
       N       E                     dE             d eps       ncg     rms          rms(c)
DAV:   1    -0.258551261314E+03   -0.69800E-06   -0.89947E-05  2240   0.156E-02    0.971E-04
RMM:   2    -0.258551261587E+03   -0.27255E-06   -0.26761E-06  1299   0.591E-03
  33 F= -.27188560E+03 E0= -.27188560E+03  d E =-.648641E-05  mag=     0.0000
       N       E                     dE             d eps       ncg     rms          rms(c)
DAV:   1    -0.258551261775E+03   -0.46058E-06   -0.36106E-04  2392   0.307E-02    0.194E-03
RMM:   2    -0.258551262857E+03   -0.10821E-05   -0.11082E-05  2093   0.112E-02    0.909E-04
RMM:   3    -0.258551263059E+03   -0.20178E-06   -0.27432E-06  1460   0.529E-03
  34 F= -.27188561E+03 E0= -.27188561E+03  d E =-.780806E-05  mag=    -0.0000
       N       E                     dE             d eps       ncg     rms          rms(c)
DAV:   1    -0.258551262130E+03    0.72670E-06   -0.92357E-05  2144   0.161E-02    0.146E-03
RMM:   2    -0.258551262337E+03   -0.20663E-06   -0.25878E-06  1155   0.561E-03
  35 F= -.27188561E+03 E0= -.27188561E+03  d E =-.716947E-05  mag=     0.0000
       N       E                     dE             d eps       ncg     rms          rms(c)
DAV:   1    -0.258551262750E+03   -0.62004E-06   -0.63823E-05  2192   0.132E-02    0.108E-03
RMM:   2    -0.258551262931E+03   -0.18091E-06   -0.17540E-06  1207   0.452E-03
  36 F= -.27188561E+03 E0= -.27188561E+03  d E =-.769409E-05  mag=    -0.0000
       N       E                     dE             d eps       ncg     rms          rms(c)
DAV:   1    -0.258551262794E+03   -0.43654E-07   -0.68466E-06  1440   0.510E-03    0.569E-04
RMM:   2    -0.258551262810E+03   -0.15551E-07   -0.27380E-07  1031   0.229E-03
  37 F= -.27188561E+03 E0= -.27188561E+03  d E =-.759633E-05  mag=     0.0000
       N       E                     dE             d eps       ncg     rms          rms(c)
DAV:   1    -0.258551262942E+03   -0.14751E-06   -0.48090E-06  1344   0.356E-03    0.377E-04
RMM:   2    -0.258551262959E+03   -0.17963E-07   -0.18377E-07  1029   0.178E-03
  38 F= -.27188561E+03 E0= -.27188561E+03  d E =-.772615E-05  mag=    -0.0000
       N       E                     dE             d eps       ncg     rms          rms(c)
DAV:   1    -0.258551262977E+03   -0.35912E-07   -0.15792E-07  1200   0.138E-03    0.748E-05
RMM:   2    -0.258551262984E+03   -0.61846E-08   -0.56935E-08   930   0.114E-03
  39 F= -.27188561E+03 E0= -.27188561E+03  d E =-.774818E-05  mag=    -0.0000
       N       E                     dE             d eps       ncg     rms          rms(c)
DAV:   1    -0.258551262992E+03   -0.14570E-07   -0.58262E-08  1200   0.754E-04    0.721E-05
RMM:   2    -0.258551262994E+03   -0.16771E-08   -0.17365E-08   803   0.700E-04
  40 F= -.27188561E+03 E0= -.27188561E+03  d E =-.775722E-05  mag=    -0.0000
       N       E                     dE             d eps       ncg     rms          rms(c)
DAV:   1    -0.258551262997E+03   -0.45966E-08   -0.14429E-08  1200   0.432E-04    0.217E-05
RMM:   2    -0.258551262997E+03   -0.24556E-09   -0.21468E-09   382   0.360E-04
  41 F= -.27188561E+03 E0= -.27188561E+03  d E =-.775990E-05  mag=    -0.0000
       N       E                     dE             d eps       ncg     rms          rms(c)
DAV:   1    -0.258551262998E+03   -0.14224E-08   -0.51613E-09  1200   0.322E-04    0.150E-05
RMM:   2    -0.258551262998E+03   -0.16553E-09   -0.31488E-10   279   0.236E-04
  42 F= -.27188561E+03 E0= -.27188561E+03  d E =-.776108E-05  mag=     0.0000
       N       E                     dE             d eps       ncg     rms          rms(c)
DAV:   1    -0.258551262999E+03   -0.10878E-08   -0.22039E-09  1176   0.225E-04    0.101E-05
RMM:   2    -0.258551262999E+03    0.33651E-09    0.00000E+00   210   0.167E-04
  43 F= -.27188561E+03 E0= -.27188561E+03  d E =-.776162E-05  mag=    -0.0000
       N       E                     dE             d eps       ncg     rms          rms(c)
DAV:   1    -0.258551262999E+03    0.45111E-09   -0.11388E-09  1176   0.167E-04    0.715E-06
RMM:   2    -0.258551262999E+03   -0.27285E-09    0.00000E+00   220   0.119E-04
  44 F= -.27188561E+03 E0= -.27188561E+03  d E =-.776176E-05  mag=     0.0000
       N       E                     dE             d eps       ncg     rms          rms(c)
DAV:   1    -0.258551262999E+03   -0.27103E-09   -0.63092E-10  1152   0.119E-04    0.603E-06
RMM:   2    -0.258551262999E+03   -0.67303E-10    0.00000E+00   154   0.913E-05
  45 F= -.27188561E+03 E0= -.27188561E+03  d E =-.776182E-05  mag=    -0.0000
       N       E                     dE             d eps       ncg     rms          rms(c)
DAV:   1    -0.258551262999E+03   -0.20009E-10   -0.35096E-10  1144   0.912E-05    0.391E-06
RMM:   2    -0.258551262999E+03   -0.50932E-10    0.00000E+00   132   0.671E-05
  46 F= -.27188561E+03 E0= -.27188561E+03  d E =-.776183E-05  mag=     0.0000
       N       E                     dE             d eps       ncg     rms          rms(c)
DAV:   1    -0.258551262999E+03   -0.28922E-09   -0.21324E-10  1152   0.671E-05    0.312E-06
RMM:   2    -0.258551262999E+03    0.23101E-09    0.00000E+00   110   0.530E-05
  47 F= -.27188561E+03 E0= -.27188561E+03  d E =-.776183E-05  mag=     0.0000
       N       E                     dE             d eps       ncg     rms          rms(c)
DAV:   1    -0.258551240692E+03    0.22308E-04   -0.43924E-03  2256   0.106E-01    0.715E-03
RMM:   2    -0.258551251843E+03   -0.11152E-04   -0.12054E-04  2670   0.331E-02    0.291E-03
RMM:   3    -0.258551254604E+03   -0.27611E-05   -0.31278E-05  2498   0.152E-02    0.229E-03
RMM:   4    -0.258551254773E+03   -0.16808E-06   -0.31296E-06  1538   0.635E-03
  48 F= -.27188560E+03 E0= -.27188560E+03  d E =-.990058E-07  mag=     0.0000
