 vasp.6.4.1 05Apr23 (build Jun 07 2023 15:38:11) complex                        
  
 executed on             LinuxIFC date 2023.10.01  02:39:54
 running  128 mpi-ranks, with    1 threads/rank, on    1 nodes
 distrk:  each k-point on  128 cores,    1 groups
 distr:  one band on NCORE=  32 cores,    4 groups


--------------------------------------------------------------------------------------------------------


 INCAR:
   GGA = PE
   PREC = Accu
   EDIFF = 1.e-5
   EDIFFG = -1.e-2
   ENCUT = 520.
   NELM = 100
   NELMDL = -10
   LASPH = .TRUE.
   LREAL = Auto
   LMAXMIX = 4
   ISPIN = 2
   LDIAG = .TRUE.
   LPLANE = .TRUE.
   IVDW = 12
   SIGMA = 0.03
   ISMEAR = 0
   NSW = 1000    number of steps for IOM
   IBRION = 1    ionic relax: 0-MD 1-quasi-New 2-CG
   ISIF = 2    ionic relaxation + stress tensor calcn.
   LCHARG = .FALSE.
   LWAVE = .FALSE.
   ALGO = V
   KPAR = 1
   NPAR = 4

 POTCAR:    PAW_PBE Li_sv_GW 25Mar2010            
 POTCAR:    PAW_PBE P_GW 19Mar2012                
 POTCAR:    PAW_PBE S_GW 19Mar2012                
 POTCAR:    PAW_PBE Cl_GW 19Mar2012               
 -----------------------------------------------------------------------------
|                                                                             |
|           W    W    AA    RRRRR   N    N  II  N    N   GGGG   !!!           |
|           W    W   A  A   R    R  NN   N  II  NN   N  G    G  !!!           |
|           W    W  A    A  R    R  N N  N  II  N N  N  G       !!!           |
|           W WW W  AAAAAA  RRRRR   N  N N  II  N  N N  G  GGG   !            |
|           WW  WW  A    A  R   R   N   NN  II  N   NN  G    G                |
|           W    W  A    A  R    R  N    N  II  N    N   GGGG   !!!           |
|                                                                             |
|     You use a magnetic or noncollinear calculation, but did not specify     |
|     the initial magnetic moment with the MAGMOM tag. Note that a            |
|     default of 1 will be used for all atoms. This ferromagnetic setup       |
|     may break the symmetry of the crystal, in particular it may rule        |
|     out finding an antiferromagnetic solution. Thence, we recommend         |
|     setting the initial magnetic moment manually or verifying carefully     |
|     that this magnetic setup is desired.                                    |
|                                                                             |
 -----------------------------------------------------------------------------

 POTCAR:    PAW_PBE Li_sv_GW 25Mar2010            
   SHA256 =  24a6ace15a582615486b36ce4dc781b048409f4015b7684ed1273ae395fa2fdc Li_sv_GW/POTCAR       
   COPYR  = (c) Copyright 25Mar2010 Georg Kresse                                                    
   COPYR  = This file is part of the software VASP. Any use, copying, and all other rights are regul
   COPYR  = If you do not have a valid VASP license, you may not use, copy or distribute this file. 
   VRHFIN =Li: 1s2s                                                                                 
   LEXCH  = PE                                                                                      
   EATOM  =   200.9989 eV,   14.7730 Ry                                                             
                                                                                                    
   TITEL  = PAW_PBE Li_sv_GW 25Mar2010                                                              
   LULTRA =        F    use ultrasoft PP ?                                                          
   IUNSCR =        0    unscreen: 0-lin 1-nonlin 2-no                                               
   RPACOR =    0.000    partial core radius                                                         
   POMASS =    7.010; ZVAL   =    3.000    mass and valenz                                          
   RCORE  =    1.500    outmost cutoff radius                                                       
   RWIGS  =    1.600; RWIGS  =    0.847    wigner-seitz radius (au A)                               
   ENMAX  =  433.699; ENMIN  =  325.274 eV                                                          
   RCLOC  =    1.003    cutoff for local pot                                                        
   LCOR   =        T    correct aug charges                                                         
   LPAW   =        T    paw PP                                                                      
   EAUG   = 1041.699                                                                                
   RMAX   =    1.536    core radius for proj-oper                                                   
   RAUG   =    1.300    factor for augmentation sphere                                              
   RDEP   =    1.520    radius for radial grids                                                     
   RDEPT  =    1.300    core radius for aug-charge                                                  
                                                                                                    
   Atomic configuration                                                                             
    4 entries                                                                                       
     n  l   j            E        occ.                                                              
     1  0  0.50       -53.3604   2.0000                                                             
     1  0  0.50       -52.0001   0.0000                                                             
     2  1  0.50        -1.5636   1.0000                                                             
     3  2  1.50        -1.3606   0.0000                                                             
   Description                                                                                      
     l       E           TYP  RCUT    TYP  RCUT                                                     
     0    -53.3603633     23  1.200                                                                 
     0    -52.0001064     23  1.200                                                                 
     0    176.8757380     23  1.300                                                                 
     1     -1.5635925     23  1.500                                                                 
     1    108.8466080     23  1.500                                                                 
     2     81.6349560     23  1.500                                                                 
  local pseudopotential read in
  kinetic energy density of atom read in
  atomic valenz-charges read in
  non local Contribution for L=           0  read in
    real space projection operators read in
  non local Contribution for L=           0  read in
    real space projection operators read in
  non local Contribution for L=           0  read in
    real space projection operators read in
  non local Contribution for L=           1  read in
    real space projection operators read in
  non local Contribution for L=           1  read in
    real space projection operators read in
  non local Contribution for L=           2  read in
    real space projection operators read in
    PAW grid and wavefunctions read in
 
   number of l-projection  operators is LMAX  =           6
   number of lm-projection operators is LMMAX =          14
 
 POTCAR:    PAW_PBE P_GW 19Mar2012                
   SHA256 =  715c28f2291d37b61637ce89646c59f66f71c8b8d8bfba631e5feb9f7b42defe P_GW/POTCAR           
   COPYR  = (c) Copyright 19Mar2012 Georg Kresse                                                    
   COPYR  = This file is part of the software VASP. Any use, copying, and all other rights are regul
   COPYR  = If you do not have a valid VASP license, you may not use, copy or distribute this file. 
   VRHFIN =P : s2p3                                                                                 
   LEXCH  = PE                                                                                      
   EATOM  =   176.0430 eV,   12.9388 Ry                                                             
                                                                                                    
   TITEL  = PAW_PBE P_GW 19Mar2012                                                                  
   LULTRA =        F    use ultrasoft PP ?                                                          
   IUNSCR =        1    unscreen: 0-lin 1-nonlin 2-no                                               
   RPACOR =    1.400    partial core radius                                                         
   POMASS =   30.974; ZVAL   =    5.000    mass and valenz                                          
   RCORE  =    2.000    outmost cutoff radius                                                       
   RWIGS  =    1.900; RWIGS  =    1.005    wigner-seitz radius (au A)                               
   ENMAX  =  255.040; ENMIN  =  191.280 eV                                                          
   ICORE  =        3    local potential                                                             
   LCOR   =        T    correct aug charges                                                         
   LPAW   =        T    paw PP                                                                      
   EAUG   =  499.732                                                                                
   DEXC   =    0.000                                                                                
   RMAX   =    2.047    core radius for proj-oper                                                   
   RAUG   =    1.300    factor for augmentation sphere                                              
   RDEP   =    2.059    radius for radial grids                                                     
   RDEPT  =    1.900    core radius for aug-charge                                                  
                                                                                                    
   Atomic configuration                                                                             
    7 entries                                                                                       
     n  l   j            E        occ.                                                              
     1  0  0.50     -2084.0982   2.0000                                                             
     2  0  0.50      -173.9859   2.0000                                                             
     2  1  1.50      -124.4865   6.0000                                                             
     3  0  0.50       -13.9692   2.0000                                                             
     3  1  0.50        -5.5067   3.0000                                                             
     3  2  1.50        -6.8029   0.0000                                                             
     4  3  2.50        -1.3606   0.0000                                                             
   Description                                                                                      
     l       E           TYP  RCUT    TYP  RCUT                                                     
     0    -13.9691528     23  1.900                                                                 
     0    102.0436950     23  1.900                                                                 
     1     -5.5066939     23  1.900                                                                 
     1    102.0436950     23  1.900                                                                 
     2     -8.1634956     23  2.000                                                                 
     2     81.6349560     23  2.000                                                                 
     3     27.2116520     23  2.000                                                                 
  local pseudopotential read in
  partial core-charges read in
  partial kinetic energy density read in
  kinetic energy density of atom read in
  atomic valenz-charges read in
  non local Contribution for L=           0  read in
    real space projection operators read in
  non local Contribution for L=           0  read in
    real space projection operators read in
  non local Contribution for L=           1  read in
    real space projection operators read in
  non local Contribution for L=           1  read in
    real space projection operators read in
  non local Contribution for L=           2  read in
    real space projection operators read in
  non local Contribution for L=           2  read in
    real space projection operators read in
    PAW grid and wavefunctions read in
 
   number of l-projection  operators is LMAX  =           6
   number of lm-projection operators is LMMAX =          18
 
 POTCAR:    PAW_PBE S_GW 19Mar2012                
   SHA256 =  357db9cfb0783579b2eebe03197c2d807131fea8ea663b1fcfb6ce2fa75af011 S_GW/POTCAR           
   COPYR  = (c) Copyright 19Mar2012 Georg Kresse                                                    
   COPYR  = This file is part of the software VASP. Any use, copying, and all other rights are regul
   COPYR  = If you do not have a valid VASP license, you may not use, copy or distribute this file. 
   VRHFIN =S : s2p4                                                                                 
   LEXCH  = PE                                                                                      
   EATOM  =   276.8230 eV,   20.3459 Ry                                                             
                                                                                                    
   TITEL  = PAW_PBE S_GW 19Mar2012                                                                  
   LULTRA =        F    use ultrasoft PP ?                                                          
   IUNSCR =        1    unscreen: 0-lin 1-nonlin 2-no                                               
   RPACOR =    1.400    partial core radius                                                         
   POMASS =   32.066; ZVAL   =    6.000    mass and valenz                                          
   RCORE  =    1.900    outmost cutoff radius                                                       
   RWIGS  =    1.900; RWIGS  =    1.005    wigner-seitz radius (au A)                               
   ENMAX  =  258.689; ENMIN  =  194.016 eV                                                          
   ICORE  =        3    local potential                                                             
   LCOR   =        T    correct aug charges                                                         
   LPAW   =        T    paw PP                                                                      
   EAUG   =  488.319                                                                                
   DEXC   =    0.000                                                                                
   RMAX   =    1.942    core radius for proj-oper                                                   
   RAUG   =    1.300    factor for augmentation sphere                                              
   RDEP   =    1.954    radius for radial grids                                                     
   RDEPT  =    1.900    core radius for aug-charge                                                  
                                                                                                    
   Atomic configuration                                                                             
    7 entries                                                                                       
     n  l   j            E        occ.                                                              
     1  0  0.50     -2405.8406   2.0000                                                             
     2  0  0.50      -211.7007   2.0000                                                             
     2  1  1.50      -156.4958   6.0000                                                             
     3  0  0.50       -17.2562   2.0000                                                             
     3  1  0.50        -7.0085   4.0000                                                             
     3  2  1.50        -8.1635   0.0000                                                             
     4  3  2.50        -1.3606   0.0000                                                             
   Description                                                                                      
     l       E           TYP  RCUT    TYP  RCUT                                                     
     0    -17.2561639     23  1.700                                                                 
     0     88.4378690     23  1.900                                                                 
     1     -7.0085399     23  1.900                                                                 
     1     88.4378690     23  1.900                                                                 
     2    -10.8846608     23  1.900                                                                 
     2     54.4233040     23  1.900                                                                 
     3     27.2116520     23  1.800                                                                 
  local pseudopotential read in
  partial core-charges read in
  partial kinetic energy density read in
  kinetic energy density of atom read in
  atomic valenz-charges read in
  non local Contribution for L=           0  read in
    real space projection operators read in
  non local Contribution for L=           0  read in
    real space projection operators read in
  non local Contribution for L=           1  read in
    real space projection operators read in
  non local Contribution for L=           1  read in
    real space projection operators read in
  non local Contribution for L=           2  read in
    real space projection operators read in
  non local Contribution for L=           2  read in
    real space projection operators read in
    PAW grid and wavefunctions read in
 
   number of l-projection  operators is LMAX  =           6
   number of lm-projection operators is LMMAX =          18
 
 POTCAR:    PAW_PBE Cl_GW 19Mar2012               
   SHA256 =  3ef3b3169d6a9a89979f58b4cf17d927a58518fc660d8883d88cacaee8175441 Cl_GW/POTCAR          
   COPYR  = (c) Copyright 19Mar2012 Georg Kresse                                                    
   COPYR  = This file is part of the software VASP. Any use, copying, and all other rights are regul
   COPYR  = If you do not have a valid VASP license, you may not use, copy or distribute this file. 
   VRHFIN =Cl: s2p5                                                                                 
   LEXCH  = PE                                                                                      
   EATOM  =   409.7259 eV,   30.1140 Ry                                                             
                                                                                                    
   TITEL  = PAW_PBE Cl_GW 19Mar2012                                                                 
   LULTRA =        F    use ultrasoft PP ?                                                          
   IUNSCR =        1    unscreen: 0-lin 1-nonlin 2-no                                               
   RPACOR =    1.400    partial core radius                                                         
   POMASS =   35.453; ZVAL   =    7.000    mass and valenz                                          
   RCORE  =    1.900    outmost cutoff radius                                                       
   RWIGS  =    1.900; RWIGS  =    1.005    wigner-seitz radius (au A)                               
   ENMAX  =  262.472; ENMIN  =  196.854 eV                                                          
   ICORE  =        3    local potential                                                             
   LCOR   =        T    correct aug charges                                                         
   LPAW   =        T    paw PP                                                                      
   EAUG   =  456.703                                                                                
   DEXC   =    0.000                                                                                
   RMAX   =    1.945    core radius for proj-oper                                                   
   RAUG   =    1.300    factor for augmentation sphere                                              
   RDEP   =    2.020    radius for radial grids                                                     
   RDEPT  =    1.900    core radius for aug-charge                                                  
                                                                                                    
   Atomic configuration                                                                             
    7 entries                                                                                       
     n  l   j            E        occ.                                                              
     1  0  0.50     -2751.1850   2.0000                                                             
     2  0  0.50      -252.6861   2.0000                                                             
     2  1  1.50      -191.6157   6.0000                                                             
     3  0  0.50       -20.6916   2.0000                                                             
     3  1  0.50        -8.5949   5.0000                                                             
     3  2  1.50        -9.5241   0.0000                                                             
     4  3  2.50        -9.5241   0.0000                                                             
   Description                                                                                      
     l       E           TYP  RCUT    TYP  RCUT                                                     
     0    -20.6915657     23  1.700                                                                 
     0     95.2407820     23  1.800                                                                 
     1     -8.5948577     23  1.900                                                                 
     1     95.2407820     23  1.900                                                                 
     2    -10.8846608     23  1.900                                                                 
     2     54.4233040     23  1.900                                                                 
     3     27.2116520     23  1.900                                                                 
  local pseudopotential read in
  partial core-charges read in
  partial kinetic energy density read in
  kinetic energy density of atom read in
  atomic valenz-charges read in
  non local Contribution for L=           0  read in
    real space projection operators read in
  non local Contribution for L=           0  read in
    real space projection operators read in
  non local Contribution for L=           1  read in
    real space projection operators read in
  non local Contribution for L=           1  read in
    real space projection operators read in
  non local Contribution for L=           2  read in
    real space projection operators read in
  non local Contribution for L=           2  read in
    real space projection operators read in
    PAW grid and wavefunctions read in
 
   number of l-projection  operators is LMAX  =           6
   number of lm-projection operators is LMMAX =          18
 
 Optimization of the real space projectors (new method)

 maximal supplied QI-value         = 25.13
 optimisation between [QCUT,QGAM] = [ 11.56, 23.12] = [ 37.43,149.72] Ry 
 Optimized for a Real-space Cutoff    1.28 Angstroem

   l    n(q)    QCUT    max X(q) W(low)/X(q) W(high)/X(q)  e(spline) 
   0      9    11.561    87.733    0.11E-03    0.32E-04    0.56E-06
   0      9    11.561    82.800    0.11E-03    0.35E-04    0.56E-06
   0      9    11.561     2.509    0.22E-03    0.42E-04    0.79E-06
   1      8    11.561    12.580    0.94E-04    0.26E-03    0.21E-06
   1      8    11.561     1.319    0.33E-04    0.15E-03    0.19E-06
   2      8    11.561     1.993    0.36E-04    0.89E-04    0.26E-06
 Optimization of the real space projectors (new method)

 maximal supplied QI-value         = 18.90
 optimisation between [QCUT,QGAM] = [ 11.53, 23.24] = [ 37.21,151.29] Ry 
 Optimized for a Real-space Cutoff    1.21 Angstroem

   l    n(q)    QCUT    max X(q) W(low)/X(q) W(high)/X(q)  e(spline) 
   0      8    11.527     8.355    0.73E-04    0.70E-04    0.26E-07
   0      8    11.527     1.401    0.17E-03    0.17E-03    0.63E-07
   1      8    11.527     4.747    0.13E-03    0.17E-03    0.11E-06
   1      8    11.527     2.025    0.16E-03    0.18E-03    0.12E-06
   2      7    11.527     3.169    0.51E-04    0.25E-03    0.60E-07
   2      7    11.527     3.441    0.82E-04    0.22E-03    0.14E-06
 Optimization of the real space projectors (new method)

 maximal supplied QI-value         = 19.84
 optimisation between [QCUT,QGAM] = [ 11.51, 23.22] = [ 37.09,150.92] Ry 
 Optimized for a Real-space Cutoff    1.49 Angstroem

   l    n(q)    QCUT    max X(q) W(low)/X(q) W(high)/X(q)  e(spline) 
   0     10    11.508     7.541    0.34E-04    0.13E-04    0.69E-07
   0     10    11.508     1.809    0.49E-04    0.27E-04    0.14E-06
   1     10    11.508     4.107    0.27E-05    0.41E-05    0.14E-06
   1     10    11.508     2.196    0.26E-05    0.25E-05    0.22E-06
   2      9    11.508     4.265    0.18E-03    0.11E-03    0.81E-06
   2      9    11.508     1.925    0.97E-04    0.76E-04    0.47E-06
 Optimization of the real space projectors (new method)

 maximal supplied QI-value         = 19.84
 optimisation between [QCUT,QGAM] = [ 11.51, 23.22] = [ 37.09,150.92] Ry 
 Optimized for a Real-space Cutoff    1.21 Angstroem

   l    n(q)    QCUT    max X(q) W(low)/X(q) W(high)/X(q)  e(spline) 
   0      8    11.508     6.761    0.57E-04    0.57E-04    0.35E-07
   0      8    11.508     1.642    0.14E-03    0.14E-03    0.91E-07
   1      8    11.508     3.519    0.20E-04    0.72E-04    0.47E-07
   1      8    11.508     2.150    0.27E-04    0.11E-03    0.89E-07
   2      7    11.508     2.976    0.19E-03    0.33E-03    0.16E-06
   2      7    11.508     1.494    0.14E-03    0.29E-03    0.14E-06
  PAW_PBE Li_sv_GW 25Mar2010            :
 energy of atom  1       EATOM= -200.9989
 kinetic energy error for atom=    0.0127 (will be added to EATOM!!)
  PAW_PBE P_GW 19Mar2012                :
 energy of atom  2       EATOM= -176.0430
 kinetic energy error for atom=    0.0011 (will be added to EATOM!!)
  PAW_PBE S_GW 19Mar2012                :
 energy of atom  3       EATOM= -276.8230
 kinetic energy error for atom=    0.0024 (will be added to EATOM!!)
  PAW_PBE Cl_GW 19Mar2012               :
 energy of atom  4       EATOM= -409.7259
 kinetic energy error for atom=    0.0030 (will be added to EATOM!!)
 
 
 POSCAR: Li24 P4 S20 Cl4
  positions in direct lattice
  No initial velocities read in
 exchange correlation table for  LEXCH =        8
   RHO(1)=    0.500       N(1)  =     2000
   RHO(2)=  100.500       N(2)  =     4000

 VTST: version 4.1, (05/19/21)

 CHAIN: initializing optimizer
 
 OPT: Using VASP QUASI-newton optimizer
 CHAIN: Read ICHAIN            0
 
 POSCAR: Li24 P4 S20 Cl4
  positions in direct lattice
  No initial velocities read in
 


--------------------------------------------------------------------------------------------------------


 ion  position               nearest neighbor table
   1  0.977  0.250  0.250-
   2  0.977  0.750  0.750-
   3  0.023  0.250  0.750-
   4  0.023  0.750  0.250-
   5  0.250  0.250  0.977-
   6  0.250  0.750  0.023-
   7  0.750  0.250  0.023-
   8  0.750  0.750  0.977-
   9  0.250  0.977  0.250-
  10  0.250  0.023  0.750-
  11  0.750  0.977  0.750-
  12  0.750  0.023  0.250-
  13  0.250  0.750  0.477-
  14  0.250  0.250  0.523-
  15  0.750  0.750  0.523-
  16  0.750  0.250  0.477-
  17  0.250  0.477  0.750-
  18  0.250  0.523  0.250-
  19  0.750  0.477  0.250-
  20  0.750  0.523  0.750-
  21  0.477  0.250  0.750-
  22  0.477  0.750  0.250-
  23  0.523  0.250  0.250-
  24  0.523  0.750  0.750-
  25  0.500  0.500  0.500-  43 2.05  42 2.05  41 2.05  44 2.05
  26  0.500  1.000  1.000-  39 2.05  38 2.05  37 2.05  40 2.05
  27  0.000  0.500  0.000-  36 2.05  35 2.05  33 2.05  34 2.05
  28  0.000  0.000  0.500-  30 2.05  29 2.05  32 2.05  31 2.05
  29  0.118  0.882  0.618-  28 2.05
  30  0.118  0.118  0.382-  28 2.05
  31  0.882  0.882  0.382-  28 2.05
  32  0.882  0.118  0.618-  28 2.05
  33  0.882  0.618  0.118-  27 2.05
  34  0.882  0.382  0.882-  27 2.05
  35  0.118  0.618  0.882-  27 2.05
  36  0.118  0.382  0.118-  27 2.05
  37  0.618  0.118  0.882-  26 2.05
  38  0.618  0.882  0.118-  26 2.05
  39  0.381  0.118  0.118-  26 2.05
  40  0.382  0.882  0.882-  26 2.05
  41  0.618  0.618  0.382-  25 2.05
  42  0.618  0.382  0.618-  25 2.05
  43  0.382  0.618  0.618-  25 2.05
  44  0.382  0.382  0.382-  25 2.05
  45  0.750  0.750  0.750-
  46  0.750  0.250  0.250-
  47  0.250  0.750  0.250-
  48  0.250  0.250  0.750-
  49  0.000  0.000  0.000-
  50  0.000  0.500  0.500-
  51  0.500  1.000  0.500-
  52  0.500  0.500  1.000-
 
  LATTYP: Found a simple cubic cell.
 ALAT       =    10.0287435592
  
  Lattice vectors:
  
 A1 = (  10.0287435592,   0.0000000000,   0.0000000000)
 A2 = (   0.0000000000,  10.0287435592,   0.0000000000)
 A3 = (   0.0000000000,   0.0000000000,  10.0287435592)


Analysis of symmetry for initial positions (statically):
=====================================================================
 Subroutine PRICEL returns:
 Original cell was already a primitive cell.
 

 Routine SETGRP: Setting up the symmetry group for a 
 simple cubic supercell.


 Subroutine GETGRP returns: Found  2 space group operations
 (whereof  2 operations were pure point group operations)
 out of a pool of 48 trial point group operations.


The static configuration has the point symmetry C_1h.


Analysis of symmetry for dynamics (positions and initial velocities):
=====================================================================
 Subroutine PRICEL returns:
 Original cell was already a primitive cell.
 

 Routine SETGRP: Setting up the symmetry group for a 
 simple cubic supercell.


 Subroutine GETGRP returns: Found  2 space group operations
 (whereof  2 operations were pure point group operations)
 out of a pool of 48 trial point group operations.


The dynamic configuration has the point symmetry C_1h.


Analysis of structural, dynamic, and magnetic symmetry:
=====================================================================
 Subroutine PRICEL returns:
 Original cell was already a primitive cell.
 

 Routine SETGRP: Setting up the symmetry group for a 
 simple cubic supercell.


 Subroutine GETGRP returns: Found  2 space group operations
 (whereof  2 operations were pure point group operations)
 out of a pool of 48 trial point group operations.


The overall configuration has the point symmetry C_1h.


 Subroutine INISYM returns: Found  2 space group operations
 (whereof  2 operations are pure point group operations),
 and found     1 'primitive' translations


----------------------------------------------------------------------------------------

                                     Primitive cell                                     

  volume of cell :    1008.6479

  direct lattice vectors                    reciprocal lattice vectors
    10.028743559  0.000000000  0.000000000     0.099713388  0.000000000  0.000000000
     0.000000000 10.028743559  0.000000000     0.000000000  0.099713388  0.000000000
     0.000000000  0.000000000 10.028743559     0.000000000  0.000000000  0.099713388

  length of vectors
    10.028743559 10.028743559 10.028743559     0.099713388  0.099713388  0.099713388

  position of ions in fractional coordinates (direct lattice)
     0.977309114  0.250029348  0.250029348
     0.976815334  0.750037494  0.750037494
     0.023033326  0.250083035  0.749992115
     0.023033326  0.749992115  0.250083035
     0.249961405  0.250170644  0.976549919
     0.249976767  0.750051340  0.023301863
     0.750225042  0.249873759  0.023292823
     0.749964197  0.750039150  0.976805869
     0.249961405  0.976549919  0.250170644
     0.249976767  0.023301863  0.750051340
     0.749964197  0.976805869  0.750039150
     0.750225042  0.023292823  0.249873759
     0.249942183  0.750082115  0.476784222
     0.250093588  0.250244765  0.523299965
     0.749962814  0.750077231  0.523326448
     0.749860886  0.249959864  0.476654712
     0.249942183  0.476784222  0.750082115
     0.250093588  0.523299965  0.250244765
     0.749860886  0.476654712  0.249959864
     0.749962814  0.523326448  0.750077231
     0.476925533  0.250086202  0.750041475
     0.476925533  0.750041475  0.250086202
     0.523072565  0.249532080  0.249532080
     0.523081196  0.749828460  0.749828460
     0.500018333  0.499952087  0.499952087
     0.499870376  0.999897652  0.999897652
     0.000010644  0.500108101  0.000036191
     0.000010644  0.000036191  0.500108101
     0.118055805  0.881954820  0.618192538
     0.118376948  0.117955237  0.382191264
     0.881856400  0.882025694  0.382031504
     0.881795447  0.118123510  0.618022814
     0.881795447  0.618022814  0.118123510
     0.881856400  0.382031504  0.882025694
     0.118055805  0.618192538  0.881954820
     0.118376948  0.382191264  0.117955237
     0.618058569  0.118066607  0.882045898
     0.618058569  0.882045898  0.118066607
     0.381375870  0.117746593  0.117746593
     0.381903692  0.881744884  0.881744884
     0.618188860  0.618046853  0.382001854
     0.618188860  0.382001854  0.618046853
     0.381744704  0.617912891  0.617912891
     0.382108288  0.381780885  0.381780885
     0.749952827  0.750058358  0.750058358
     0.750180947  0.249968355  0.249968355
     0.249978460  0.749941033  0.250048312
     0.249978460  0.250048312  0.749941033
     0.000007169  0.000055031  0.000055031
     0.000191693  0.500043889  0.500043889
     0.499917072  0.999939058  0.499963189
     0.499917072  0.499963189  0.999939058

  ion indices of the primitive-cell ions
   primitive index   ion index
                 1           1
                 2           2
                 3           3
                 4           4
                 5           5
                 6           6
                 7           7
                 8           8
                 9           9
                10          10
                11          11
                12          12
                13          13
                14          14
                15          15
                16          16
                17          17
                18          18
                19          19
                20          20
                21          21
                22          22
                23          23
                24          24
                25          25
                26          26
                27          27
                28          28
                29          29
                30          30
                31          31
                32          32
                33          33
                34          34
                35          35
                36          36
                37          37
                38          38
                39          39
                40          40
                41          41
                42          42
                43          43
                44          44
                45          45
                46          46
                47          47
                48          48
                49          49
                50          50
                51          51
                52          52

----------------------------------------------------------------------------------------

 
 
 KPOINTS: Automatic mesh                          

Automatic generation of k-mesh.
 Grid dimensions read from file:
 generate k-points for:    2    2    2

 Generating k-lattice:

  Cartesian coordinates                     Fractional coordinates (reciprocal lattice)
     0.049856694  0.000000000  0.000000000     0.500000000  0.000000000  0.000000000
     0.000000000  0.049856694  0.000000000     0.000000000  0.500000000  0.000000000
     0.000000000  0.000000000  0.049856694     0.000000000  0.000000000  0.500000000

  Length of vectors
     0.049856694  0.049856694  0.049856694

  Shift w.r.t. Gamma in fractional coordinates (k-lattice)
     0.500000000  0.500000000  0.500000000

 
 Subroutine IBZKPT returns following result:
 ===========================================
 
 Found      3 irreducible k-points:
 
 Following reciprocal coordinates:
            Coordinates               Weight
  0.250000  0.250000  0.250000      2.000000
 -0.250000  0.250000  0.250000      2.000000
 -0.250000 -0.250000  0.250000      4.000000
 
 Following cartesian coordinates:
            Coordinates               Weight
  0.024928  0.024928  0.024928      2.000000
 -0.024928  0.024928  0.024928      2.000000
 -0.024928 -0.024928  0.024928      4.000000
 


--------------------------------------------------------------------------------------------------------




 Dimension of arrays:
   k-points           NKPTS =      3   k-points in BZ     NKDIM =      3   number of bands    NBANDS=    176
   number of dos      NEDOS =    301   number of ions     NIONS =     52
   non local maximal  LDIM  =      6   non local SUM 2l+1 LMDIM =     18
   total plane-waves  NPLWV = 512000
   max r-space proj   IRMAX =   7071   max aug-charges    IRDMAX=  21621
   dimension x,y,z NGX =    80 NGY =   80 NGZ =   80
   dimension x,y,z NGXF=   160 NGYF=  160 NGZF=  160
   support grid    NGXF=   160 NGYF=  160 NGZF=  160
   ions per type =              24   4  20   4
   NGX,Y,Z   is equivalent  to a cutoff of  13.26, 13.26, 13.26 a.u.
   NGXF,Y,Z  is equivalent  to a cutoff of  26.52, 26.52, 26.52 a.u.

 SYSTEM =  unknown system                          
 POSCAR =  Li24 P4 S20 Cl4                         

 Startparameter for this run:
   NWRITE =      2    write-flag & timer
   PREC   = accu      normal or accurate (medium, high low for compatibility)
   ISTART =      0    job   : 0-new  1-cont  2-samecut
   ICHARG =      2    charge: 1-file 2-atom 10-const
   ISPIN  =      2    spin polarized calculation?
   LNONCOLLINEAR =      F non collinear calculations
   LSORBIT =      F    spin-orbit coupling
   INIWAV =      1    electr: 0-lowe 1-rand  2-diag
   LASPH  =      T    aspherical Exc in radial PAW
 Electronic Relaxation 1
   ENCUT  =  520.0 eV  38.22 Ry    6.18 a.u.  18.65 18.65 18.65*2*pi/ulx,y,z
   ENINI  =  520.0     initial cutoff
   ENAUG  = 1041.7 eV  augmentation charge cutoff
   NELM   =    100;   NELMIN=  2; NELMDL=-10     # of ELM steps 
   EDIFF  = 0.1E-04   stopping-criterion for ELM
   LREAL  =      T    real-space projection
   NLSPLINE    = F    spline interpolate recip. space projectors
   LCOMPAT=      F    compatible to vasp.4.4
   GGA_COMPAT  = T    GGA compatible to vasp.4.4-vasp.4.6
   LMAXPAW     = -100 max onsite density
   LMAXMIX     =    4 max onsite mixed and CHGCAR
   VOSKOWN=      0    Vosko Wilk Nusair interpolation
   ROPT   =   -0.00025  -0.00025  -0.00025  -0.00025
 Ionic relaxation
   EDIFFG = -.1E-01   stopping-criterion for IOM
   NSW    =   1000    number of steps for IOM
   NBLOCK =      1;   KBLOCK =   1000    inner block; outer block 
   IBRION =      1    ionic relax: 0-MD 1-quasi-New 2-CG
   NFREE  =      0    steps in history (QN), initial steepest desc. (CG)
   ISIF   =      2    stress and relaxation
   IWAVPR =     11    prediction:  0-non 1-charg 2-wave 3-comb
   ISYM   =      2    0-nonsym 1-usesym 2-fastsym
   LCORR  =      T    Harris-Foulkes like correction to forces

   POTIM  = 0.5000    time-step for ionic-motion
   TEIN   =    0.0    initial temperature
   TEBEG  =    0.0;   TEEND  =   0.0 temperature during run
   SMASS  =  -3.00    Nose mass-parameter (am)
   estimated Nose-frequenzy (Omega)   =  0.10E-29 period in steps = 0.13E+47 mass=  -0.230E-26a.u.
   SCALEE = 1.0000    scale energy and forces
   NPACO  =    256;   APACO  = 10.0  distance and # of slots for P.C.
   PSTRESS=    0.0 pullay stress

  Mass of Ions in am
   POMASS =   7.01 30.97 32.07 35.45
  Ionic Valenz
   ZVAL   =   3.00  5.00  6.00  7.00
  Atomic Wigner-Seitz radii
   RWIGS  =  -1.00 -1.00 -1.00 -1.00
  virtual crystal weights 
   VCA    =   1.00  1.00  1.00  1.00
   NELECT =     240.0000    total number of electrons
   NUPDOWN=      -1.0000    fix difference up-down

 DOS related values:
   EMIN   =  10.00;   EMAX   =-10.00  energy-range for DOS
   EFERMI =   0.00;   METHOD = LEGACY      
   ISMEAR =     0;   SIGMA  =   0.03  broadening in eV -4-tet -1-fermi 0-gaus

 Electronic relaxation 2 (details)
   IALGO  =     48    algorithm
   LDIAG  =      T    sub-space diagonalisation (order eigenvalues)
   LSUBROT=      F    optimize rotation matrix (better conditioning)
   TURBO    =      0    0=normal 1=particle mesh
   IRESTART =      0    0=no restart 2=restart with 2 vectors
   NREBOOT  =      0    no. of reboots
   NMIN     =      0    reboot dimension
   EREF     =   0.00    reference energy to select bands
   IMIX   =      4    mixing-type and parameters
     AMIX     =   0.40;   BMIX     =  1.00
     AMIX_MAG =   1.60;   BMIX_MAG =  1.00
     AMIN     =   0.10
     WC   =   100.;   INIMIX=   1;  MIXPRE=   1;  MAXMIX= -45

 Intra band minimization:
   WEIMIN = 0.0010     energy-eigenvalue tresh-hold
   EBREAK =  0.14E-07  absolut break condition
   DEPER  =   0.30     relativ break condition  

   TIME   =   0.40     timestep for ELM

  volume/ion in A,a.u.               =      19.40       130.90
  Fermi-wavevector in a.u.,A,eV,Ry     =   1.014453  1.917039 14.001966  1.029115
  Thomas-Fermi vector in A             =   2.147682
 
 Write flags
   LWAVE        =      F    write WAVECAR
   LDOWNSAMPLE  =      F    k-point downsampling of WAVECAR
   LCHARG       =      F    write CHGCAR
   LVTOT        =      F    write LOCPOT, total local potential
   LVHAR        =      F    write LOCPOT, Hartree potential only
   LELF         =      F    write electronic localiz. function (ELF)
   LORBIT       =      0    0 simple, 1 ext, 2 COOP (PROOUT), +10 PAW based schemes


 Dipole corrections
   LMONO  =      F    monopole corrections only (constant potential shift)
   LDIPOL =      F    correct potential (dipole corrections)
   IDIPOL =      0    1-x, 2-y, 3-z, 4-all directions 
   EPSILON=  1.0000000 bulk dielectric constant

 Exchange correlation treatment:
   GGA     =    PE    GGA type
   LEXCH   =     8    internal setting for exchange type
   LIBXC   =     F    Libxc                    
   VOSKOWN =     0    Vosko Wilk Nusair interpolation
   LHFCALC =     F    Hartree Fock is set to
   LHFONE  =     F    Hartree Fock one center treatment
   AEXX    =    0.0000 exact exchange contribution

 Linear response parameters
   LEPSILON=     F    determine dielectric tensor
   LRPA    =     F    only Hartree local field effects (RPA)
   LNABLA  =     F    use nabla operator in PAW spheres
   LVEL    =     F    velocity operator in full k-point grid
   CSHIFT  =0.1000    complex shift for real part using Kramers Kronig
   OMEGAMAX=  -1.0    maximum frequency
   DEG_THRESHOLD= 0.2000000E-02 threshold for treating states as degnerate
   RTIME   =   -0.100 relaxation time in fs
  (WPLASMAI=    0.000 imaginary part of plasma frequency in eV, 0.658/RTIME)
   DFIELD  = 0.0000000 0.0000000 0.0000000 field for delta impulse in time
 
  Optional k-point grid parameters
   LKPOINTS_OPT  =     F    use optional k-point grid
   KPOINTS_OPT_MODE=     1    mode for optional k-point grid
 
 Orbital magnetization related:
   ORBITALMAG=     F  switch on orbital magnetization
   LCHIMAG   =     F  perturbation theory with respect to B field
   DQ        =  0.001000  dq finite difference perturbation B field
   LLRAUG    =     F  two centre corrections for induced B field
   LBONE     =     F  B-component reconstruction in AE one-centre
   LVGVCALC  =     T  calculate vGv susceptibility
   LVGVAPPL  =     F  apply vGv susceptibility instead of pGv for G=0

 Random number generation:
   RANDOM_GENERATOR = DEFAULT
   PCG_SEED         = not used


--------------------------------------------------------------------------------------------------------


 quasi-Newton-method for relaxation of ions
 charge density and potential will be updated during run
 spin polarized calculation
 RMM-DIIS sequential band-by-band
 perform sub-space diagonalisation
    before iterative eigenvector-optimisation
 modified Broyden-mixing scheme, WC =      100.0
 initial mixing is a Kerker type mixing with AMIX =  0.4000 and BMIX =      1.0000
 Hartree-type preconditioning will be used
 using additional bands           56
 real space projection scheme for non local part
 use partial core corrections
 calculate Harris-corrections to forces 
   (improved forces if not selfconsistent)
 use gradient corrections 
 use of overlap-Matrix (Vanderbilt PP)
 Gauss-broadening in eV      SIGMA  =   0.03


--------------------------------------------------------------------------------------------------------


  energy-cutoff  :      520.00
  volume of cell :     1008.65
      direct lattice vectors                 reciprocal lattice vectors
    10.028743559  0.000000000  0.000000000     0.099713388  0.000000000  0.000000000
     0.000000000 10.028743559  0.000000000     0.000000000  0.099713388  0.000000000
     0.000000000  0.000000000 10.028743559     0.000000000  0.000000000  0.099713388

  length of vectors
    10.028743559 10.028743559 10.028743559     0.099713388  0.099713388  0.099713388


 
 k-points in units of 2pi/SCALE and weight: Automatic mesh                          
   0.02492835  0.02492835  0.02492835       0.250
  -0.02492835  0.02492835  0.02492835       0.250
  -0.02492835 -0.02492835  0.02492835       0.500
 
 k-points in reciprocal lattice and weights: Automatic mesh                          
   0.25000000  0.25000000  0.25000000       0.250
  -0.25000000  0.25000000  0.25000000       0.250
  -0.25000000 -0.25000000  0.25000000       0.500
 
 position of ions in fractional coordinates (direct lattice) 
   0.97730911  0.25002935  0.25002935
   0.97681533  0.75003749  0.75003749
   0.02303333  0.25008303  0.74999212
   0.02303333  0.74999212  0.25008303
   0.24996140  0.25017064  0.97654992
   0.24997677  0.75005134  0.02330186
   0.75022504  0.24987376  0.02329282
   0.74996420  0.75003915  0.97680587
   0.24996140  0.97654992  0.25017064
   0.24997677  0.02330186  0.75005134
   0.74996420  0.97680587  0.75003915
   0.75022504  0.02329282  0.24987376
   0.24994218  0.75008212  0.47678422
   0.25009359  0.25024476  0.52329996
   0.74996281  0.75007723  0.52332645
   0.74986089  0.24995986  0.47665471
   0.24994218  0.47678422  0.75008212
   0.25009359  0.52329996  0.25024476
   0.74986089  0.47665471  0.24995986
   0.74996281  0.52332645  0.75007723
   0.47692553  0.25008620  0.75004147
   0.47692553  0.75004147  0.25008620
   0.52307257  0.24953208  0.24953208
   0.52308120  0.74982846  0.74982846
   0.50001833  0.49995209  0.49995209
   0.49987038  0.99989765  0.99989765
   0.00001064  0.50010810  0.00003619
   0.00001064  0.00003619  0.50010810
   0.11805581  0.88195482  0.61819254
   0.11837695  0.11795524  0.38219126
   0.88185640  0.88202569  0.38203150
   0.88179545  0.11812351  0.61802281
   0.88179545  0.61802281  0.11812351
   0.88185640  0.38203150  0.88202569
   0.11805581  0.61819254  0.88195482
   0.11837695  0.38219126  0.11795524
   0.61805857  0.11806661  0.88204590
   0.61805857  0.88204590  0.11806661
   0.38137587  0.11774659  0.11774659
   0.38190369  0.88174488  0.88174488
   0.61818886  0.61804685  0.38200185
   0.61818886  0.38200185  0.61804685
   0.38174470  0.61791289  0.61791289
   0.38210829  0.38178088  0.38178088
   0.74995283  0.75005836  0.75005836
   0.75018095  0.24996835  0.24996835
   0.24997846  0.74994103  0.25004831
   0.24997846  0.25004831  0.74994103
   0.00000717  0.00005503  0.00005503
   0.00019169  0.50004389  0.50004389
   0.49991707  0.99993906  0.49996319
   0.49991707  0.49996319  0.99993906
 
 position of ions in cartesian coordinates  (Angst):
   9.80118249  2.50748021  2.50748021
   9.79623049  7.52193369  7.52193369
   0.23099532  2.50801863  7.52147860
   0.23099532  7.52147860  2.50801863
   2.50679883  2.50889723  9.79356871
   2.50695289  7.52207254  0.23368841
   7.52381456  2.50591985  0.23359775
   7.52119861  7.52195029  9.79613557
   2.50679883  9.79356871  2.50889723
   2.50695289  0.23368841  7.52207254
   7.52119861  9.79613557  7.52195029
   7.52381456  0.23359775  2.50591985
   2.50660606  7.52238118  4.78154670
   2.50812446  2.50964057  5.24804115
   7.52118474  7.52233220  5.24830674
   7.52016253  2.50678337  4.78024787
   2.50660606  4.78154670  7.52238118
   2.50812446  5.24804115  2.50964057
   7.52016253  4.78024787  2.50678337
   7.52118474  5.24830674  7.52233220
   4.78296387  2.50805039  7.52197361
   4.78296387  7.52197361  2.50805039
   5.24576062  2.50249324  2.50249324
   5.24584717  7.51983734  7.51983734
   5.01455563  5.01389127  5.01389127
   5.01307181 10.02771714 10.02771714
   0.00010675  5.01545589  0.00036295
   0.00010675  0.00036295  5.01545589
   1.18395140  8.84489873  6.19969443
   1.18717205  1.18294282  3.83289818
   8.84391169  8.84560950  3.83129598
   8.84330041  1.18463039  6.19799232
   8.84330041  6.19799232  1.18463039
   8.84391169  3.83129598  8.84560950
   1.18395140  6.19969443  8.84489873
   1.18717205  3.83289818  1.18294282
   6.19835090  1.18405972  8.84581212
   6.19835090  8.84581212  1.18405972
   3.82472080  1.18085039  1.18085039
   3.83001419  8.84279333  8.84279333
   6.19965755  6.19823340  3.83099863
   6.19965755  3.83099863  6.19823340
   3.82841974  6.19688993  6.19688993
   3.83206604  3.82878259  3.82878259
   7.52108458  7.52214293  7.52214293
   7.52337234  2.50686853  2.50686853
   2.50696988  7.52096630  2.50767040
   2.50696988  2.50767040  7.52096630
   0.00007190  0.00055189  0.00055189
   0.00192244  5.01481193  5.01481193
   5.01354012 10.02813239  5.01400262
   5.01354012  5.01400262 10.02813239
 


--------------------------------------------------------------------------------------------------------


 k-point   1 :   0.2500 0.2500 0.2500  plane waves:   27169
 k-point   2 :  -0.2500 0.2500 0.2500  plane waves:   27169
 k-point   3 :  -0.2500-0.2500 0.2500  plane waves:   27169

 maximum and minimum number of plane-waves per node :       862      835

 maximum number of plane-waves:     27169
 maximum index in each direction: 
   IXMAX=   18   IYMAX=   18   IZMAX=   18
   IXMIN=  -18   IYMIN=  -18   IZMIN=  -18


 real space projection operators:
  total allocation   :      34876.67 KBytes
  max/ min on nodes  :       1344.38        816.56


 parallel 3D FFT for wavefunctions:
    minimum data exchange during FFTs selected (reduces bandwidth)
 parallel 3D FFT for charge:
    minimum data exchange during FFTs selected (reduces bandwidth)


 total amount of memory used by VASP MPI-rank0    50373. kBytes
=======================================================================

   base      :      30000. kBytes
   nonlr-proj:       7911. kBytes
   fftplans  :       2173. kBytes
   grid      :       6510. kBytes
   one-center:         62. kBytes
   wavefun   :       3717. kBytes
 
     INWAV:  cpu time      0.0001: real time      0.0001
 Broyden mixing: mesh for mixing (old mesh)
   NGX = 37   NGY = 37   NGZ = 37
  (NGX  =160   NGY  =160   NGZ  =160)
  gives a total of  50653 points

 initial charge density was supplied:
 charge density of overlapping atoms calculated
 number of electron     240.0000000 magnetization      52.0000000
 keeping initial charge density in first step


--------------------------------------------------------------------------------------------------------


 Maximum index for non-local projection operator          455
 Maximum index for augmentation-charges          917 (set IRDMAX)


--------------------------------------------------------------------------------------------------------


 First call to EWALD:  gamma=   0.177
 Maximum number of real-space cells 3x 3x 3
 Maximum number of reciprocal cells 3x 3x 3

    FEWALD:  cpu time      0.0026: real time      0.0030


--------------------------------------- Ionic step        1  -------------------------------------------




--------------------------------------- Iteration      1(   1)  ---------------------------------------


    POTLOK:  cpu time      0.0738: real time      0.0840
    SETDIJ:  cpu time      0.4034: real time      0.4140
    EDDIAG:  cpu time      0.3869: real time      0.5278
  RMM-DIIS:  cpu time      0.6313: real time      0.6365
    ORTHCH:  cpu time      0.0524: real time      0.0560
       DOS:  cpu time      0.0024: real time      0.0161
    --------------------------------------------
      LOOP:  cpu time      1.5502: real time      1.7345

 eigenvalue-minimisations  :  1056
 total energy-change (2. order) : 0.2397436E+04  (-0.8828249E+04)
 number of electron     240.0000000 magnetization      52.0000000
 augmentation part      240.0000000 magnetization      52.0000000

 Free energy of the ion-electron system (eV)
  ---------------------------------------------------
  alpha Z        PSCENC =       269.13009961
  Ewald energy   TEWEN  =     -8273.37838397
  -Hartree energ DENC   =     -2407.02091168
  -exchange      EXHF   =         0.00000000
  -V(xc)+E(xc)   XCENC  =       529.49157959
  PAW double counting   =      8141.38806575    -8271.61346273
  entropy T*S    EENTRO =        -0.00427219
  eigenvalues    EBANDS =      -293.69697188
  atomic energy  EATOM  =     12703.13999606
  Solvation  Ediel_sol  =         0.00000000
  ---------------------------------------------------
  free energy    TOTEN  =      2397.43573855 eV

  energy without entropy =     2397.44001074  energy(sigma->0) =     2397.43787465


--------------------------------------------------------------------------------------------------------




--------------------------------------- Iteration      1(   2)  ---------------------------------------


    EDDIAG:  cpu time      0.2915: real time      0.2965
  RMM-DIIS:  cpu time      0.7509: real time      0.7731
    ORTHCH:  cpu time      0.0540: real time      0.0549
       DOS:  cpu time      0.0009: real time      0.0009
    --------------------------------------------
      LOOP:  cpu time      1.0973: real time      1.1254

 eigenvalue-minimisations  :  1056
 total energy-change (2. order) :-0.2156524E+04  (-0.2660987E+04)
 number of electron     240.0000000 magnetization      52.0000000
 augmentation part      240.0000000 magnetization      52.0000000

 Free energy of the ion-electron system (eV)
  ---------------------------------------------------
  alpha Z        PSCENC =       269.13009961
  Ewald energy   TEWEN  =     -8273.37838397
  -Hartree energ DENC   =     -2407.02091168
  -exchange      EXHF   =         0.00000000
  -V(xc)+E(xc)   XCENC  =       529.49157959
  PAW double counting   =      8141.38806575    -8271.61346273
  entropy T*S    EENTRO =        -0.00979980
  eigenvalues    EBANDS =     -2450.21514577
  atomic energy  EATOM  =     12703.13999606
  Solvation  Ediel_sol  =         0.00000000
  ---------------------------------------------------
  free energy    TOTEN  =       240.91203706 eV

  energy without entropy =      240.92183686  energy(sigma->0) =      240.91693696


--------------------------------------------------------------------------------------------------------




--------------------------------------- Iteration      1(   3)  ---------------------------------------


    EDDIAG:  cpu time      0.2898: real time      0.2936
  RMM-DIIS:  cpu time      0.8823: real time      0.8992
    ORTHCH:  cpu time      0.0538: real time      0.0555
       DOS:  cpu time      0.0009: real time      0.0009
    --------------------------------------------
      LOOP:  cpu time      1.2269: real time      1.2492

 eigenvalue-minimisations  :  1056
 total energy-change (2. order) :-0.1176310E+03  (-0.6210290E+03)
 number of electron     240.0000000 magnetization      52.0000000
 augmentation part      240.0000000 magnetization      52.0000000

 Free energy of the ion-electron system (eV)
  ---------------------------------------------------
  alpha Z        PSCENC =       269.13009961
  Ewald energy   TEWEN  =     -8273.37838397
  -Hartree energ DENC   =     -2407.02091168
  -exchange      EXHF   =         0.00000000
  -V(xc)+E(xc)   XCENC  =       529.49157959
  PAW double counting   =      8141.38806575    -8271.61346273
  entropy T*S    EENTRO =        -0.00164314
  eigenvalues    EBANDS =     -2567.85432556
  atomic energy  EATOM  =     12703.13999606
  Solvation  Ediel_sol  =         0.00000000
  ---------------------------------------------------
  free energy    TOTEN  =       123.28101393 eV

  energy without entropy =      123.28265707  energy(sigma->0) =      123.28183550


--------------------------------------------------------------------------------------------------------




--------------------------------------- Iteration      1(   4)  ---------------------------------------


    EDDIAG:  cpu time      0.2905: real time      0.2935
  RMM-DIIS:  cpu time      0.6339: real time      0.6394
    ORTHCH:  cpu time      0.0512: real time      0.0525
       DOS:  cpu time      0.0006: real time      0.0006
    --------------------------------------------
      LOOP:  cpu time      0.9762: real time      0.9861

 eigenvalue-minimisations  :  1056
 total energy-change (2. order) :-0.2061062E+03  (-0.1756408E+03)
 number of electron     240.0000000 magnetization      52.0000000
 augmentation part      240.0000000 magnetization      52.0000000

 Free energy of the ion-electron system (eV)
  ---------------------------------------------------
  alpha Z        PSCENC =       269.13009961
  Ewald energy   TEWEN  =     -8273.37838397
  -Hartree energ DENC   =     -2407.02091168
  -exchange      EXHF   =         0.00000000
  -V(xc)+E(xc)   XCENC  =       529.49157959
  PAW double counting   =      8141.38806575    -8271.61346273
  entropy T*S    EENTRO =        -0.00000001
  eigenvalues    EBANDS =     -2773.96217904
  atomic energy  EATOM  =     12703.13999606
  Solvation  Ediel_sol  =         0.00000000
  ---------------------------------------------------
  free energy    TOTEN  =       -82.82519642 eV

  energy without entropy =      -82.82519641  energy(sigma->0) =      -82.82519642


--------------------------------------------------------------------------------------------------------




--------------------------------------- Iteration      1(   5)  ---------------------------------------


    EDDIAG:  cpu time      0.2927: real time      0.2948
  RMM-DIIS:  cpu time      0.6298: real time      0.6356
    ORTHCH:  cpu time      0.0508: real time      0.0512
       DOS:  cpu time      0.0004: real time      0.0004
    --------------------------------------------
      LOOP:  cpu time      0.9737: real time      0.9820

 eigenvalue-minimisations  :  1056
 total energy-change (2. order) :-0.7998590E+02  (-0.7312575E+02)
 number of electron     240.0000000 magnetization      52.0000000
 augmentation part      240.0000000 magnetization      52.0000000

 Free energy of the ion-electron system (eV)
  ---------------------------------------------------
  alpha Z        PSCENC =       269.13009961
  Ewald energy   TEWEN  =     -8273.37838397
  -Hartree energ DENC   =     -2407.02091168
  -exchange      EXHF   =         0.00000000
  -V(xc)+E(xc)   XCENC  =       529.49157959
  PAW double counting   =      8141.38806575    -8271.61346273
  entropy T*S    EENTRO =        -0.00000000
  eigenvalues    EBANDS =     -2853.94807803
  atomic energy  EATOM  =     12703.13999606
  Solvation  Ediel_sol  =         0.00000000
  ---------------------------------------------------
  free energy    TOTEN  =      -162.81109540 eV

  energy without entropy =     -162.81109540  energy(sigma->0) =     -162.81109540


--------------------------------------------------------------------------------------------------------




--------------------------------------- Iteration      1(   6)  ---------------------------------------


    EDDIAG:  cpu time      0.2901: real time      0.2931
  RMM-DIIS:  cpu time      0.7307: real time      0.7366
    ORTHCH:  cpu time      0.0527: real time      0.0534
       DOS:  cpu time      0.0005: real time      0.0004
    --------------------------------------------
      LOOP:  cpu time      1.0741: real time      1.0836

 eigenvalue-minimisations  :  1056
 total energy-change (2. order) :-0.3703261E+02  (-0.3535269E+02)
 number of electron     240.0000000 magnetization      52.0000000
 augmentation part      240.0000000 magnetization      52.0000000

 Free energy of the ion-electron system (eV)
  ---------------------------------------------------
  alpha Z        PSCENC =       269.13009961
  Ewald energy   TEWEN  =     -8273.37838397
  -Hartree energ DENC   =     -2407.02091168
  -exchange      EXHF   =         0.00000000
  -V(xc)+E(xc)   XCENC  =       529.49157959
  PAW double counting   =      8141.38806575    -8271.61346273
  entropy T*S    EENTRO =        -0.00000000
  eigenvalues    EBANDS =     -2890.98068376
  atomic energy  EATOM  =     12703.13999606
  Solvation  Ediel_sol  =         0.00000000
  ---------------------------------------------------
  free energy    TOTEN  =      -199.84370113 eV

  energy without entropy =     -199.84370113  energy(sigma->0) =     -199.84370113


--------------------------------------------------------------------------------------------------------




--------------------------------------- Iteration      1(   7)  ---------------------------------------


    EDDIAG:  cpu time      0.2899: real time      0.2925
  RMM-DIIS:  cpu time      0.6301: real time      0.6355
    ORTHCH:  cpu time      0.0510: real time      0.0514
       DOS:  cpu time      0.0005: real time      0.0005
    --------------------------------------------
      LOOP:  cpu time      0.9715: real time      0.9798

 eigenvalue-minimisations  :  1056
 total energy-change (2. order) :-0.1864553E+02  (-0.1789388E+02)
 number of electron     240.0000000 magnetization      52.0000000
 augmentation part      240.0000000 magnetization      52.0000000

 Free energy of the ion-electron system (eV)
  ---------------------------------------------------
  alpha Z        PSCENC =       269.13009961
  Ewald energy   TEWEN  =     -8273.37838397
  -Hartree energ DENC   =     -2407.02091168
  -exchange      EXHF   =         0.00000000
  -V(xc)+E(xc)   XCENC  =       529.49157959
  PAW double counting   =      8141.38806575    -8271.61346273
  entropy T*S    EENTRO =        -0.00000000
  eigenvalues    EBANDS =     -2909.62621400
  atomic energy  EATOM  =     12703.13999606
  Solvation  Ediel_sol  =         0.00000000
  ---------------------------------------------------
  free energy    TOTEN  =      -218.48923137 eV

  energy without entropy =     -218.48923137  energy(sigma->0) =     -218.48923137


--------------------------------------------------------------------------------------------------------




--------------------------------------- Iteration      1(   8)  ---------------------------------------


    EDDIAG:  cpu time      0.2903: real time      0.2929
  RMM-DIIS:  cpu time      1.4921: real time      1.5218
    ORTHCH:  cpu time      0.0509: real time      0.0527
       DOS:  cpu time      0.0005: real time      0.0005
    --------------------------------------------
      LOOP:  cpu time      1.8337: real time      1.8678

 eigenvalue-minimisations  :  2690
 total energy-change (2. order) :-0.1911714E+02  (-0.1878226E+02)
 number of electron     240.0000000 magnetization      52.0000000
 augmentation part      240.0000000 magnetization      52.0000000

 Free energy of the ion-electron system (eV)
  ---------------------------------------------------
  alpha Z        PSCENC =       269.13009961
  Ewald energy   TEWEN  =     -8273.37838397
  -Hartree energ DENC   =     -2407.02091168
  -exchange      EXHF   =         0.00000000
  -V(xc)+E(xc)   XCENC  =       529.49157959
  PAW double counting   =      8141.38806575    -8271.61346273
  entropy T*S    EENTRO =        -0.00000000
  eigenvalues    EBANDS =     -2928.74334942
  atomic energy  EATOM  =     12703.13999606
  Solvation  Ediel_sol  =         0.00000000
  ---------------------------------------------------
  free energy    TOTEN  =      -237.60636679 eV

  energy without entropy =     -237.60636679  energy(sigma->0) =     -237.60636679


--------------------------------------------------------------------------------------------------------




--------------------------------------- Iteration      1(   9)  ---------------------------------------


    EDDIAG:  cpu time      0.2894: real time      0.2919
  RMM-DIIS:  cpu time      1.6453: real time      1.6609
    ORTHCH:  cpu time      0.0510: real time      0.0516
       DOS:  cpu time      0.0004: real time      0.0004
    --------------------------------------------
      LOOP:  cpu time      1.9861: real time      2.0048

 eigenvalue-minimisations  :  2963
 total energy-change (2. order) :-0.2371583E+01  (-0.2472269E+01)
 number of electron     240.0000000 magnetization      52.0000000
 augmentation part      240.0000000 magnetization      52.0000000

 Free energy of the ion-electron system (eV)
  ---------------------------------------------------
  alpha Z        PSCENC =       269.13009961
  Ewald energy   TEWEN  =     -8273.37838397
  -Hartree energ DENC   =     -2407.02091168
  -exchange      EXHF   =         0.00000000
  -V(xc)+E(xc)   XCENC  =       529.49157959
  PAW double counting   =      8141.38806575    -8271.61346273
  entropy T*S    EENTRO =        -0.00000000
  eigenvalues    EBANDS =     -2931.11493236
  atomic energy  EATOM  =     12703.13999606
  Solvation  Ediel_sol  =         0.00000000
  ---------------------------------------------------
  free energy    TOTEN  =      -239.97794973 eV

  energy without entropy =     -239.97794973  energy(sigma->0) =     -239.97794973


--------------------------------------------------------------------------------------------------------




--------------------------------------- Iteration      1(  10)  ---------------------------------------


    EDDIAG:  cpu time      0.2898: real time      0.2921
  RMM-DIIS:  cpu time      1.9586: real time      1.9820
    ORTHCH:  cpu time      0.0526: real time      0.0530
       DOS:  cpu time      0.0004: real time      0.0004
    CHARGE:  cpu time      0.2795: real time      0.5473
    MIXING:  cpu time      0.0024: real time      0.0035
    --------------------------------------------
      LOOP:  cpu time      2.5833: real time      2.8782

 eigenvalue-minimisations  :  3372
 total energy-change (2. order) :-0.2703968E+00  (-0.2352999E+00)
 number of electron     240.0000136 magnetization      28.5476057
 augmentation part        1.5610753 magnetization      28.9761525

 Broyden mixing:
  rms(total) = 0.65443E+01    rms(broyden)= 0.65440E+01
  rms(prec ) = 0.67862E+01
  weight for this iteration     100.00

 Free energy of the ion-electron system (eV)
  ---------------------------------------------------
  alpha Z        PSCENC =       269.13009961
  Ewald energy   TEWEN  =     -8273.37838397
  -Hartree energ DENC   =     -2407.02091168
  -exchange      EXHF   =         0.00000000
  -V(xc)+E(xc)   XCENC  =       529.49157959
  PAW double counting   =      8141.38806575    -8271.61346273
  entropy T*S    EENTRO =        -0.00000000
  eigenvalues    EBANDS =     -2931.38532912
  atomic energy  EATOM  =     12703.13999606
  Solvation  Ediel_sol  =         0.00000000
  ---------------------------------------------------
  free energy    TOTEN  =      -240.24834649 eV

  energy without entropy =     -240.24834649  energy(sigma->0) =     -240.24834649


--------------------------------------------------------------------------------------------------------




--------------------------------------- Iteration      1(  11)  ---------------------------------------


    POTLOK:  cpu time      0.0704: real time      0.0715
    SETDIJ:  cpu time      0.4023: real time      0.4196
    EDDIAG:  cpu time      0.2937: real time      0.2991
  RMM-DIIS:  cpu time      1.4771: real time      1.4904
    ORTHCH:  cpu time      0.0518: real time      0.0527
       DOS:  cpu time      0.0004: real time      0.0004
    CHARGE:  cpu time      0.5700: real time      0.6615
    MIXING:  cpu time      0.0013: real time      0.0019
    --------------------------------------------
      LOOP:  cpu time      2.8670: real time      2.9972

 eigenvalue-minimisations  :  2660
 total energy-change (2. order) : 0.1754807E+02  (-0.7304884E+01)
 number of electron     240.0000136 magnetization      17.5623419
 augmentation part        1.7204608 magnetization      17.8384126

 Broyden mixing:
  rms(total) = 0.32943E+01    rms(broyden)= 0.32942E+01
  rms(prec ) = 0.34160E+01
  weight for this iteration     100.00

 eigenvalues of (default mixing * dielectric matrix)
  average eigenvalue GAMMA=   0.7275
  0.7275

 Free energy of the ion-electron system (eV)
  ---------------------------------------------------
  alpha Z        PSCENC =       269.13009961
  Ewald energy   TEWEN  =     -8273.37838397
  -Hartree energ DENC   =     -2467.59882322
  -exchange      EXHF   =         0.00000000
  -V(xc)+E(xc)   XCENC  =       542.36116857
  PAW double counting   =      8975.40312260    -9112.18742745
  entropy T*S    EENTRO =        -0.00000000
  eigenvalues    EBANDS =     -2859.57002486
  atomic energy  EATOM  =     12703.13999606
  Solvation  Ediel_sol  =         0.00000000
  ---------------------------------------------------
  free energy    TOTEN  =      -222.70027266 eV

  energy without entropy =     -222.70027266  energy(sigma->0) =     -222.70027266


--------------------------------------------------------------------------------------------------------




--------------------------------------- Iteration      1(  12)  ---------------------------------------


    POTLOK:  cpu time      0.0695: real time      0.0770
    SETDIJ:  cpu time      0.3964: real time      0.4124
    EDDIAG:  cpu time      0.2910: real time      0.2928
  RMM-DIIS:  cpu time      1.4561: real time      1.4726
    ORTHCH:  cpu time      0.0519: real time      0.0528
       DOS:  cpu time      0.0004: real time      0.0004
    CHARGE:  cpu time      0.1414: real time      0.2086
    MIXING:  cpu time      0.0014: real time      0.0015
    --------------------------------------------
      LOOP:  cpu time      2.4081: real time      2.5181

 eigenvalue-minimisations  :  2565
 total energy-change (2. order) :-0.3115868E+02  (-0.4155708E+01)
 number of electron     240.0000136 magnetization       4.2274962
 augmentation part        1.9353207 magnetization       4.5752287

 Broyden mixing:
  rms(total) = 0.22469E+01    rms(broyden)= 0.22469E+01
  rms(prec ) = 0.22949E+01
  weight for this iteration     100.00

 eigenvalues of (default mixing * dielectric matrix)
  average eigenvalue GAMMA=   0.9420
  1.2376  0.6464

 Free energy of the ion-electron system (eV)
  ---------------------------------------------------
  alpha Z        PSCENC =       269.13009961
  Ewald energy   TEWEN  =     -8273.37838397
  -Hartree energ DENC   =     -2504.72624376
  -exchange      EXHF   =         0.00000000
  -V(xc)+E(xc)   XCENC  =       534.85160933
  PAW double counting   =      9369.38201791    -9510.09805169
  entropy T*S    EENTRO =        -0.00000000
  eigenvalues    EBANDS =     -2842.15999705
  atomic energy  EATOM  =     12703.13999606
  Solvation  Ediel_sol  =         0.00000000
  ---------------------------------------------------
  free energy    TOTEN  =      -253.85895356 eV

  energy without entropy =     -253.85895356  energy(sigma->0) =     -253.85895356


--------------------------------------------------------------------------------------------------------




--------------------------------------- Iteration      1(  13)  ---------------------------------------


    POTLOK:  cpu time      0.0636: real time      0.0692
    SETDIJ:  cpu time      0.3997: real time      0.4090
    EDDIAG:  cpu time      0.2895: real time      0.2917
  RMM-DIIS:  cpu time      1.2463: real time      1.2571
    ORTHCH:  cpu time      0.0518: real time      0.0528
       DOS:  cpu time      0.0004: real time      0.0004
    CHARGE:  cpu time      0.1355: real time      0.1761
    MIXING:  cpu time      0.0013: real time      0.0013
    --------------------------------------------
      LOOP:  cpu time      2.1880: real time      2.2576

 eigenvalue-minimisations  :  2209
 total energy-change (2. order) :-0.1942708E+01  (-0.6241284E+00)
 number of electron     240.0000136 magnetization      -1.9222539
 augmentation part        1.9834755 magnetization      -1.7836540

 Broyden mixing:
  rms(total) = 0.97255E+00    rms(broyden)= 0.97255E+00
  rms(prec ) = 0.10002E+01
  weight for this iteration     100.00

 eigenvalues of (default mixing * dielectric matrix)
  average eigenvalue GAMMA=   1.3302
  2.6197  0.7281  0.6426

 Free energy of the ion-electron system (eV)
  ---------------------------------------------------
  alpha Z        PSCENC =       269.13009961
  Ewald energy   TEWEN  =     -8273.37838397
  -Hartree energ DENC   =     -2528.10168828
  -exchange      EXHF   =         0.00000000
  -V(xc)+E(xc)   XCENC  =       534.95483792
  PAW double counting   =      9757.32155388    -9901.42240208
  entropy T*S    EENTRO =        -0.00000000
  eigenvalues    EBANDS =     -2817.44567480
  atomic energy  EATOM  =     12703.13999606
  Solvation  Ediel_sol  =         0.00000000
  ---------------------------------------------------
  free energy    TOTEN  =      -255.80166166 eV

  energy without entropy =     -255.80166166  energy(sigma->0) =     -255.80166166


--------------------------------------------------------------------------------------------------------




--------------------------------------- Iteration      1(  14)  ---------------------------------------


    POTLOK:  cpu time      0.0681: real time      0.0691
    SETDIJ:  cpu time      0.4041: real time      0.4058
    EDDIAG:  cpu time      0.2897: real time      0.2913
  RMM-DIIS:  cpu time      1.4163: real time      1.4288
    ORTHCH:  cpu time      0.0514: real time      0.0523
       DOS:  cpu time      0.0005: real time      0.0005
    CHARGE:  cpu time      0.1404: real time      0.1658
    MIXING:  cpu time      0.0014: real time      0.0014
    --------------------------------------------
      LOOP:  cpu time      2.3719: real time      2.4151

 eigenvalue-minimisations  :  2557
 total energy-change (2. order) :-0.3233695E+00  (-0.2425029E+00)
 number of electron     240.0000136 magnetization      -1.1385573
 augmentation part        1.9556817 magnetization      -1.1096622

 Broyden mixing:
  rms(total) = 0.32081E+00    rms(broyden)= 0.32080E+00
  rms(prec ) = 0.34944E+00
  weight for this iteration     100.00

 eigenvalues of (default mixing * dielectric matrix)
  average eigenvalue GAMMA=   1.2795
  2.7115  1.1038  0.6948  0.6079

 Free energy of the ion-electron system (eV)
  ---------------------------------------------------
  alpha Z        PSCENC =       269.13009961
  Ewald energy   TEWEN  =     -8273.37838397
  -Hartree energ DENC   =     -2537.50310419
  -exchange      EXHF   =         0.00000000
  -V(xc)+E(xc)   XCENC  =       536.20851576
  PAW double counting   =      9928.37295869   -10074.02519626
  entropy T*S    EENTRO =        -0.00000000
  eigenvalues    EBANDS =     -2808.06991687
  atomic energy  EATOM  =     12703.13999606
  Solvation  Ediel_sol  =         0.00000000
  ---------------------------------------------------
  free energy    TOTEN  =      -256.12503116 eV

  energy without entropy =     -256.12503116  energy(sigma->0) =     -256.12503116


--------------------------------------------------------------------------------------------------------




--------------------------------------- Iteration      1(  15)  ---------------------------------------


    POTLOK:  cpu time      0.0669: real time      0.0679
    SETDIJ:  cpu time      0.4048: real time      0.4064
    EDDIAG:  cpu time      0.2916: real time      0.2933
  RMM-DIIS:  cpu time      1.4186: real time      1.4315
    ORTHCH:  cpu time      0.0524: real time      0.0536
       DOS:  cpu time      0.0005: real time      0.0005
    CHARGE:  cpu time      0.1326: real time      0.1761
    MIXING:  cpu time      0.0014: real time      0.0015
    --------------------------------------------
      LOOP:  cpu time      2.3688: real time      2.4307

 eigenvalue-minimisations  :  2547
 total energy-change (2. order) :-0.9308950E-03  (-0.4673187E-01)
 number of electron     240.0000136 magnetization      -0.2925148
 augmentation part        1.8983814 magnetization      -0.2700745

 Broyden mixing:
  rms(total) = 0.71945E-01    rms(broyden)= 0.71943E-01
  rms(prec ) = 0.86759E-01
  weight for this iteration     100.00

 eigenvalues of (default mixing * dielectric matrix)
  average eigenvalue GAMMA=   1.2953
  2.5679  1.6940  0.9041  0.6906  0.6197

 Free energy of the ion-electron system (eV)
  ---------------------------------------------------
  alpha Z        PSCENC =       269.13009961
  Ewald energy   TEWEN  =     -8273.37838397
  -Hartree energ DENC   =     -2533.32096802
  -exchange      EXHF   =         0.00000000
  -V(xc)+E(xc)   XCENC  =       535.80299966
  PAW double counting   =      9889.40853015   -10034.70262684
  entropy T*S    EENTRO =        -0.00000000
  eigenvalues    EBANDS =     -2812.20560871
  atomic energy  EATOM  =     12703.13999606
  Solvation  Ediel_sol  =         0.00000000
  ---------------------------------------------------
  free energy    TOTEN  =      -256.12596206 eV

  energy without entropy =     -256.12596206  energy(sigma->0) =     -256.12596206


--------------------------------------------------------------------------------------------------------




--------------------------------------- Iteration      1(  16)  ---------------------------------------


    POTLOK:  cpu time      0.0689: real time      0.0713
    SETDIJ:  cpu time      0.4042: real time      0.4054
    EDDIAG:  cpu time      0.2901: real time      0.2920
  RMM-DIIS:  cpu time      1.3910: real time      1.4036
    ORTHCH:  cpu time      0.0519: real time      0.0528
       DOS:  cpu time      0.0005: real time      0.0005
    CHARGE:  cpu time      0.1349: real time      0.1640
    MIXING:  cpu time      0.0018: real time      0.0018
    --------------------------------------------
      LOOP:  cpu time      2.3432: real time      2.3912

 eigenvalue-minimisations  :  2492
 total energy-change (2. order) :-0.2317983E-01  (-0.1299338E-01)
 number of electron     240.0000136 magnetization      -0.0697273
 augmentation part        1.8620806 magnetization      -0.0635401

 Broyden mixing:
[...]
  0.000   0.000   0.000   0.003  -0.002   0.000   0.000  -0.000   0.000   0.000  -0.000  -0.000  -0.000  -0.000
  0.000   0.000   0.000  -0.002   0.003   0.000  -0.000   0.000   0.000  -0.000  -0.000   0.000   0.000  -0.000
 -0.002   0.001   0.000   0.000   0.000   0.007   0.000   0.000   0.000  -0.000  -0.000   0.000  -0.000  -0.000
  0.000  -0.000  -0.000   0.006  -0.006  -0.000   0.000  -0.000  -0.000   0.000  -0.000  -0.000  -0.000   0.000
 -0.034   0.034   0.000  -0.000  -0.000  -0.006  -0.000  -0.000  -0.000  -0.000   0.000  -0.000  -0.000   0.000
 -0.019   0.019   0.000  -0.000   0.000   0.006  -0.000   0.000   0.000  -0.000  -0.000   0.000   0.000  -0.000
  0.000  -0.000  -0.000  -0.006   0.006  -0.000  -0.000   0.000  -0.000  -0.000  -0.000   0.000   0.000   0.000
  0.033  -0.033  -0.000  -0.000  -0.000  -0.010  -0.000  -0.000  -0.000   0.000   0.000  -0.000   0.000   0.000
 total augmentation occupancy for first ion, spin component:           2
 -0.000   0.000   0.000  -0.000  -0.000  -0.000   0.000   0.000  -0.000  -0.000   0.000  -0.000  -0.000   0.000
  0.000  -0.000  -0.000   0.000   0.000   0.000  -0.000  -0.000   0.000   0.000  -0.000   0.000   0.000  -0.000
  0.000  -0.000   0.000   0.000   0.000  -0.000  -0.000  -0.000   0.000  -0.000   0.000  -0.000  -0.000   0.000
 -0.000   0.000   0.000  -0.000   0.000  -0.000   0.000  -0.000  -0.000  -0.000   0.000  -0.000   0.000   0.000
 -0.000   0.000   0.000   0.000  -0.000  -0.000  -0.000   0.000  -0.000   0.000   0.000  -0.000  -0.000   0.000
 -0.000   0.000  -0.000  -0.000  -0.000  -0.000   0.000   0.000   0.000  -0.000  -0.000   0.000  -0.000  -0.000
  0.000  -0.000  -0.000   0.000  -0.000   0.000   0.000  -0.000   0.000   0.000  -0.000  -0.000  -0.000   0.000
  0.000  -0.000  -0.000  -0.000   0.000   0.000  -0.000   0.000   0.000  -0.000  -0.000   0.000   0.000   0.000
 -0.000   0.000   0.000  -0.000  -0.000   0.000   0.000   0.000   0.000   0.000   0.000   0.000   0.000  -0.000
 -0.000   0.000  -0.000  -0.000   0.000  -0.000   0.000  -0.000   0.000  -0.000   0.000  -0.000   0.000  -0.000
  0.000  -0.000   0.000   0.000   0.000  -0.000  -0.000  -0.000   0.000   0.000   0.000   0.000   0.000  -0.000
 -0.000   0.000  -0.000  -0.000  -0.000   0.000  -0.000   0.000   0.000  -0.000   0.000   0.000   0.000  -0.000
 -0.000   0.000  -0.000   0.000  -0.000  -0.000  -0.000   0.000   0.000   0.000   0.000   0.000  -0.000  -0.000
  0.000  -0.000   0.000   0.000   0.000  -0.000   0.000   0.000  -0.000  -0.000  -0.000  -0.000  -0.000   0.000


------------------------ aborting loop because EDIFF is reached ----------------------------------------


    CHARGE:  cpu time      0.1300: real time      0.1443
    FORLOC:  cpu time      0.0051: real time      0.0051
    FORNL :  cpu time      0.3562: real time      0.3587
    STRESS:  cpu time      1.0677: real time      1.0752
    FORCOR:  cpu time      0.0639: real time      0.0643
    FORHAR:  cpu time      0.0114: real time      0.0114
    MIXING:  cpu time      0.0011: real time      0.0011
    OFIELD:  cpu time      0.0000: real time      0.0000

 ---------------------------------------------------------------------------------------------

         DFTD3 V3.0 Rev 1        
 Edisp (eV)  -12.07608

 E6    (eV) :    -7.4364
 E8    (eV) :    -4.6397
 % E8        : 38.42
    FORVDW:  cpu time      0.2803: real time      0.2821

  FORCE on cell =-STRESS in cart. coord.  units (eV):
  Direction    XX          YY          ZZ          XY          YZ          ZX
  --------------------------------------------------------------------------------------
  Alpha Z   269.13010   269.13010   269.13010
  Ewald   -2758.49562 -2757.31423 -2757.31423    -0.00355    -0.12286    -0.00355
  Hartree   844.49811   845.18611   845.18611    -0.02715    -0.08980    -0.02715
  E(xc)    -946.81443  -946.81504  -946.81504    -0.00018     0.00006    -0.00018
  Local   -1761.03711 -1763.05474 -1763.05474     0.03452     0.22600     0.03452
  n-local  1480.93933  1481.02795  1481.02758    -0.28486    -0.00496     0.29752
  augment  -356.01782  -356.04554  -356.04554     0.00017     0.00194     0.00014
  Kinetic  3239.95370  3240.25946  3240.25871    -0.53048    -0.02296     0.51050
  Fock        0.00000     0.00000     0.00000     0.00000     0.00000     0.00000
  vdW       -12.82943   -12.82913   -12.82913     0.00005     0.00004     0.00005
  -------------------------------------------------------------------------------------
  Total      -0.67317    -0.45563    -0.45563     0.00018    -0.01254     0.00018
  in kB      -1.06929    -0.72374    -0.72374     0.00029    -0.01992     0.00029
  external pressure =       -0.84 kB  Pullay stress =        0.00 kB


 VOLUME and BASIS-vectors are now :
 -----------------------------------------------------------------------------
  energy-cutoff  :      520.00
  volume of cell :     1008.65
      direct lattice vectors                 reciprocal lattice vectors
    10.028743559  0.000000000  0.000000000     0.099713388  0.000000000  0.000000000
     0.000000000 10.028743559  0.000000000     0.000000000  0.099713388  0.000000000
     0.000000000  0.000000000 10.028743559     0.000000000  0.000000000  0.099713388

  length of vectors
    10.028743559 10.028743559 10.028743559     0.099713388  0.099713388  0.099713388


 FORCES acting on ions
    electron-ion (+dipol)            ewald-force                    non-local-force                 convergence-correction
 -----------------------------------------------------------------------------------------------
   -.672E+01 -.301E-01 -.301E-01   0.602E+01 0.296E-01 0.296E-01   0.679E+00 0.620E-03 0.620E-03   0.557E-02 -.405E-05 -.405E-05
   -.672E+01 0.714E-02 0.714E-02   0.602E+01 -.707E-02 -.707E-02   0.683E+00 -.452E-03 -.452E-03   0.233E-02 0.177E-03 0.177E-03
   0.682E+01 0.215E-02 0.106E-01   -.613E+01 -.233E-02 -.135E-01   -.685E+00 0.288E-03 0.124E-02   -.237E-02 -.459E-05 0.770E-03
   0.682E+01 0.106E-01 0.215E-02   -.613E+01 -.135E-01 -.233E-02   -.685E+00 0.124E-02 0.288E-03   -.237E-02 0.770E-03 -.459E-05
   -.317E-01 -.188E-01 -.690E+01   0.313E-01 0.162E-01 0.619E+01   0.188E-02 0.306E-02 0.700E+00   -.685E-03 -.372E-03 -.155E-02
   -.689E-02 -.220E-01 0.680E+01   0.631E-02 0.178E-01 -.610E+01   0.812E-03 0.385E-02 -.692E+00   -.511E-05 0.269E-03 -.448E-03
   -.112E-01 0.621E-01 0.686E+01   0.110E-01 -.586E-01 -.616E+01   0.104E-02 -.680E-02 -.702E+00   -.131E-03 0.149E-02 0.199E-03
   0.216E-02 0.844E-02 -.687E+01   -.317E-02 -.862E-02 0.617E+01   0.919E-03 0.154E-03 0.695E+00   0.470E-04 -.542E-04 -.368E-03
   -.317E-01 -.690E+01 -.188E-01   0.313E-01 0.619E+01 0.162E-01   0.188E-02 0.700E+00 0.306E-02   -.685E-03 -.155E-02 -.372E-03
   -.689E-02 0.680E+01 -.220E-01   0.631E-02 -.610E+01 0.178E-01   0.812E-03 -.692E+00 0.385E-02   -.511E-05 -.448E-03 0.269E-03
   0.216E-02 -.687E+01 0.843E-02   -.317E-02 0.617E+01 -.862E-02   0.919E-03 0.695E+00 0.154E-03   0.470E-04 -.368E-03 -.542E-04
   -.112E-01 0.686E+01 0.621E-01   0.110E-01 -.616E+01 -.586E-01   0.104E-02 -.702E+00 -.680E-02   -.131E-03 0.199E-03 0.149E-02
   -.200E-01 -.327E-01 -.685E+01   0.198E-01 0.277E-01 0.615E+01   0.115E-05 0.499E-02 0.696E+00   0.422E-04 0.414E-04 -.772E-04
   0.452E-01 -.372E-01 0.689E+01   -.447E-01 0.309E-01 -.618E+01   -.280E-02 0.646E-02 -.699E+00   0.112E-02 -.250E-03 0.891E-03
   0.343E-02 0.106E-01 0.687E+01   -.436E-02 -.111E-01 -.617E+01   0.184E-03 0.102E-02 -.696E+00   0.449E-03 -.159E-03 0.454E-04
   0.388E-01 0.244E-01 -.681E+01   -.349E-01 -.241E-01 0.611E+01   -.451E-02 -.231E-02 0.697E+00   0.258E-03 0.776E-03 -.274E-03
   -.200E-01 -.685E+01 -.327E-01   0.198E-01 0.615E+01 0.277E-01   0.115E-05 0.696E+00 0.499E-02   0.422E-04 -.772E-04 0.414E-04
   0.452E-01 0.689E+01 -.372E-01   -.447E-01 -.618E+01 0.309E-01   -.280E-02 -.699E+00 0.646E-02   0.112E-02 0.891E-03 -.250E-03
   0.388E-01 -.681E+01 0.244E-01   -.349E-01 0.611E+01 -.241E-01   -.451E-02 0.697E+00 -.231E-02   0.258E-03 -.274E-03 0.776E-03
   0.343E-02 0.687E+01 0.106E-01   -.436E-02 -.617E+01 -.111E-01   0.184E-03 -.696E+00 0.102E-02   0.449E-03 0.454E-04 -.159E-03
   -.683E+01 0.926E-02 0.608E-02   0.613E+01 -.890E-02 -.566E-02   0.685E+00 0.790E-03 0.349E-03   0.214E-02 -.535E-03 -.434E-03
   -.683E+01 0.608E-02 0.926E-02   0.613E+01 -.566E-02 -.890E-02   0.685E+00 0.349E-03 0.790E-03   0.214E-02 -.434E-03 -.535E-03
   0.672E+01 -.353E-01 -.353E-01   -.602E+01 0.409E-01 0.409E-01   -.680E+00 -.217E-02 -.217E-02   -.398E-02 -.134E-02 -.134E-02
   0.675E+01 0.117E-01 0.117E-01   -.605E+01 -.681E-02 -.681E-02   -.686E+00 -.542E-02 -.542E-02   -.203E-02 0.507E-03 0.507E-03
   -.378E-01 0.407E-01 0.407E-01   0.401E-01 -.434E-01 -.434E-01   -.524E-03 0.434E-02 0.434E-02   0.405E-03 0.419E-03 0.419E-03
   -.706E-01 0.508E-02 0.508E-02   0.666E-01 -.650E-02 -.650E-02   0.709E-02 0.542E-02 0.542E-02   -.627E-03 -.717E-04 -.717E-04
   0.868E-01 0.156E-01 -.789E-01   -.843E-01 -.133E-01 0.792E-01   -.254E-02 -.191E-02 0.198E-02   0.815E-03 0.630E-03 -.198E-03
   0.868E-01 -.789E-01 0.156E-01   -.843E-01 0.792E-01 -.133E-01   -.254E-02 0.198E-02 -.191E-02   0.815E-03 -.198E-03 0.630E-03
   -.451E+02 0.451E+02 -.451E+02   0.484E+02 -.484E+02 0.484E+02   -.330E+01 0.329E+01 -.330E+01   0.344E-02 -.112E-02 0.218E-02
   -.451E+02 -.452E+02 0.451E+02   0.484E+02 0.485E+02 -.484E+02   -.332E+01 -.329E+01 0.328E+01   0.544E-02 0.257E-04 0.499E-03
   0.452E+02 0.451E+02 0.452E+02   -.485E+02 -.484E+02 -.485E+02   0.330E+01 0.329E+01 0.329E+01   -.414E-02 -.224E-02 -.149E-02
   0.452E+02 -.452E+02 -.451E+02   -.485E+02 0.485E+02 0.483E+02   0.330E+01 -.330E+01 -.329E+01   -.276E-02 0.944E-03 0.109E-02
   0.452E+02 -.451E+02 -.452E+02   -.485E+02 0.483E+02 0.485E+02   0.330E+01 -.329E+01 -.330E+01   -.276E-02 0.109E-02 0.944E-03
   0.452E+02 0.452E+02 0.451E+02   -.485E+02 -.485E+02 -.484E+02   0.330E+01 0.329E+01 0.329E+01   -.414E-02 -.149E-02 -.224E-02
   -.451E+02 -.451E+02 0.451E+02   0.484E+02 0.484E+02 -.484E+02   -.330E+01 -.330E+01 0.329E+01   0.344E-02 0.218E-02 -.112E-02
   -.451E+02 0.451E+02 -.452E+02   0.484E+02 -.484E+02 0.485E+02   -.332E+01 0.328E+01 -.329E+01   0.544E-02 0.499E-03 0.257E-04
   -.452E+02 -.452E+02 0.451E+02   0.485E+02 0.485E+02 -.484E+02   -.330E+01 -.330E+01 0.329E+01   0.272E-02 0.757E-03 -.136E-02
   -.452E+02 0.451E+02 -.452E+02   0.485E+02 -.484E+02 0.485E+02   -.330E+01 0.329E+01 -.330E+01   0.272E-02 -.136E-02 0.757E-03
   0.452E+02 -.451E+02 -.451E+02   -.485E+02 0.484E+02 0.484E+02   0.332E+01 -.328E+01 -.328E+01   -.568E-02 -.108E-02 -.108E-02
   0.450E+02 0.452E+02 0.452E+02   -.483E+02 -.485E+02 -.485E+02   0.329E+01 0.329E+01 0.329E+01   -.538E-02 -.331E-02 -.331E-02
   -.452E+02 -.451E+02 0.451E+02   0.485E+02 0.484E+02 -.484E+02   -.330E+01 -.329E+01 0.329E+01   0.330E-02 0.945E-03 -.597E-03
   -.452E+02 0.451E+02 -.451E+02   0.485E+02 -.484E+02 0.484E+02   -.330E+01 0.329E+01 -.329E+01   0.330E-02 -.597E-03 0.945E-03
   0.451E+02 -.451E+02 -.451E+02   -.484E+02 0.483E+02 0.483E+02   0.331E+01 -.329E+01 -.329E+01   -.310E-02 0.155E-02 0.155E-02
   0.448E+02 0.453E+02 0.453E+02   -.481E+02 -.486E+02 -.486E+02   0.329E+01 0.329E+01 0.329E+01   -.524E-02 -.181E-02 -.181E-02
   0.196E-01 -.187E-01 -.187E-01   -.200E-01 0.209E-01 0.209E-01   0.237E-03 -.230E-02 -.230E-02   -.572E-06 -.140E-03 -.140E-03
   -.334E-01 -.829E-01 -.829E-01   0.377E-01 0.857E-01 0.857E-01   -.638E-02 -.334E-02 -.334E-02   0.558E-03 0.335E-03 0.335E-03
   -.160E-02 0.715E-01 0.728E-01   0.128E-02 -.747E-01 -.745E-01   0.723E-03 0.334E-02 0.197E-02   -.227E-03 -.187E-04 -.510E-03
   -.160E-02 0.728E-01 0.715E-01   0.128E-02 -.745E-01 -.747E-01   0.723E-03 0.197E-02 0.334E-02   -.227E-03 -.510E-03 -.187E-04
   0.503E-01 -.153E-02 -.153E-02   -.479E-01 0.112E-02 0.112E-02   -.747E-02 0.254E-02 0.254E-02   0.338E-02 -.144E-02 -.144E-02
   0.281E+00 0.822E-01 0.822E-01   -.285E+00 -.822E-01 -.822E-01   0.783E-02 -.653E-03 -.653E-03   -.260E-02 0.547E-03 0.547E-03
   -.146E+00 -.121E+00 -.151E-02   0.146E+00 0.123E+00 0.203E-02   0.603E-03 -.403E-02 -.291E-02   -.639E-03 0.107E-02 0.168E-02
   -.146E+00 -.151E-02 -.121E+00   0.146E+00 0.203E-02 0.123E+00   0.603E-03 -.291E-02 -.403E-02   -.639E-03 0.168E-02 0.107E-02
 -----------------------------------------------------------------------------------------------
   0.257E-01 0.720E-02 0.720E-02   -.158E-13 0.623E-13 0.712E-13   -.222E-01 -.225E-02 -.225E-02   0.124E-02 -.342E-02 -.342E-02
 
 
 POSITION                                       TOTAL-FORCE (eV/Angst)
 -----------------------------------------------------------------------------------
      9.80065      2.50749      2.50749        -0.006075      0.000107      0.000107
      9.79600      7.52192      7.52192        -0.002373     -0.000235     -0.000235
      0.23127      2.50804      7.52142         0.002646      0.000054     -0.000870
      0.23127      7.52142      2.50804         0.002646     -0.000870      0.000054
      2.50685      2.50891      9.79377         0.000739      0.000069      0.002423
      2.50697      7.52208      0.23359         0.000126     -0.000101     -0.000982
      7.52386      2.50580      0.23345         0.000594     -0.001824     -0.001720
      7.52118      7.52195      9.79619        -0.000125     -0.000101      0.000730
      2.50685      9.79377      2.50891         0.000739      0.002423      0.000069
      2.50697      0.23359      7.52208         0.000126     -0.000982     -0.000101
      7.52118      9.79619      7.52195        -0.000125      0.000730     -0.000101
      7.52386      0.23345      2.50580         0.000594     -0.001720     -0.001824
      2.50658      7.52240      4.78162        -0.000143     -0.000003      0.001020
      2.50803      2.50963      5.24786        -0.001327     -0.000147     -0.001704
      7.52117      7.52236      5.24821        -0.000377      0.000238     -0.000767
      7.52014      2.50671      4.78037        -0.000397     -0.001306      0.001769
      2.50658      4.78162      7.52240        -0.000143      0.001020     -0.000003
      2.50803      5.24786      2.50963        -0.001327     -0.001704     -0.000147
      7.52014      4.78037      2.50671        -0.000397      0.001769     -0.001306
      7.52117      5.24821      7.52236        -0.000377     -0.000767      0.000238
      4.78270      2.50809      7.52200        -0.002537      0.000556      0.000303
      4.78270      7.52200      2.50809        -0.002537      0.000303      0.000556
      5.24608      2.50268      2.50268         0.003578      0.002134      0.002134
      5.24603      7.51984      7.51984         0.002162     -0.000033     -0.000033
      5.01456      5.01376      5.01376         0.001973      0.002070      0.002070
      5.01311     10.02767     10.02767         0.002387      0.003878      0.003878
      0.00007      5.01527      0.00024         0.000669      0.001016      0.001987
      0.00007      0.00024      5.01527         0.000669      0.001987      0.001016
      1.18371      8.84498      6.19962        -0.001417     -0.000611      0.000134
      1.18668      1.18304      3.83278        -0.004893      0.002731     -0.003769
      8.84426      8.84566      3.83137         0.000929     -0.002989     -0.002731
      8.84360      1.18457      6.19799         0.002715     -0.000230      0.000666
      8.84360      6.19799      1.18457         0.002715      0.000666     -0.000230
      8.84426      3.83137      8.84566         0.000929     -0.002731     -0.002989
      1.18371      6.19962      8.84498        -0.001417      0.000134     -0.000611
      1.18668      3.83278      1.18304        -0.004893     -0.003769      0.002731
      6.19809      1.18406      8.84579        -0.001534      0.001292     -0.002114
      6.19809      8.84579      1.18406        -0.001534     -0.002114      0.001292
      3.82528      1.18105      1.18105         0.006845      0.003415      0.003415
      3.83039      8.84305      8.84305         0.000989     -0.000239     -0.000239
      6.19941      6.19824      3.83102        -0.001527      0.001304     -0.001535
      6.19941      3.83102      6.19824        -0.001527     -0.001535      0.001304
      3.82871      6.19684      6.19684         0.002554      0.000062      0.000062
      3.83245      3.82890      3.82890         0.001212     -0.002171     -0.002171
      7.52109      7.52213      7.52213        -0.000208     -0.000289     -0.000289
      7.52328      2.50686      2.50686        -0.001511     -0.000164     -0.000164
      2.50699      7.52097      2.50766         0.000081      0.000083     -0.000263
      2.50699      2.50766      7.52097         0.000081     -0.000263      0.000083
     -0.00004      0.00060      0.00060        -0.001714      0.000615      0.000615
      0.00206      5.01481      5.01481         0.001834     -0.000120     -0.000120
      5.01354     10.02806      5.01395        -0.000050     -0.000928     -0.000710
      5.01354      5.01395     10.02806        -0.000050     -0.000710     -0.000928
 -----------------------------------------------------------------------------------
    total drift:                                0.004714      0.001525      0.001525


--------------------------------------------------------------------------------------------------------



  FREE ENERGIE OF THE ION-ELECTRON SYSTEM (eV)
  ---------------------------------------------------
  free  energy   TOTEN  =      -268.23439044 eV

  energy  without entropy=     -268.23439044  energy(sigma->0) =     -268.23439044
 
 d Force = 0.5252863E-04[ 0.285E-04, 0.766E-04]  d Energy = 0.6530423E-04-0.128E-04
 d Force =-0.2957526E+00[-0.296E+00,-0.296E+00]  d Ewald  =-0.2957526E+00-0.544E-08


--------------------------------------------------------------------------------------------------------


    POTLOK:  cpu time      0.4811: real time      0.4839


--------------------------------------------------------------------------------------------------------


 stress matrix after NEB project (eV)
     -0.67317      0.00018      0.00018
      0.00018     -0.45563     -0.01254
      0.00018     -0.01254     -0.45563
  FORCES: max atom, RMS     0.008378    0.003061
  FORCE total and by dimension    0.022070    0.006845
  Stress total and by dimension    0.932020    0.673169
 Quasi-Newton relaxation of ions (Broydens 2nd method)
  g(Force)  = 0.235E-04   g(Stress)= 0.000E+00

 retain information from N=  1 steps
 eigenvalues of (default step * inverse Hessian matrix)
  average eigenvalue of G=   1.1150
 eigenvalue spectrum of G is  1.1150


--------------------------------------------------------------------------------------------------------


  
 reached required accuracy - stopping structural energy minimisation
     LOOP+:  cpu time     15.3092: real time     15.6415
    4ORBIT:  cpu time      0.0000: real time      0.0000

 total amount of memory used by VASP MPI-rank0    50373. kBytes
=======================================================================

   base      :      30000. kBytes
   nonlr-proj:       7911. kBytes
   fftplans  :       2173. kBytes
   grid      :       6510. kBytes
   one-center:         62. kBytes
   wavefun   :       3717. kBytes
 
  
  
 General timing and accounting informations for this job:
 ========================================================
  
                  Total CPU time used (sec):       65.782
                            User time (sec):       64.397
                          System time (sec):        1.385
                         Elapsed time (sec):       70.619
  
                   Maximum memory used (kb):      411628.
                   Average memory used (kb):          N/A
  
                          Minor page faults:        71885
                          Major page faults:          127
                 Voluntary context switches:         9491
