<?xml version="1.0" encoding="ISO-8859-1"?>
<modeling>
 <generator>
  <i name="program" type="string">vasp </i>
  <i name="version" type="string">6.4.1  </i>
  <i name="subversion" type="string">05Apr23 (build Jun 07 2023 15:38:11) complex                          parallel </i>
  <i name="platform" type="string">LinuxIFC </i>
  <i name="date" type="string">2023 10 16 </i>
  <i name="time" type="string">22:24:19 </i>
 </generator>
 <incar>
  <i type="string" name="PREC">Accu</i>
  <i type="string" name="ALGO">F</i>
  <i type="logical" name="LDIAG"> T  </i>
  <i type="int" name="ISPIN">     2</i>
  <i type="int" name="NELM">   100</i>
  <i type="int" name="NELMDL">   -10</i>
  <i type="int" name="IBRION">     2</i>
  <i name="EDIFF">      0.00000100</i>
  <i name="EDIFFG">     -0.00100000</i>
  <i type="int" name="NSW">  1000</i>
  <i type="int" name="ISIF">     2</i>
  <i name="ENCUT">    520.00000000</i>
  <i name="POTIM">      0.20000000</i>
  <i type="string" name="LREAL">Auto</i>
  <i type="logical" name="LPLANE"> T  </i>
  <i type="int" name="ISMEAR">     0</i>
  <i name="SIGMA">      0.03000000</i>
  <i type="int" name="LMAXMIX">     4</i>
  <i type="logical" name="LWAVE"> F  </i>
  <i type="logical" name="LCHARG"> F  </i>
  <i type="logical" name="LASPH"> T  </i>
  <i type="string" name="GGA">PE</i>
  <i type="int" name="IVDW">    12</i>
 </incar>
 <primitive_cell>
  <structure name="primitive_cell" >
   <crystal>
    <varray name="basis" >
     <v>       9.71292831       0.00000000       0.00000000 </v>
     <v>       0.00000000       9.71292831       0.00000000 </v>
     <v>       0.00000000       0.00000000       9.71292831 </v>
    </varray>
    <i name="volume">    916.32713895 </i>
    <varray name="rec_basis" >
     <v>       0.10295556       0.00000000       0.00000000 </v>
     <v>       0.00000000       0.10295556       0.00000000 </v>
     <v>       0.00000000       0.00000000       0.10295556 </v>
    </varray>
   </crystal>
   <varray name="positions" >
    <v>       0.95229512       0.33133857       0.33133857 </v>
    <v>       0.97523962       0.68498370       0.68498370 </v>
    <v>       0.04013363       0.17042235       0.81698093 </v>
    <v>       0.04013363       0.81698093       0.17042235 </v>
    <v>       0.29645416       0.31217789       0.98240639 </v>
    <v>       0.33359788       0.67879373       0.03099286 </v>
    <v>       0.79212239       0.21089937       0.01836489 </v>
    <v>       0.79426103       0.78604937       0.97660471 </v>
    <v>       0.29645416       0.98240639       0.31217789 </v>
    <v>       0.33359788       0.03099286       0.67879373 </v>
    <v>       0.79426103       0.97660471       0.78604937 </v>
    <v>       0.79212239       0.01836489       0.21089937 </v>
    <v>       0.20378653       0.71649642       0.47835882 </v>
    <v>       0.20554174       0.28911808       0.52431442 </v>
    <v>       0.69873276       0.80620606       0.52071668 </v>
    <v>       0.67728377       0.17383057       0.47398442 </v>
    <v>       0.20378653       0.47835882       0.71649642 </v>
    <v>       0.20554174       0.52431442       0.28911808 </v>
    <v>       0.67728377       0.47398442       0.17383057 </v>
    <v>       0.69873276       0.52071668       0.80620606 </v>
    <v>       0.48114948       0.30833317       0.78570790 </v>
    <v>       0.48114948       0.78570790       0.30833317 </v>
    <v>       0.51605815       0.23582099       0.23582099 </v>
    <v>       0.52434972       0.75753683       0.75753683 </v>
    <v>       0.50834594       0.49681987       0.49681987 </v>
    <v>       0.48857781       0.99612748       0.99612748 </v>
    <v>       0.99990963       0.49856140       0.00189629 </v>
    <v>       0.99990963       0.00189629       0.49856140 </v>
    <v>       0.12322517       0.89067723       0.62944833 </v>
    <v>       0.11028469       0.12691993       0.36920324 </v>
    <v>       0.88923725       0.86733433       0.37860546 </v>
    <v>       0.87798318       0.12813457       0.61618637 </v>
    <v>       0.87798318       0.61618637       0.12813457 </v>
    <v>       0.88923725       0.37860546       0.86733433 </v>
    <v>       0.12322517       0.62944833       0.89067723 </v>
    <v>       0.11028469       0.36920324       0.12691993 </v>
    <v>       0.61002804       0.11730403       0.87208838 </v>
    <v>       0.61002804       0.87208838       0.11730403 </v>
    <v>       0.35850181       0.11358438       0.11358438 </v>
    <v>       0.36132122       0.87750971       0.87750971 </v>
    <v>       0.63414990       0.61442801       0.37572036 </v>
    <v>       0.63414990       0.37572036       0.61442801 </v>
    <v>       0.38654059       0.61936072       0.61936072 </v>
    <v>       0.38315137       0.37607352       0.37607352 </v>
    <v>       0.75424852       0.74632905       0.74632905 </v>
    <v>       0.74425828       0.24897366       0.24897366 </v>
    <v>       0.25557074       0.75253364       0.24965594 </v>
    <v>       0.25557074       0.24965594       0.75253364 </v>
    <v>       0.94205056       0.99767872       0.99767872 </v>
    <v>       0.05604226       0.50501350       0.50501350 </v>
    <v>       0.50105755       0.98152634       0.48186643 </v>
    <v>       0.50105755       0.48186643       0.98152634 </v>
   </varray>
  </structure>
  <varray name="primitive_index" >
   <v type="int" >        1 </v>
   <v type="int" >        2 </v>
   <v type="int" >        3 </v>
   <v type="int" >        4 </v>
   <v type="int" >        5 </v>
   <v type="int" >        6 </v>
   <v type="int" >        7 </v>
   <v type="int" >        8 </v>
   <v type="int" >        9 </v>
   <v type="int" >       10 </v>
   <v type="int" >       11 </v>
   <v type="int" >       12 </v>
   <v type="int" >       13 </v>
   <v type="int" >       14 </v>
   <v type="int" >       15 </v>
   <v type="int" >       16 </v>
   <v type="int" >       17 </v>
   <v type="int" >       18 </v>
   <v type="int" >       19 </v>
   <v type="int" >       20 </v>
   <v type="int" >       21 </v>
   <v type="int" >       22 </v>
   <v type="int" >       23 </v>
   <v type="int" >       24 </v>
   <v type="int" >       25 </v>
   <v type="int" >       26 </v>
   <v type="int" >       27 </v>
   <v type="int" >       28 </v>
   <v type="int" >       29 </v>
   <v type="int" >       30 </v>
   <v type="int" >       31 </v>
   <v type="int" >       32 </v>
   <v type="int" >       33 </v>
   <v type="int" >       34 </v>
   <v type="int" >       35 </v>
   <v type="int" >       36 </v>
   <v type="int" >       37 </v>
   <v type="int" >       38 </v>
   <v type="int" >       39 </v>
   <v type="int" >       40 </v>
   <v type="int" >       41 </v>
   <v type="int" >       42 </v>
   <v type="int" >       43 </v>
   <v type="int" >       44 </v>
   <v type="int" >       45 </v>
   <v type="int" >       46 </v>
   <v type="int" >       47 </v>
   <v type="int" >       48 </v>
   <v type="int" >       49 </v>
   <v type="int" >       50 </v>
   <v type="int" >       51 </v>
   <v type="int" >       52 </v>
  </varray>
 </primitive_cell>
 <kpoints>
  <generation param="Monkhorst-Pack">
   <v type="int" name="divisions">       2        2        2 </v>
   <v name="usershift">      0.00000000       0.00000000       0.00000000 </v>
   <v name="genvec1">      0.50000000       0.00000000       0.00000000 </v>
   <v name="genvec2">      0.00000000       0.50000000       0.00000000 </v>
   <v name="genvec3">      0.00000000       0.00000000       0.50000000 </v>
   <v name="shift">      0.50000000       0.50000000       0.50000000 </v>
  </generation>
  <varray name="kpointlist" >
   <v>       0.25000000       0.25000000       0.25000000 </v>
   <v>      -0.25000000       0.25000000       0.25000000 </v>
   <v>      -0.25000000      -0.25000000       0.25000000 </v>
  </varray>
  <varray name="weights" >
   <v>       0.25000000 </v>
   <v>       0.25000000 </v>
   <v>       0.50000000 </v>
  </varray>
 </kpoints>
 <parameters>
  <separator name="general" >
   <i type="string" name="SYSTEM">unknown system</i>
   <i type="logical" name="LCOMPAT"> F  </i>
  </separator>
  <separator name="electronic" >
   <i type="string" name="PREC">accu</i>
   <i name="ENMAX">    520.00000000</i>
   <i name="ENAUG">   1041.69900000</i>
   <i name="EDIFF">      0.00000100</i>
   <i type="int" name="IALGO">    68</i>
   <i type="int" name="IWAVPR">    11</i>
   <i type="int" name="NBANDS">   176</i>
   <i type="int" name="NBANDSLOW">    -1</i>
   <i type="int" name="NBANDSHIGH">    -1</i>
   <i name="NELECT">    240.00000000</i>
   <i type="int" name="TURBO">     0</i>
   <i type="int" name="IRESTART">     0</i>
   <i type="int" name="NREBOOT">     0</i>
   <i type="int" name="NMIN">     0</i>
   <i name="EREF">      0.00000000</i>
   <separator name="electronic smearing" >
    <i type="int" name="ISMEAR">     0</i>
    <i name="SIGMA">      0.03000000</i>
    <i name="KSPACING">      0.50000000</i>
    <i type="logical" name="KGAMMA"> T  </i>
    <i type="logical" name="KBLOWUP"> T  </i>
   </separator>
   <separator name="electronic projectors" >
    <i type="logical" name="LREAL"> T  </i>
    <v name="ROPT">     -0.00025000     -0.00025000     -0.00025000     -0.00025000</v>
    <i type="int" name="LMAXPAW">  -100</i>
    <i type="int" name="LMAXMIX">     4</i>
    <i type="logical" name="NLSPLINE"> F  </i>
   </separator>
   <separator name="electronic startup" >
    <i type="int" name="ISTART">     0</i>
    <i type="int" name="ICHARG">     2</i>
    <i type="int" name="INIWAV">     1</i>
   </separator>
   <separator name="electronic spin" >
    <i type="int" name="ISPIN">     2</i>
    <i type="logical" name="LNONCOLLINEAR"> F  </i>
    <v name="MAGMOM">      1.00000000      1.00000000      1.00000000      1.00000000      1.00000000      1.00000000      1.00000000      1.00000000      1.00000000      1.00000000      1.00000000      1.00000000      1.00000000      1.00000000      1.00000000      1.00000000      1.00000000      1.00000000      1.00000000      1.00000000
      1.00000000      1.00000000      1.00000000      1.00000000      1.00000000      1.00000000      1.00000000      1.00000000      1.00000000      1.00000000      1.00000000      1.00000000      1.00000000      1.00000000      1.00000000      1.00000000      1.00000000      1.00000000      1.00000000      1.00000000
      1.00000000      1.00000000      1.00000000      1.00000000      1.00000000      1.00000000      1.00000000      1.00000000      1.00000000      1.00000000      1.00000000      1.00000000</v>
    <i name="NUPDOWN">     -1.00000000</i>
    <i type="logical" name="LSORBIT"> F  </i>
    <v name="SAXIS">      0.00000000      0.00000000      1.00000000</v>
    <i type="logical" name="LSPIRAL"> F  </i>
    <v name="QSPIRAL">      0.00000000      0.00000000      0.00000000</v>
    <i type="logical" name="LZEROZ"> F  </i>
   </separator>
   <separator name="electronic exchange-correlation" >
    <i type="logical" name="LASPH"> T  </i>
    <i type="logical" name="LMETAGGA"> F  </i>
   </separator>
   <separator name="electronic convergence" >
    <i type="int" name="NELM">   100</i>
    <i type="int" name="NELMDL">   -10</i>
    <i type="int" name="NELMIN">     2</i>
    <i name="ENINI">    520.00000000</i>
    <separator name="electronic convergence detail" >
     <i type="logical" name="LDIAG"> T  </i>
     <i type="logical" name="LSUBROT"> F  </i>
     <i name="WEIMIN">      0.00100000</i>
     <i name="EBREAK">      0.00000000</i>
     <i name="DEPER">      0.30000000</i>
     <i type="int" name="NRMM">     4</i>
     <i name="TIME">      0.40000000</i>
    </separator>
   </separator>
   <separator name="electronic mixer" >
    <i name="AMIX">      0.40000000</i>
    <i name="BMIX">      1.00000000</i>
    <i name="AMIN">      0.10000000</i>
    <i name="AMIX_MAG">      1.60000000</i>
    <i name="BMIX_MAG">      1.00000000</i>
    <separator name="electronic mixer details" >
     <i type="int" name="IMIX">     4</i>
     <i type="logical" name="MIXFIRST"> F  </i>
     <i type="int" name="MAXMIX">   -45</i>
     <i name="WC">    100.00000000</i>
     <i type="int" name="INIMIX">     1</i>
     <i type="int" name="MIXPRE">     1</i>
     <i type="int" name="MREMOVE">     5</i>
    </separator>
   </separator>
   <separator name="electronic dipolcorrection" >
    <i type="logical" name="LDIPOL"> F  </i>
    <i type="logical" name="LMONO"> F  </i>
    <i type="int" name="IDIPOL">     0</i>
    <i name="EPSILON">      1.00000000</i>
    <v name="DIPOL">   -100.00000000   -100.00000000   -100.00000000</v>
    <i name="EFIELD">      0.00000000</i>
   </separator>
  </separator>
  <separator name="grids" >
   <i type="int" name="NGX">    72</i>
   <i type="int" name="NGY">    72</i>
   <i type="int" name="NGZ">    72</i>
   <i type="int" name="NGXF">   144</i>
   <i type="int" name="NGYF">   144</i>
   <i type="int" name="NGZF">   144</i>
   <i type="logical" name="ADDGRID"> F  </i>
  </separator>
  <separator name="ionic" >
   <i type="int" name="NSW">  1000</i>
   <i type="int" name="IBRION">     2</i>
   <i type="int" name="MDALGO">     0</i>
   <i type="int" name="ISIF">     2</i>
   <i name="PSTRESS">      0.00000000</i>
   <i name="EDIFFG">     -0.00100000</i>
   <i type="int" name="NFREE">     1</i>
   <i name="POTIM">      0.20000000</i>
   <i name="SMASS">     -3.00000000</i>
   <i name="SCALEE">      1.00000000</i>
  </separator>
  <separator name="ionic md" >
   <i name="TEBEG">      0.00010000</i>
   <i name="TEEND">      0.00010000</i>
   <i type="int" name="NBLOCK">     1</i>
   <i type="int" name="KBLOCK">  1000</i>
   <i type="int" name="NPACO">   256</i>
   <i name="APACO">     10.00000000</i>
  </separator>
  <separator name="symmetry" >
   <i type="int" name="ISYM">     2</i>
   <i name="SYMPREC">      0.00001000</i>
  </separator>
  <separator name="dos" >
   <i type="int" name="LORBIT">     0</i>
   <v name="RWIGS">     -1.00000000     -1.00000000     -1.00000000     -1.00000000</v>
   <i type="int" name="NEDOS">   301</i>
   <i name="EMIN">     10.00000000</i>
   <i name="EMAX">    -10.00000000</i>
   <i name="EFERMI">      0.00000000</i>
  </separator>
  <separator name="writing" >
   <i type="int" name="NWRITE">     2</i>
   <i type="logical" name="LWAVE"> F  </i>
   <i type="logical" name="LDOWNSAMPLE"> F  </i>
   <i type="logical" name="LCHARG"> F  </i>
   <i type="logical" name="LPARD"> F  </i>
   <i type="logical" name="LVTOT"> F  </i>
   <i type="logical" name="LVHAR"> F  </i>
   <i type="logical" name="LELF"> F  </i>
   <i type="logical" name="LOPTICS"> F  </i>
   <v name="STM">      0.00000000      0.00000000      0.00000000      0.00000000      0.00000000      0.00000000      0.00000000</v>
  </separator>
  <separator name="performance" >
   <i type="int" name="NPAR">     4</i>
   <i type="int" name="NSIM">     4</i>
   <i type="int" name="NBLK">    -1</i>
   <i type="logical" name="LPLANE"> T  </i>
   <i type="logical" name="LSCALAPACK"> T  </i>
   <i type="logical" name="LSCAAWARE"> F  </i>
   <i type="logical" name="LSCALU"> F  </i>
   <i type="logical" name="LASYNC"> F  </i>
   <i type="logical" name="LORBITALREAL"> F  </i>
  </separator>
  <separator name="miscellaneous" >
   <i type="int" name="IDIOT">     3</i>
   <i type="int" name="PHON_NSTRUCT">    -1</i>
   <i type="logical" name="LMUSIC"> F  </i>
   <v name="POMASS">      7.01000000     30.97400000     32.06600000     35.45300000</v>
   <v name="DARWINR">      0.00000000      0.00000000      0.00000000      0.00000000</v>
   <v name="DARWINV">      1.00000000      1.00000000      1.00000000      1.00000000</v>
   <i type="logical" name="LCORR"> T  </i>
  </separator>
  <i type="logical" name="GGA_COMPAT"> T  </i>
  <i type="logical" name="LBERRY"> F  </i>
  <i type="int" name="ICORELEVEL">     0</i>
  <i type="logical" name="LDAU"> F  </i>
  <i type="int" name="I_CONSTRAINED_M">     0</i>
  <separator name="electronic exchange-correlation" >
   <i type="string" name="GGA">PE</i>
   <i type="int" name="VOSKOWN">     0</i>
   <i type="logical" name="LHFCALC"> F  </i>
   <i type="string" name="PRECFOCK"></i>
   <i type="logical" name="LSYMGRAD"> F  </i>
   <i type="logical" name="LHFONE"> F  </i>
   <i type="logical" name="LRHFCALC"> F  </i>
   <i type="logical" name="LTHOMAS"> F  </i>
   <i type="logical" name="LMODELHF"> F  </i>
   <i type="logical" name="LFOCKACE"> F  </i>
   <i name="ENCUT4O">     -1.00000000</i>
   <i type="int" name="EXXOEP">     0</i>
   <i type="int" name="FOURORBIT">     0</i>
   <i name="AEXX">      0.00000000</i>
   <i name="HFALPHA">      0.00000000</i>
   <i name="MCALPHA">      0.00000000</i>
   <i name="ALDAX">      1.00000000</i>
   <i name="AGGAX">      1.00000000</i>
   <i name="ALDAC">      1.00000000</i>
   <i name="AGGAC">      1.00000000</i>
   <i type="int" name="NKREDX">     1</i>
   <i type="int" name="NKREDY">     1</i>
   <i type="int" name="NKREDZ">     1</i>
   <i type="logical" name="SHIFTRED"> F  </i>
   <i type="logical" name="ODDONLY"> F  </i>
   <i type="logical" name="EVENONLY"> F  </i>
   <i type="int" name="LMAXFOCK">     0</i>
   <i type="int" name="NMAXFOCKAE">     0</i>
   <i type="logical" name="LFOCKAEDFT"> F  </i>
   <i name="HFSCREEN">      0.00000000</i>
   <i name="HFSCREENC">      0.00000000</i>
   <i type="int" name="NBANDSGWLOW">     0</i>
  </separator>
  <separator name="vdW DFT" >
   <i type="logical" name="LUSE_VDW"> F  </i>
   <i type="int" name="IVDW_NL">     1</i>
   <i type="logical" name="LSPIN_VDW"> F  </i>
   <i name="Zab_VDW">     -0.84910000</i>
   <i name="PARAM1">      0.12340000</i>
   <i name="PARAM2">      1.00000000</i>
   <i name="PARAM3">      0.00000000</i>
  </separator>
  <separator name="model GW" >
   <i type="int" name="MODEL_GW">     0</i>
   <i name="MODEL_EPS0">     10.57300545</i>
   <i name="MODEL_ALPHA">      1.00000000</i>
  </separator>
  <separator name="linear response parameters" >
   <i type="logical" name="LEPSILON"> F  </i>
   <i type="logical" name="LRPA"> F  </i>
   <i type="logical" name="LNABLA"> F  </i>
   <i type="logical" name="LVEL"> F  </i>
   <i name="CSHIFT">      0.10000000</i>
   <i name="OMEGAMAX">     -1.00000000</i>
   <i name="DEG_THRESHOLD">      0.00200000</i>
   <i name="RTIME">     -0.10000000</i>
   <i name="WPLASMAI">      0.00000000</i>
   <v name="DFIELD">      0.00000000      0.00000000      0.00000000</v>
   <v name="WPLASMA">      0.00000000      0.00000000      0.00000000      0.00000000      0.00000000      0.00000000      0.00000000      0.00000000      0.00000000</v>
  </separator>
  <separator name="orbital magnetization" >
   <i type="logical" name="NUCIND"> F  </i>
   <v name="MAGPOS">      0.00000000      0.00000000      0.00000000</v>
   <i type="logical" name="LNICSALL"> T  </i>
   <i type="logical" name="ORBITALMAG"> F  </i>
   <i type="logical" name="LMAGBLOCH"> F  </i>
   <i type="logical" name="LCHIMAG"> F  </i>
   <i type="logical" name="LGAUGE"> T  </i>
   <i type="int" name="MAGATOM">     0</i>
   <v name="MAGDIPOL">      0.00000000      0.00000000      0.00000000</v>
   <v name="AVECCONST">      0.00000000      0.00000000      0.00000000</v>
  </separator>
  <separator name="response functions" >
   <i type="logical" name="LALL_IN_ONE"> F  </i>
   <i type="int" name="IALL_IN_ONE">    -1</i>
   <i type="int" name="NBANDS_WAVE">    -1</i>
   <i type="logical" name="LFINITE_TEMPERATURE"> F  </i>
   <i type="logical" name="LADDER"> F  </i>
   <i type="logical" name="LRPAFORCE"> F  </i>
   <i type="logical" name="LFXC"> F  </i>
   <i type="logical" name="LHARTREE"> T  </i>
   <i type="int" name="IBSE">     0</i>
   <v type="int" name="KPOINT">    -1     0     0     0</v>
   <i type="logical" name="LTCTC"> F  </i>
   <i type="logical" name="LTCTE"> F  </i>
   <i type="logical" name="LTETE"> F  </i>
   <i type="logical" name="LTRIPLET"> F  </i>
   <i type="logical" name="LFXCEPS"> F  </i>
   <i type="logical" name="LFXHEG"> F  </i>
   <i type="int" name="NATURALO">     2</i>
   <i type="logical" name="LHOLEGF"> F  </i>
   <i type="logical" name="L2ORDER"> F  </i>
   <i type="logical" name="LDMP1"> F  </i>
   <i type="logical" name="LMP2LT"> F  </i>
   <i type="logical" name="LSMP2LT"> F  </i>
   <i type="logical" name="LGWLF"> F  </i>
   <i name="ENCUTGW">     -1.60000002</i>
   <i name="ENCUTGWSOFT">     -1.60000002</i>
   <i name="ENCUTLF">     -1.00000000</i>
   <i type="logical" name="LESF_SPLINES"> F  </i>
   <i type="int" name="LMAXMP2">    -1</i>
   <i name="SCISSOR">      0.00000000</i>
   <i type="int" name="NOMEGA">     0</i>
   <i type="int" name="NOMEGAR">     0</i>
   <i type="int" name="NBANDSGW">    -1</i>
   <i type="int" name="NBANDSO">    -1</i>
   <i type="int" name="NBANDSV">    -1</i>
   <i type="int" name="NELMGW">     1</i>
   <i type="int" name="NELMHF">     1</i>
   <i type="int" name="DIM">     3</i>
   <i type="int" name="IESPILON">     4</i>
   <i type="int" name="ANTIRES">     0</i>
   <i name="OMEGAMAX">    -30.00000000</i>
   <i name="OMEGAMIN">    -30.00000000</i>
   <i name="OMEGATL">   -200.00000000</i>
   <i type="int" name="OMEGAGRID">     0</i>
   <i name="CSHIFT">     -0.10000000</i>
   <i type="logical" name="LSELFENERGY"> F  </i>
   <i type="logical" name="LSPECTRAL"> F  </i>
   <i type="logical" name="LSPECTRALGW"> F  </i>
   <i type="logical" name="LSINGLES"> F  </i>
   <i type="logical" name="LFERMIGW"> F  </i>
   <i type="logical" name="ODDONLYGW"> F  </i>
   <i type="logical" name="EVENONLYGW"> F  </i>
   <i type="int" name="NKREDLFX">     1</i>
   <i type="int" name="NKREDLFY">     1</i>
   <i type="int" name="NKREDLFZ">     1</i>
   <i type="int" name="MAXMEM">  2800</i>
   <i type="int" name="TELESCOPE">     0</i>
   <i type="int" name="NTAUPAR">    -1</i>
   <i type="int" name="NOMEGAPAR">    -1</i>
   <i name="DAMP_NEWTON">      0.80000001</i>
   <i name="LAMBDA">      1.00000000</i>
  </separator>
  <separator name="External order field" >
   <i name="OFIELD_KAPPA">      0.00000000</i>
   <v name="OFIELD_K">      0.00000000      0.00000000      0.00000000</v>
   <i name="OFIELD_Q6_NEAR">      0.00000000</i>
   <i name="OFIELD_Q6_FAR">      0.00000000</i>
   <i name="OFIELD_A">      0.00000000</i>
  </separator>
  <separator name="optional k-points parameters" >
   <i type="int" name="KPOINTS_OPT_MODE">     1</i>
   <i type="logical" name="LKPOINTS_OPT"> F  </i>
  </separator>
 </parameters>
 <atominfo>
  <atoms>      52 </atoms>
  <types>       4 </types>
  <array name="atoms" >
   <dimension dim="1">ion</dimension>
   <field type="string">element</field>
   <field type="int">atomtype</field>
   <set>
    <rc><c>Li</c><c>   1</c></rc>
    <rc><c>Li</c><c>   1</c></rc>
    <rc><c>Li</c><c>   1</c></rc>
    <rc><c>Li</c><c>   1</c></rc>
    <rc><c>Li</c><c>   1</c></rc>
    <rc><c>Li</c><c>   1</c></rc>
    <rc><c>Li</c><c>   1</c></rc>
    <rc><c>Li</c><c>   1</c></rc>
    <rc><c>Li</c><c>   1</c></rc>
    <rc><c>Li</c><c>   1</c></rc>
    <rc><c>Li</c><c>   1</c></rc>
    <rc><c>Li</c><c>   1</c></rc>
    <rc><c>Li</c><c>   1</c></rc>
    <rc><c>Li</c><c>   1</c></rc>
    <rc><c>Li</c><c>   1</c></rc>
    <rc><c>Li</c><c>   1</c></rc>
    <rc><c>Li</c><c>   1</c></rc>
    <rc><c>Li</c><c>   1</c></rc>
    <rc><c>Li</c><c>   1</c></rc>
    <rc><c>Li</c><c>   1</c></rc>
    <rc><c>Li</c><c>   1</c></rc>
    <rc><c>Li</c><c>   1</c></rc>
    <rc><c>Li</c><c>   1</c></rc>
    <rc><c>Li</c><c>   1</c></rc>
    <rc><c>P </c><c>   2</c></rc>
    <rc><c>P </c><c>   2</c></rc>
    <rc><c>P </c><c>   2</c></rc>
    <rc><c>P </c><c>   2</c></rc>
    <rc><c>S </c><c>   3</c></rc>
    <rc><c>S </c><c>   3</c></rc>
    <rc><c>S </c><c>   3</c></rc>
    <rc><c>S </c><c>   3</c></rc>
    <rc><c>S </c><c>   3</c></rc>
    <rc><c>S </c><c>   3</c></rc>
    <rc><c>S </c><c>   3</c></rc>
    <rc><c>S </c><c>   3</c></rc>
    <rc><c>S </c><c>   3</c></rc>
    <rc><c>S </c><c>   3</c></rc>
    <rc><c>S </c><c>   3</c></rc>
    <rc><c>S </c><c>   3</c></rc>
    <rc><c>S </c><c>   3</c></rc>
    <rc><c>S </c><c>   3</c></rc>
    <rc><c>S </c><c>   3</c></rc>
    <rc><c>S </c><c>   3</c></rc>
    <rc><c>S </c><c>   3</c></rc>
    <rc><c>S </c><c>   3</c></rc>
    <rc><c>S </c><c>   3</c></rc>
    <rc><c>S </c><c>   3</c></rc>
    <rc><c>Cl</c><c>   4</c></rc>
    <rc><c>Cl</c><c>   4</c></rc>
    <rc><c>Cl</c><c>   4</c></rc>
    <rc><c>Cl</c><c>   4</c></rc>
   </set>
  </array>
  <array name="atomtypes" >
   <dimension dim="1">type</dimension>
   <field type="int">atomspertype</field>
   <field type="string">element</field>
   <field>mass</field>
   <field>valence</field>
   <field type="string">pseudopotential</field>
   <set>
    <rc><c>  24</c><c>Li</c><c>      7.01000000</c><c>      3.00000000</c><c>  PAW_PBE Li_sv_GW 25Mar2010            </c></rc>
    <rc><c>   4</c><c>P </c><c>     30.97400000</c><c>      5.00000000</c><c>  PAW_PBE P_GW 19Mar2012                </c></rc>
    <rc><c>  20</c><c>S </c><c>     32.06600000</c><c>      6.00000000</c><c>  PAW_PBE S_GW 19Mar2012                </c></rc>
    <rc><c>   4</c><c>Cl</c><c>     35.45300000</c><c>      7.00000000</c><c>  PAW_PBE Cl_GW 19Mar2012               </c></rc>
   </set>
  </array>
 </atominfo>
 <structure name="initialpos" >
  <crystal>
   <varray name="basis" >
    <v>       9.71292831       0.00000000       0.00000000 </v>
    <v>       0.00000000       9.71292831       0.00000000 </v>
    <v>       0.00000000       0.00000000       9.71292831 </v>
   </varray>
   <i name="volume">    916.32713895 </i>
   <varray name="rec_basis" >
    <v>       0.10295556       0.00000000       0.00000000 </v>
    <v>       0.00000000       0.10295556       0.00000000 </v>
    <v>       0.00000000       0.00000000       0.10295556 </v>
   </varray>
  </crystal>
  <varray name="positions" >
   <v>       0.95229512       0.33133857       0.33133857 </v>
   <v>       0.97523962       0.68498370       0.68498370 </v>
   <v>       0.04013363       0.17042235       0.81698093 </v>
   <v>       0.04013363       0.81698093       0.17042235 </v>
   <v>       0.29645416       0.31217789       0.98240639 </v>
   <v>       0.33359788       0.67879373       0.03099286 </v>
   <v>       0.79212239       0.21089937       0.01836489 </v>
   <v>       0.79426103       0.78604937       0.97660471 </v>
   <v>       0.29645416       0.98240639       0.31217789 </v>
   <v>       0.33359788       0.03099286       0.67879373 </v>
   <v>       0.79426103       0.97660471       0.78604937 </v>
   <v>       0.79212239       0.01836489       0.21089937 </v>
   <v>       0.20378653       0.71649642       0.47835882 </v>
   <v>       0.20554174       0.28911808       0.52431442 </v>
   <v>       0.69873276       0.80620606       0.52071668 </v>
   <v>       0.67728377       0.17383057       0.47398442 </v>
   <v>       0.20378653       0.47835882       0.71649642 </v>
   <v>       0.20554174       0.52431442       0.28911808 </v>
   <v>       0.67728377       0.47398442       0.17383057 </v>
   <v>       0.69873276       0.52071668       0.80620606 </v>
   <v>       0.48114948       0.30833317       0.78570790 </v>
   <v>       0.48114948       0.78570790       0.30833317 </v>
   <v>       0.51605815       0.23582099       0.23582099 </v>
   <v>       0.52434972       0.75753683       0.75753683 </v>
   <v>       0.50834594       0.49681987       0.49681987 </v>
   <v>       0.48857781       0.99612748       0.99612748 </v>
   <v>       0.99990963       0.49856140       0.00189629 </v>
   <v>       0.99990963       0.00189629       0.49856140 </v>
   <v>       0.12322517       0.89067723       0.62944833 </v>
   <v>       0.11028469       0.12691993       0.36920324 </v>
   <v>       0.88923725       0.86733433       0.37860546 </v>
   <v>       0.87798318       0.12813457       0.61618637 </v>
   <v>       0.87798318       0.61618637       0.12813457 </v>
   <v>       0.88923725       0.37860546       0.86733433 </v>
   <v>       0.12322517       0.62944833       0.89067723 </v>
   <v>       0.11028469       0.36920324       0.12691993 </v>
   <v>       0.61002804       0.11730403       0.87208838 </v>
   <v>       0.61002804       0.87208838       0.11730403 </v>
   <v>       0.35850181       0.11358438       0.11358438 </v>
   <v>       0.36132122       0.87750971       0.87750971 </v>
   <v>       0.63414990       0.61442801       0.37572036 </v>
   <v>       0.63414990       0.37572036       0.61442801 </v>
   <v>       0.38654059       0.61936072       0.61936072 </v>
   <v>       0.38315137       0.37607352       0.37607352 </v>
   <v>       0.75424852       0.74632905       0.74632905 </v>
   <v>       0.74425828       0.24897366       0.24897366 </v>
   <v>       0.25557074       0.75253364       0.24965594 </v>
   <v>       0.25557074       0.24965594       0.75253364 </v>
   <v>       0.94205056       0.99767872       0.99767872 </v>
   <v>       0.05604226       0.50501350       0.50501350 </v>
   <v>       0.50105755       0.98152634       0.48186643 </v>
   <v>       0.50105755       0.48186643       0.98152634 </v>
  </varray>
 </structure>
 <calculation>
  <scstep>
   <time name="dav">    1.66    1.81</time>
   <time name="total">    2.14    2.31</time>
   <energy>
    <i name="alphaZ">    296.24518596 </i>
    <i name="ewald">  -8705.99450445 </i>
    <i name="hartreedc">  -2177.40551306 </i>
    <i name="XCdc">    533.64461601 </i>
    <i name="pawpsdc">   8141.38806575 </i>
    <i name="pawaedc">  -8271.61346273 </i>
    <i name="eentropy">     -0.00569225 </i>
    <i name="bandstr">   -942.43902163 </i>
    <i name="atom">  12703.13999606 </i>
    <i name="e_fr_energy">   1576.95966965 </i>
    <i name="e_wo_entrp">   1576.96536190 </i>
    <i name="e_0_energy">   1576.96251577 </i>
   </energy>
  </scstep>
  <scstep>
   <time name="dav">    1.96    1.98</time>
   <time name="total">    1.96    1.98</time>
   <energy>
    <i name="e_fr_energy">    -59.68961731 </i>
    <i name="e_wo_entrp">    -59.68961731 </i>
    <i name="e_0_energy">    -59.68961731 </i>
   </energy>
  </scstep>
  <scstep>
   <time name="dav">    1.92    1.97</time>
   <time name="total">    1.92    1.97</time>
   <energy>
    <i name="e_fr_energy">   -229.93777201 </i>
    <i name="e_wo_entrp">   -229.93777201 </i>
    <i name="e_0_energy">   -229.93777201 </i>
   </energy>
  </scstep>
  <scstep>
   <time name="dav">    2.31    2.40</time>
   <time name="total">    2.31    2.40</time>
   <energy>
    <i name="e_fr_energy">   -242.44124025 </i>
    <i name="e_wo_entrp">   -242.44124025 </i>
    <i name="e_0_energy">   -242.44124025 </i>
   </energy>
  </scstep>
  <scstep>
   <time name="dav">    2.24    2.26</time>
   <time name="total">    2.24    2.26</time>
   <energy>
    <i name="e_fr_energy">   -242.73860329 </i>
    <i name="e_wo_entrp">   -242.73860329 </i>
    <i name="e_0_energy">   -242.73860329 </i>
   </energy>
  </scstep>
  <scstep>
   <time name="dav">    2.26    2.32</time>
   <time name="total">    2.27    2.32</time>
   <energy>
    <i name="e_fr_energy">   -242.74661207 </i>
    <i name="e_wo_entrp">   -242.74661207 </i>
    <i name="e_0_energy">   -242.74661207 </i>
   </energy>
  </scstep>
  <scstep>
   <time name="dav">    2.24    2.25</time>
   <time name="total">    2.24    2.25</time>
   <energy>
    <i name="e_fr_energy">   -242.74700004 </i>
    <i name="e_wo_entrp">   -242.74700004 </i>
    <i name="e_0_energy">   -242.74700004 </i>
   </energy>
  </scstep>
  <scstep>
   <time name="dav">    2.25    2.27</time>
   <time name="total">    2.25    2.27</time>
   <energy>
    <i name="e_fr_energy">   -242.74702414 </i>
    <i name="e_wo_entrp">   -242.74702414 </i>
    <i name="e_0_energy">   -242.74702414 </i>
   </energy>
  </scstep>
  <scstep>
   <time name="dav">    2.22    2.24</time>
   <time name="total">    2.22    2.24</time>
   <energy>
    <i name="e_fr_energy">   -242.74702575 </i>
    <i name="e_wo_entrp">   -242.74702575 </i>
    <i name="e_0_energy">   -242.74702575 </i>
   </energy>
  </scstep>
  <scstep>
   <time name="dav">    1.47    1.49</time>
   <time name="total">    1.60    1.65</time>
   <energy>
    <i name="e_fr_energy">   -242.74702582 </i>
    <i name="e_wo_entrp">   -242.74702582 </i>
    <i name="e_0_energy">   -242.74702582 </i>
   </energy>
  </scstep>
  <scstep>
   <time name="diag">    0.28    0.28</time>
   <time name="diis">    0.87    0.88</time>
   <time name="orth">    0.05    0.05</time>
   <time name="total">    1.79    1.84</time>
   <energy>
    <i name="e_fr_energy">   -235.07060868 </i>
    <i name="e_wo_entrp">   -235.07060868 </i>
    <i name="e_0_energy">   -235.07060868 </i>
   </energy>
  </scstep>
  <scstep>
   <time name="diag">    0.27    0.27</time>
   <time name="diis">    0.92    0.93</time>
   <time name="orth">    0.05    0.05</time>
   <time name="total">    1.82    1.88</time>
   <energy>
    <i name="e_fr_energy">   -255.88412464 </i>
    <i name="e_wo_entrp">   -255.88412464 </i>
    <i name="e_0_energy">   -255.88412464 </i>
   </energy>
  </scstep>
  <scstep>
   <time name="diag">    0.27    0.27</time>
   <time name="diis">    0.90    0.90</time>
   <time name="orth">    0.05    0.05</time>
   <time name="total">    1.80    1.85</time>
   <energy>
    <i name="e_fr_energy">   -258.34360830 </i>
    <i name="e_wo_entrp">   -258.34360830 </i>
    <i name="e_0_energy">   -258.34360830 </i>
   </energy>
  </scstep>
  <scstep>
   <time name="diag">    0.27    0.27</time>
   <time name="diis">    1.18    1.19</time>
   <time name="orth">    0.05    0.05</time>
   <time name="total">    2.08    2.12</time>
   <energy>
    <i name="e_fr_energy">   -258.56988841 </i>
    <i name="e_wo_entrp">   -258.56988841 </i>
    <i name="e_0_energy">   -258.56988841 </i>
   </energy>
  </scstep>
  <scstep>
   <time name="diag">    0.27    0.27</time>
   <time name="diis">    0.95    0.96</time>
   <time name="orth">    0.05    0.05</time>
   <time name="total">    1.85    1.87</time>
   <energy>
    <i name="e_fr_energy">   -258.52279210 </i>
    <i name="e_wo_entrp">   -258.52279210 </i>
    <i name="e_0_energy">   -258.52279210 </i>
   </energy>
  </scstep>
  <scstep>
   <time name="diag">    0.27    0.27</time>
   <time name="diis">    0.95    0.96</time>
   <time name="orth">    0.05    0.05</time>
   <time name="total">    1.84    1.87</time>
   <energy>
    <i name="e_fr_energy">   -258.54200987 </i>
    <i name="e_wo_entrp">   -258.54200987 </i>
    <i name="e_0_energy">   -258.54200987 </i>
   </energy>
  </scstep>
  <scstep>
   <time name="diag">    0.27    0.27</time>
   <time name="diis">    1.07    1.08</time>
   <time name="orth">    0.05    0.05</time>
   <time name="total">    1.97    2.00</time>
   <energy>
    <i name="e_fr_energy">   -258.54881501 </i>
    <i name="e_wo_entrp">   -258.54881501 </i>
    <i name="e_0_energy">   -258.54881501 </i>
   </energy>
  </scstep>
  <scstep>
   <time name="diag">    0.27    0.27</time>
   <time name="diis">    1.08    1.09</time>
   <time name="orth">    0.05    0.05</time>
   <time name="total">    1.98    2.01</time>
   <energy>
    <i name="e_fr_energy">   -258.54998087 </i>
    <i name="e_wo_entrp">   -258.54998087 </i>
    <i name="e_0_energy">   -258.54998087 </i>
   </energy>
  </scstep>
  <scstep>
   <time name="diag">    0.27    0.27</time>
   <time name="diis">    1.16    1.17</time>
   <time name="orth">    0.05    0.05</time>
   <time name="total">    2.05    2.10</time>
   <energy>
    <i name="e_fr_energy">   -258.55058994 </i>
    <i name="e_wo_entrp">   -258.55058994 </i>
    <i name="e_0_energy">   -258.55058994 </i>
   </energy>
  </scstep>
  <scstep>
   <time name="diag">    0.27    0.27</time>
   <time name="diis">    1.18    1.19</time>
   <time name="orth">    0.05    0.05</time>
   <time name="total">    2.07    2.11</time>
   <energy>
    <i name="e_fr_energy">   -258.55070575 </i>
    <i name="e_wo_entrp">   -258.55070575 </i>
    <i name="e_0_energy">   -258.55070575 </i>
   </energy>
  </scstep>
  <scstep>
   <time name="diag">    0.27    0.27</time>
   <time name="diis">    1.08    1.09</time>
   <time name="orth">    0.05    0.05</time>
   <time name="total">    1.96    2.00</time>
   <energy>
    <i name="e_fr_energy">   -258.55072638 </i>
    <i name="e_wo_entrp">   -258.55072638 </i>
    <i name="e_0_energy">   -258.55072638 </i>
   </energy>
  </scstep>
  <scstep>
   <time name="diag">    0.27    0.27</time>
   <time name="diis">    1.18    1.19</time>
   <time name="orth">    0.05    0.05</time>
   <time name="total">    2.07    2.11</time>
   <energy>
    <i name="e_fr_energy">   -258.55073503 </i>
    <i name="e_wo_entrp">   -258.55073503 </i>
    <i name="e_0_energy">   -258.55073503 </i>
   </energy>
  </scstep>
  <scstep>
   <time name="diag">    0.27    0.27</time>
   <time name="diis">    0.99    1.00</time>
   <time name="orth">    0.05    0.05</time>
   <time name="total">    1.88    1.91</time>
   <energy>
    <i name="e_fr_energy">   -258.55073472 </i>
    <i name="e_wo_entrp">   -258.55073472 </i>
    <i name="e_0_energy">   -258.55073472 </i>
   </energy>
  </scstep>
  <scstep>
   <time name="diag">    0.27    0.27</time>
   <time name="diis">    0.79    0.80</time>
   <time name="orth">    0.05    0.05</time>
   <time name="total">    1.58    1.59</time>
   <energy>
    <i name="alphaZ">    296.24518596 </i>
    <i name="ewald">  -8705.99450445 </i>
    <i name="hartreedc">  -2286.84806575 </i>
    <i name="XCdc">    537.59689355 </i>
    <i name="pawpsdc">   9831.51123476 </i>
    <i name="pawaedc">  -9975.57485773 </i>
    <i name="eentropy">     -0.00000000 </i>
    <i name="bandstr">  -2658.62661663 </i>
    <i name="atom">  12703.13999606 </i>
    <i name="e_fr_energy">   -258.55073424 </i>
    <i name="e_wo_entrp">   -258.55073424 </i>
    <i name="e_0_energy">   -258.55073424 </i>
   </energy>
  </scstep>
  <structure>
   <crystal>
    <varray name="basis" >
     <v>       9.71292831       0.00000000       0.00000000 </v>
     <v>       0.00000000       9.71292831       0.00000000 </v>
     <v>       0.00000000       0.00000000       9.71292831 </v>
    </varray>
    <i name="volume">    916.32713895 </i>
    <varray name="rec_basis" >
     <v>       0.10295556       0.00000000       0.00000000 </v>
     <v>       0.00000000       0.10295556       0.00000000 </v>
     <v>       0.00000000       0.00000000       0.10295556 </v>
    </varray>
   </crystal>
   <varray name="positions" >
    <v>       0.95229512       0.33133857       0.33133857 </v>
    <v>       0.97523962       0.68498370       0.68498370 </v>
    <v>       0.04013363       0.17042235       0.81698093 </v>
    <v>       0.04013363       0.81698093       0.17042235 </v>
    <v>       0.29645416       0.31217789       0.98240639 </v>
    <v>       0.33359788       0.67879373       0.03099286 </v>
    <v>       0.79212239       0.21089937       0.01836489 </v>
    <v>       0.79426103       0.78604937       0.97660471 </v>
    <v>       0.29645416       0.98240639       0.31217789 </v>
    <v>       0.33359788       0.03099286       0.67879373 </v>
    <v>       0.79426103       0.97660471       0.78604937 </v>
    <v>       0.79212239       0.01836489       0.21089937 </v>
    <v>       0.20378653       0.71649642       0.47835882 </v>
    <v>       0.20554174       0.28911808       0.52431442 </v>
    <v>       0.69873276       0.80620606       0.52071668 </v>
    <v>       0.67728377       0.17383057       0.47398442 </v>
    <v>       0.20378653       0.47835882       0.71649642 </v>
    <v>       0.20554174       0.52431442       0.28911808 </v>
    <v>       0.67728377       0.47398442       0.17383057 </v>
    <v>       0.69873276       0.52071668       0.80620606 </v>
    <v>       0.48114948       0.30833317       0.78570790 </v>
    <v>       0.48114948       0.78570790       0.30833317 </v>
    <v>       0.51605815       0.23582099       0.23582099 </v>
    <v>       0.52434972       0.75753683       0.75753683 </v>
    <v>       0.50834594       0.49681987       0.49681987 </v>
    <v>       0.48857781       0.99612748       0.99612748 </v>
    <v>       0.99990963       0.49856140       0.00189629 </v>
    <v>       0.99990963       0.00189629       0.49856140 </v>
    <v>       0.12322517       0.89067723       0.62944833 </v>
    <v>       0.11028469       0.12691993       0.36920324 </v>
    <v>       0.88923725       0.86733433       0.37860546 </v>
    <v>       0.87798318       0.12813457       0.61618637 </v>
    <v>       0.87798318       0.61618637       0.12813457 </v>
    <v>       0.88923725       0.37860546       0.86733433 </v>
    <v>       0.12322517       0.62944833       0.89067723 </v>
    <v>       0.11028469       0.36920324       0.12691993 </v>
    <v>       0.61002804       0.11730403       0.87208838 </v>
    <v>       0.61002804       0.87208838       0.11730403 </v>
    <v>       0.35850181       0.11358438       0.11358438 </v>
    <v>       0.36132122       0.87750971       0.87750971 </v>
    <v>       0.63414990       0.61442801       0.37572036 </v>
    <v>       0.63414990       0.37572036       0.61442801 </v>
    <v>       0.38654059       0.61936072       0.61936072 </v>
    <v>       0.38315137       0.37607352       0.37607352 </v>
    <v>       0.75424852       0.74632905       0.74632905 </v>
    <v>       0.74425828       0.24897366       0.24897366 </v>
    <v>       0.25557074       0.75253364       0.24965594 </v>
    <v>       0.25557074       0.24965594       0.75253364 </v>
    <v>       0.94205056       0.99767872       0.99767872 </v>
    <v>       0.05604226       0.50501350       0.50501350 </v>
    <v>       0.50105755       0.98152634       0.48186643 </v>
    <v>       0.50105755       0.48186643       0.98152634 </v>
   </varray>
  </structure>
  <varray name="forces" >
   <v>       0.00107860       0.00520244       0.00520244 </v>
   <v>       0.00333165      -0.00240261      -0.00240261 </v>
   <v>      -0.00137723      -0.00600628       0.00328768 </v>
   <v>      -0.00137723       0.00328768      -0.00600628 </v>
   <v>       0.00203870       0.00333703       0.00143932 </v>
   <v>       0.00343505      -0.00231375      -0.00143188 </v>
   <v>       0.00191710      -0.00045318      -0.00174247 </v>
   <v>       0.00171603       0.00095799       0.00109700 </v>
   <v>       0.00203870       0.00143932       0.00333703 </v>
   <v>       0.00343505      -0.00143188      -0.00231375 </v>
   <v>       0.00171603       0.00109700       0.00095799 </v>
   <v>       0.00191710      -0.00174247      -0.00045318 </v>
   <v>      -0.00201317      -0.00065371       0.00132361 </v>
   <v>      -0.00262986       0.00068386      -0.00116194 </v>
   <v>      -0.00171471       0.00305199      -0.00156593 </v>
   <v>      -0.00217837      -0.00168575       0.00149567 </v>
   <v>      -0.00201317       0.00132361      -0.00065371 </v>
   <v>      -0.00262986      -0.00116194       0.00068386 </v>
   <v>      -0.00217837       0.00149567      -0.00168575 </v>
   <v>      -0.00171471      -0.00156593       0.00305199 </v>
   <v>       0.00213132       0.00184193       0.00199716 </v>
   <v>       0.00213132       0.00199716       0.00184193 </v>
   <v>      -0.00229221       0.00013578       0.00013578 </v>
   <v>      -0.00094546      -0.00005088      -0.00005088 </v>
   <v>      -0.00396566      -0.00205105      -0.00205105 </v>
   <v>       0.00198470       0.00111260       0.00111260 </v>
   <v>      -0.00247784       0.00064473      -0.00404457 </v>
   <v>      -0.00247784      -0.00404457       0.00064473 </v>
   <v>       0.01713275      -0.01191226       0.02090038 </v>
   <v>       0.01280891       0.01567790      -0.02111571 </v>
   <v>      -0.01226853      -0.02160814      -0.01496047 </v>
   <v>      -0.01594834       0.02023972       0.01309520 </v>
   <v>      -0.01594834       0.01309520       0.02023972 </v>
   <v>      -0.01226853      -0.01496047      -0.02160814 </v>
   <v>       0.01713275       0.02090038      -0.01191226 </v>
   <v>       0.01280891      -0.02111571       0.01567790 </v>
   <v>       0.01444012       0.01583946      -0.01671036 </v>
   <v>       0.01444012      -0.01671036       0.01583946 </v>
   <v>      -0.02022209       0.01407130       0.01407130 </v>
   <v>      -0.02166657      -0.01508788      -0.01508788 </v>
   <v>       0.01993814       0.01420732      -0.01682322 </v>
   <v>       0.01993814      -0.01682322       0.01420732 </v>
   <v>      -0.01487098       0.01538754       0.01538754 </v>
   <v>      -0.01452630      -0.01600807      -0.01600807 </v>
   <v>       0.00133639      -0.00150735      -0.00150735 </v>
   <v>       0.00107048       0.00158280       0.00158280 </v>
   <v>       0.00006637       0.00105247      -0.00229742 </v>
   <v>       0.00006637      -0.00229742       0.00105247 </v>
   <v>       0.00709556       0.00014464       0.00014464 </v>
   <v>      -0.00856914      -0.00030631      -0.00030631 </v>
   <v>       0.00056405       0.00240363       0.00169004 </v>
   <v>       0.00056405       0.00169004       0.00240363 </v>
  </varray>
  <varray name="stress" >
   <v>       3.91291282      -1.46866988      -1.46866988 </v>
   <v>      -1.46866985      -2.17656033      -0.27583420 </v>
   <v>      -1.46866985      -0.27583420      -2.17656033 </v>
  </varray>
  <energy>
   <i name="e_fr_energy">   -271.88505737 </i>
   <i name="e_wo_entrp">   -271.88505737 </i>
   <i name="e_0_energy">   -271.88505737 </i>
  </energy>
  <time name="totalsc">   50.58   51.68</time>
 </calculation>
 <calculation>
  <scstep>
   <time name="dav">    1.61    1.62</time>
   <time name="total">    2.18    2.23</time>
   <energy>
    <i name="alphaZ">    296.24518596 </i>
    <i name="ewald">  -8706.73748799 </i>
    <i name="hartreedc">  -2286.27024698 </i>
    <i name="XCdc">    537.58077789 </i>
    <i name="pawpsdc">   9831.50795447 </i>
    <i name="pawaedc">  -9975.57150142 </i>
    <i name="eentropy">     -0.00000000 </i>
    <i name="bandstr">  -2658.44555151 </i>
    <i name="atom">  12703.13999606 </i>
    <i name="e_fr_energy">   -258.55087350 </i>
    <i name="e_wo_entrp">   -258.55087350 </i>
    <i name="e_0_energy">   -258.55087350 </i>
   </energy>
  </scstep>
  <scstep>
   <time name="diag">    0.27    0.28</time>
   <time name="diis">    0.89    0.90</time>
   <time name="orth">    0.05    0.05</time>
   <time name="total">    1.80    1.84</time>
   <energy>
    <i name="e_fr_energy">   -258.55089075 </i>
    <i name="e_wo_entrp">   -258.55089075 </i>
    <i name="e_0_energy">   -258.55089075 </i>
   </energy>
  </scstep>
  <scstep>
   <time name="diag">    0.27    0.27</time>
   <time name="diis">    1.02    1.03</time>
   <time name="orth">    0.05    0.05</time>
   <time name="total">    1.91    1.96</time>
   <energy>
    <i name="e_fr_energy">   -258.55090006 </i>
    <i name="e_wo_entrp">   -258.55090006 </i>
    <i name="e_0_energy">   -258.55090006 </i>
   </energy>
  </scstep>
  <scstep>
   <time name="diag">    0.27    0.27</time>
   <time name="diis">    0.98    0.99</time>
   <time name="orth">    0.05    0.05</time>
   <time name="total">    1.87    1.92</time>
   <energy>
    <i name="e_fr_energy">   -258.55090256 </i>
    <i name="e_wo_entrp">   -258.55090256 </i>
    <i name="e_0_energy">   -258.55090256 </i>
   </energy>
  </scstep>
  <scstep>
   <time name="diag">    0.27    0.27</time>
   <time name="diis">    0.67    0.68</time>
   <time name="orth">    0.05    0.05</time>
   <time name="total">    1.45    1.46</time>
   <energy>
    <i name="alphaZ">    296.24518596 </i>
    <i name="ewald">  -8706.73748799 </i>
    <i name="hartreedc">  -2286.20693120 </i>
    <i name="XCdc">    537.57744173 </i>
    <i name="pawpsdc">   9830.38806099 </i>
    <i name="pawaedc">  -9974.44676756 </i>
    <i name="eentropy">     -0.00000000 </i>
    <i name="bandstr">  -2658.51040071 </i>
    <i name="atom">  12703.13999606 </i>
    <i name="e_fr_energy">   -258.55090271 </i>
    <i name="e_wo_entrp">   -258.55090271 </i>
    <i name="e_0_energy">   -258.55090271 </i>
   </energy>
  </scstep>
  <structure>
   <crystal>
    <varray name="basis" >
     <v>       9.71292831       0.00000000       0.00000000 </v>
     <v>       0.00000000       9.71292831       0.00000000 </v>
     <v>       0.00000000       0.00000000       9.71292831 </v>
    </varray>
    <i name="volume">    916.32713895 </i>
    <varray name="rec_basis" >
     <v>       0.10295556       0.00000000       0.00000000 </v>
     <v>       0.00000000       0.10295556       0.00000000 </v>
     <v>       0.00000000       0.00000000       0.10295556 </v>
    </varray>
   </crystal>
   <varray name="positions" >
    <v>       0.95229726       0.33134891       0.33134891 </v>
    <v>       0.97524624       0.68497893       0.68497893 </v>
    <v>       0.04013089       0.17041042       0.81698746 </v>
    <v>       0.04013089       0.81698746       0.17041042 </v>
    <v>       0.29645821       0.31218452       0.98240925 </v>
    <v>       0.33360471       0.67878914       0.03099001 </v>
    <v>       0.79212620       0.21089847       0.01836143 </v>
    <v>       0.79426444       0.78605127       0.97660689 </v>
    <v>       0.29645821       0.98240925       0.31218452 </v>
    <v>       0.33360471       0.03099001       0.67878914 </v>
    <v>       0.79426444       0.97660689       0.78605127 </v>
    <v>       0.79212620       0.01836143       0.21089847 </v>
    <v>       0.20378253       0.71649512       0.47836145 </v>
    <v>       0.20553652       0.28911944       0.52431211 </v>
    <v>       0.69872935       0.80621213       0.52071357 </v>
    <v>       0.67727945       0.17382722       0.47398739 </v>
    <v>       0.20378253       0.47836145       0.71649512 </v>
    <v>       0.20553652       0.52431211       0.28911944 </v>
    <v>       0.67727945       0.47398739       0.17382722 </v>
    <v>       0.69872935       0.52071357       0.80621213 </v>
    <v>       0.48115372       0.30833683       0.78571186 </v>
    <v>       0.48115372       0.78571186       0.30833683 </v>
    <v>       0.51605359       0.23582126       0.23582126 </v>
    <v>       0.52434784       0.75753673       0.75753673 </v>
    <v>       0.50833806       0.49681580       0.49681580 </v>
    <v>       0.48858176       0.99612969       0.99612969 </v>
    <v>       0.99990471       0.49856268       0.00188825 </v>
    <v>       0.99990471       0.00188825       0.49856268 </v>
    <v>       0.12325920       0.89065356       0.62948986 </v>
    <v>       0.11031014       0.12695108       0.36916128 </v>
    <v>       0.88921288       0.86729140       0.37857574 </v>
    <v>       0.87795150       0.12817478       0.61621238 </v>
    <v>       0.87795150       0.61621238       0.12817478 </v>
    <v>       0.88921288       0.37857574       0.86729140 </v>
    <v>       0.12325920       0.62948986       0.89065356 </v>
    <v>       0.11031014       0.36916128       0.12695108 </v>
    <v>       0.61005673       0.11733550       0.87205518 </v>
    <v>       0.61005673       0.87205518       0.11733550 </v>
    <v>       0.35846163       0.11361233       0.11361233 </v>
    <v>       0.36127817       0.87747974       0.87747974 </v>
    <v>       0.63418951       0.61445624       0.37568694 </v>
    <v>       0.63418951       0.37568694       0.61445624 </v>
    <v>       0.38651104       0.61939129       0.61939129 </v>
    <v>       0.38312251       0.37604172       0.37604172 </v>
    <v>       0.75425118       0.74632605       0.74632605 </v>
    <v>       0.74426041       0.24897681       0.24897681 </v>
    <v>       0.25557087       0.75253573       0.24965138 </v>
    <v>       0.25557087       0.24965138       0.75253573 </v>
    <v>       0.94206465       0.99767901       0.99767901 </v>
    <v>       0.05602524       0.50501289       0.50501289 </v>
    <v>       0.50105867       0.98153112       0.48186978 </v>
    <v>       0.50105867       0.48186978       0.98153112 </v>
   </varray>
  </structure>
  <varray name="forces" >
   <v>       0.00078786       0.00485690       0.00485690 </v>
   <v>       0.00283284      -0.00224213      -0.00224213 </v>
   <v>      -0.00096094      -0.00565365       0.00314162 </v>
   <v>      -0.00096094       0.00314162      -0.00565365 </v>
   <v>       0.00194348       0.00323544       0.00110926 </v>
   <v>       0.00331990      -0.00213919      -0.00111841 </v>
   <v>       0.00185585      -0.00037808      -0.00125064 </v>
   <v>       0.00173600       0.00086646       0.00077760 </v>
   <v>       0.00194348       0.00110926       0.00323544 </v>
   <v>       0.00331990      -0.00111841      -0.00213919 </v>
   <v>       0.00173600       0.00077760       0.00086646 </v>
   <v>       0.00185585      -0.00125064      -0.00037808 </v>
   <v>      -0.00197704      -0.00054085       0.00091076 </v>
   <v>      -0.00258285       0.00051001      -0.00077170 </v>
   <v>      -0.00175950       0.00277550      -0.00116788 </v>
   <v>      -0.00215500      -0.00160689       0.00113759 </v>
   <v>      -0.00197704       0.00091076      -0.00054085 </v>
   <v>      -0.00258285      -0.00077170       0.00051001 </v>
   <v>      -0.00215500       0.00113759      -0.00160689 </v>
   <v>      -0.00175950      -0.00116788       0.00277550 </v>
   <v>       0.00154512       0.00189158       0.00175223 </v>
   <v>       0.00154512       0.00175223       0.00189158 </v>
   <v>      -0.00131908      -0.00010304      -0.00010304 </v>
   <v>      -0.00039014       0.00022501       0.00022501 </v>
   <v>      -0.00031120      -0.00135371      -0.00135371 </v>
   <v>      -0.00081205       0.00026491       0.00026491 </v>
   <v>      -0.00099483       0.00012926      -0.00162141 </v>
   <v>      -0.00099483      -0.00162141       0.00012926 </v>
   <v>       0.00997212      -0.00622589       0.01377253 </v>
   <v>       0.00591557       0.00821231      -0.01316048 </v>
   <v>      -0.00661735      -0.01493776      -0.00894109 </v>
   <v>      -0.00888024       0.01290882       0.00683400 </v>
   <v>      -0.00888024       0.00683400       0.01290882 </v>
   <v>      -0.00661735      -0.00894109      -0.01493776 </v>
   <v>       0.00997212       0.01377253      -0.00622589 </v>
   <v>       0.00591557      -0.01316048       0.00821231 </v>
   <v>       0.00866392       0.00957581      -0.01048630 </v>
   <v>       0.00866392      -0.01048630       0.00957581 </v>
   <v>      -0.01318462       0.00771932       0.00771932 </v>
   <v>      -0.01347271      -0.00791030      -0.00791030 </v>
   <v>       0.01223143       0.00737535      -0.00940642 </v>
   <v>       0.01223143      -0.00940642       0.00737535 </v>
   <v>      -0.00916457       0.00904091       0.00904091 </v>
   <v>      -0.00920324      -0.01013623      -0.01013623 </v>
   <v>       0.00121435      -0.00123437      -0.00123437 </v>
   <v>       0.00072822       0.00123240       0.00123240 </v>
   <v>       0.00010280       0.00086281      -0.00173346 </v>
   <v>       0.00010280      -0.00173346       0.00086281 </v>
   <v>       0.00530851       0.00007830       0.00007830 </v>
   <v>      -0.00674560      -0.00016081      -0.00016081 </v>
   <v>       0.00050726       0.00189162       0.00119236 </v>
   <v>       0.00050726       0.00119236       0.00189162 </v>
  </varray>
  <varray name="stress" >
   <v>       3.73099791      -1.46811032      -1.46811032 </v>
   <v>      -1.46811060      -2.36235319      -0.26952507 </v>
   <v>      -1.46811060      -0.26952507      -2.36235319 </v>
  </varray>
  <energy>
   <i name="e_fr_energy">   -271.88526906 </i>
   <i name="e_wo_entrp">   -271.88526906 </i>
   <i name="e_0_energy">   -271.88526906 </i>
  </energy>
  <time name="totalsc">   11.90   12.14</time>
 </calculation>
 <calculation>
  <scstep>
   <time name="dav">    1.76    1.77</time>
   <time name="total">    2.33    2.38</time>
   <energy>
    <i name="alphaZ">    296.24518596 </i>
    <i name="ewald">  -8707.88431755 </i>
    <i name="hartreedc">  -2285.30715282 </i>
    <i name="XCdc">    537.55215291 </i>
    <i name="pawpsdc">   9830.29057357 </i>
    <i name="pawaedc">  -9974.34819766 </i>
    <i name="eentropy">     -0.00000000 </i>
    <i name="bandstr">  -2658.23913087 </i>
    <i name="atom">  12703.13999606 </i>
    <i name="e_fr_energy">   -258.55089040 </i>
    <i name="e_wo_entrp">   -258.55089040 </i>
    <i name="e_0_energy">   -258.55089040 </i>
   </energy>
  </scstep>
  <scstep>
   <time name="diag">    0.27    0.28</time>
   <time name="diis">    0.89    0.90</time>
   <time name="orth">    0.05    0.05</time>
   <time name="total">    1.78    1.80</time>
   <energy>
    <i name="e_fr_energy">   -258.55093628 </i>
    <i name="e_wo_entrp">   -258.55093628 </i>
    <i name="e_0_energy">   -258.55093628 </i>
   </energy>
  </scstep>
  <scstep>
   <time name="diag">    0.27    0.27</time>
   <time name="diis">    1.04    1.05</time>
   <time name="orth">    0.05    0.05</time>
   <time name="total">    1.92    1.94</time>
   <energy>
    <i name="e_fr_energy">   -258.55095857 </i>
    <i name="e_wo_entrp">   -258.55095857 </i>
    <i name="e_0_energy">   -258.55095857 </i>
   </energy>
  </scstep>
  <scstep>
   <time name="diag">    0.26    0.27</time>
   <time name="diis">    1.09    1.10</time>
   <time name="orth">    0.05    0.05</time>
   <time name="total">    1.97    1.99</time>
   <energy>
    <i name="e_fr_energy">   -258.55096385 </i>
    <i name="e_wo_entrp">   -258.55096385 </i>
    <i name="e_0_energy">   -258.55096385 </i>
   </energy>
  </scstep>
  <scstep>
   <time name="diag">    0.27    0.27</time>
   <time name="diis">    0.84    0.85</time>
   <time name="orth">    0.05    0.05</time>
   <time name="total">    1.63    1.64</time>
   <energy>
    <i name="alphaZ">    296.24518596 </i>
    <i name="ewald">  -8707.88431755 </i>
    <i name="hartreedc">  -2285.20538971 </i>
    <i name="XCdc">    537.54737966 </i>
    <i name="pawpsdc">   9828.56013594 </i>
    <i name="pawaedc">  -9972.61113837 </i>
    <i name="eentropy">     -0.00000000 </i>
    <i name="bandstr">  -2658.34281609 </i>
    <i name="atom">  12703.13999606 </i>
    <i name="e_fr_energy">   -258.55096411 </i>
    <i name="e_wo_entrp">   -258.55096411 </i>
    <i name="e_0_energy">   -258.55096411 </i>
   </energy>
  </scstep>
  <structure>
   <crystal>
    <varray name="basis" >
     <v>       9.71292831       0.00000000       0.00000000 </v>
     <v>       0.00000000       9.71292831       0.00000000 </v>
     <v>       0.00000000       0.00000000       9.71292831 </v>
    </varray>
    <i name="volume">    916.32713895 </i>
    <varray name="rec_basis" >
     <v>       0.10295556       0.00000000       0.00000000 </v>
     <v>       0.00000000       0.10295556       0.00000000 </v>
     <v>       0.00000000       0.00000000       0.10295556 </v>
    </varray>
   </crystal>
   <varray name="positions" >
    <v>       0.95230057       0.33136490       0.33136490 </v>
    <v>       0.97525648       0.68497154       0.68497154 </v>
    <v>       0.04012666       0.17039196       0.81699757 </v>
    <v>       0.04012666       0.81699757       0.17039196 </v>
    <v>       0.29646448       0.31219478       0.98241368 </v>
    <v>       0.33361527       0.67878202       0.03098561 </v>
    <v>       0.79213210       0.21089708       0.01835607 </v>
    <v>       0.79426971       0.78605422       0.97661026 </v>
    <v>       0.29646448       0.98241368       0.31219478 </v>
    <v>       0.33361527       0.03098561       0.67878202 </v>
    <v>       0.79426971       0.97661026       0.78605422 </v>
    <v>       0.79213210       0.01835607       0.21089708 </v>
    <v>       0.20377634       0.71649311       0.47836551 </v>
    <v>       0.20552843       0.28912154       0.52430854 </v>
    <v>       0.69872408       0.80622151       0.52070875 </v>
    <v>       0.67727275       0.17382204       0.47399199 </v>
    <v>       0.20377634       0.47836551       0.71649311 </v>
    <v>       0.20552843       0.52430854       0.28912154 </v>
    <v>       0.67727275       0.47399199       0.17382204 </v>
    <v>       0.69872408       0.52070875       0.80622151 </v>
    <v>       0.48116027       0.30834249       0.78571800 </v>
    <v>       0.48116027       0.78571800       0.30834249 </v>
    <v>       0.51604655       0.23582168       0.23582168 </v>
    <v>       0.52434494       0.75753658       0.75753658 </v>
    <v>       0.50832587       0.49680949       0.49680949 </v>
    <v>       0.48858786       0.99613311       0.99613311 </v>
    <v>       0.99989709       0.49856466       0.00187582 </v>
    <v>       0.99989709       0.00187582       0.49856466 </v>
    <v>       0.12331187       0.89061694       0.62955410 </v>
    <v>       0.11034952       0.12699927       0.36909637 </v>
    <v>       0.88917516       0.86722498       0.37852975 </v>
    <v>       0.87790247       0.12823700       0.61625264 </v>
    <v>       0.87790247       0.61625264       0.12823700 </v>
    <v>       0.88917516       0.37852975       0.86722498 </v>
    <v>       0.12331187       0.62955410       0.89061694 </v>
    <v>       0.11034952       0.36909637       0.12699927 </v>
    <v>       0.61010112       0.11738419       0.87200381 </v>
    <v>       0.61010112       0.87200381       0.11738419 </v>
    <v>       0.35839947       0.11365559       0.11365559 </v>
    <v>       0.36121157       0.87743336       0.87743336 </v>
    <v>       0.63425080       0.61449991       0.37563522 </v>
    <v>       0.63425080       0.37563522       0.61449991 </v>
    <v>       0.38646533       0.61943859       0.61943859 </v>
    <v>       0.38307786       0.37599251       0.37599251 </v>
    <v>       0.75425529       0.74632142       0.74632142 </v>
    <v>       0.74426370       0.24898167       0.24898167 </v>
    <v>       0.25557107       0.75253897       0.24964432 </v>
    <v>       0.25557107       0.24964432       0.75253897 </v>
    <v>       0.94208647       0.99767945       0.99767945 </v>
    <v>       0.05599890       0.50501195       0.50501195 </v>
    <v>       0.50106040       0.98153851       0.48187498 </v>
    <v>       0.50106040       0.48187498       0.98153851 </v>
   </varray>
  </structure>
  <varray name="forces" >
   <v>       0.00049920       0.00495359       0.00495359 </v>
   <v>       0.00244622      -0.00222623      -0.00222623 </v>
   <v>      -0.00051675      -0.00589466       0.00326974 </v>
   <v>      -0.00051675       0.00326974      -0.00589466 </v>
   <v>       0.00199044       0.00339140       0.00062993 </v>
   <v>       0.00348126      -0.00214990      -0.00076220 </v>
   <v>       0.00191611      -0.00036549      -0.00059900 </v>
   <v>       0.00182266       0.00073720       0.00025323 </v>
   <v>       0.00199044       0.00062993       0.00339140 </v>
   <v>       0.00348126      -0.00076220      -0.00214990 </v>
   <v>       0.00182266       0.00025323       0.00073720 </v>
   <v>       0.00191611      -0.00059900      -0.00036549 </v>
   <v>      -0.00201786      -0.00043537       0.00024822 </v>
   <v>      -0.00277292       0.00030562      -0.00025511 </v>
   <v>      -0.00208417       0.00276123      -0.00073262 </v>
   <v>      -0.00241805      -0.00177028       0.00065718 </v>
   <v>      -0.00201786       0.00024822      -0.00043537 </v>
   <v>      -0.00277292      -0.00025511       0.00030562 </v>
   <v>      -0.00241805       0.00065718      -0.00177028 </v>
   <v>      -0.00208417      -0.00073262       0.00276123 </v>
   <v>       0.00078219       0.00216187       0.00153513 </v>
   <v>       0.00078219       0.00153513       0.00216187 </v>
   <v>       0.00007857      -0.00055815      -0.00055815 </v>
   <v>       0.00037404       0.00064267       0.00064267 </v>
   <v>       0.00549188      -0.00036286      -0.00036286 </v>
   <v>      -0.00535169      -0.00108327      -0.00108327 </v>
   <v>       0.00130337      -0.00070853       0.00210706 </v>
   <v>       0.00130337       0.00210706      -0.00070853 </v>
   <v>      -0.00081894       0.00252456       0.00312861 </v>
   <v>      -0.00475408      -0.00325700      -0.00120831 </v>
   <v>       0.00208030      -0.00498743       0.00021414 </v>
   <v>       0.00192627       0.00186142      -0.00282871 </v>
   <v>       0.00192627      -0.00282871       0.00186142 </v>
   <v>       0.00208030       0.00021414      -0.00498743 </v>
   <v>      -0.00081894       0.00312861       0.00252456 </v>
   <v>      -0.00475408      -0.00120831      -0.00325700 </v>
   <v>      -0.00029991       0.00004979      -0.00118323 </v>
   <v>      -0.00029991      -0.00118323       0.00004979 </v>
   <v>      -0.00269258      -0.00221996      -0.00221996 </v>
   <v>      -0.00126793       0.00313375       0.00313375 </v>
   <v>       0.00066911      -0.00327087       0.00187952 </v>
   <v>       0.00066911       0.00187952      -0.00327087 </v>
   <v>      -0.00040164      -0.00056936      -0.00056936 </v>
   <v>      -0.00097475      -0.00125544      -0.00125544 </v>
   <v>       0.00110350      -0.00091643      -0.00091643 </v>
   <v>       0.00029321       0.00079655       0.00079655 </v>
   <v>       0.00011278       0.00064287      -0.00110877 </v>
   <v>       0.00011278      -0.00110877       0.00064287 </v>
   <v>       0.00486342       0.00002824       0.00002824 </v>
   <v>      -0.00625461      -0.00003794      -0.00003794 </v>
   <v>       0.00049478       0.00174129       0.00109230 </v>
   <v>       0.00049478       0.00109230       0.00174129 </v>
  </varray>
  <varray name="stress" >
   <v>       3.46719646      -1.46719044      -1.46719044 </v>
   <v>      -1.46719041      -2.63185302      -0.25995249 </v>
   <v>      -1.46719041      -0.25995249      -2.63185302 </v>
  </varray>
  <energy>
   <i name="e_fr_energy">   -271.88539678 </i>
   <i name="e_wo_entrp">   -271.88539678 </i>
   <i name="e_0_energy">   -271.88539678 </i>
  </energy>
  <time name="totalsc">   12.35   12.53</time>
 </calculation>
 <calculation>
  <scstep>
   <time name="dav">    1.81    1.83</time>
   <time name="total">    2.38    2.40</time>
   <energy>
    <i name="alphaZ">    296.24518596 </i>
    <i name="ewald">  -8707.91691766 </i>
    <i name="hartreedc">  -2285.17993847 </i>
    <i name="XCdc">    537.54647373 </i>
    <i name="pawpsdc">   9828.46329647 </i>
    <i name="pawaedc">  -9972.51325244 </i>
    <i name="eentropy">     -0.00000000 </i>
    <i name="bandstr">  -2658.33580641 </i>
    <i name="atom">  12703.13999606 </i>
    <i name="e_fr_energy">   -258.55096276 </i>
    <i name="e_wo_entrp">   -258.55096276 </i>
    <i name="e_0_energy">   -258.55096276 </i>
   </energy>
  </scstep>
  <scstep>
   <time name="diag">    0.27    0.28</time>
   <time name="diis">    0.60    0.61</time>
   <time name="orth">    0.05    0.05</time>
   <time name="total">    1.39    1.40</time>
   <energy>
    <i name="alphaZ">    296.24518596 </i>
    <i name="ewald">  -8707.91691766 </i>
    <i name="hartreedc">  -2285.17726836 </i>
    <i name="XCdc">    537.54611957 </i>
    <i name="pawpsdc">   9828.39953677 </i>
    <i name="pawaedc">  -9972.44909643 </i>
    <i name="eentropy">     -0.00000000 </i>
    <i name="bandstr">  -2658.33851847 </i>
    <i name="atom">  12703.13999606 </i>
    <i name="e_fr_energy">   -258.55096256 </i>
    <i name="e_wo_entrp">   -258.55096256 </i>
    <i name="e_0_energy">   -258.55096256 </i>
   </energy>
  </scstep>
  <structure>
   <crystal>
    <varray name="basis" >
     <v>       9.71292831       0.00000000       0.00000000 </v>
     <v>       0.00000000       9.71292831       0.00000000 </v>
     <v>       0.00000000       0.00000000       9.71292831 </v>
    </varray>
    <i name="volume">    916.32713895 </i>
    <varray name="rec_basis" >
     <v>       0.10295556       0.00000000       0.00000000 </v>
     <v>       0.00000000       0.10295556       0.00000000 </v>
     <v>       0.00000000       0.00000000       0.10295556 </v>
    </varray>
   </crystal>
   <varray name="positions" >
    <v>       0.95230067       0.33136535       0.33136535 </v>
    <v>       0.97525677       0.68497133       0.68497133 </v>
    <v>       0.04012654       0.17039143       0.81699786 </v>
    <v>       0.04012654       0.81699786       0.17039143 </v>
    <v>       0.29646466       0.31219507       0.98241380 </v>
    <v>       0.33361557       0.67878182       0.03098548 </v>
    <v>       0.79213226       0.21089704       0.01835592 </v>
    <v>       0.79426986       0.78605430       0.97661036 </v>
    <v>       0.29646466       0.98241380       0.31219507 </v>
    <v>       0.33361557       0.03098548       0.67878182 </v>
    <v>       0.79426986       0.97661036       0.78605430 </v>
    <v>       0.79213226       0.01835592       0.21089704 </v>
    <v>       0.20377616       0.71649305       0.47836563 </v>
    <v>       0.20552820       0.28912160       0.52430844 </v>
    <v>       0.69872393       0.80622178       0.52070862 </v>
    <v>       0.67727256       0.17382189       0.47399212 </v>
    <v>       0.20377616       0.47836563       0.71649305 </v>
    <v>       0.20552820       0.52430844       0.28912160 </v>
    <v>       0.67727256       0.47399212       0.17382189 </v>
    <v>       0.69872393       0.52070862       0.80622178 </v>
    <v>       0.48116046       0.30834265       0.78571818 </v>
    <v>       0.48116046       0.78571818       0.30834265 </v>
    <v>       0.51604635       0.23582169       0.23582169 </v>
    <v>       0.52434485       0.75753657       0.75753657 </v>
    <v>       0.50832553       0.49680931       0.49680931 </v>
    <v>       0.48858803       0.99613321       0.99613321 </v>
    <v>       0.99989687       0.49856472       0.00187547 </v>
    <v>       0.99989687       0.00187547       0.49856472 </v>
    <v>       0.12331337       0.89061590       0.62955593 </v>
    <v>       0.11035064       0.12700064       0.36909453 </v>
    <v>       0.88917409       0.86722309       0.37852844 </v>
    <v>       0.87790108       0.12823877       0.61625378 </v>
    <v>       0.87790108       0.61625378       0.12823877 </v>
    <v>       0.88917409       0.37852844       0.86722309 </v>
    <v>       0.12331337       0.62955593       0.89061590 </v>
    <v>       0.11035064       0.36909453       0.12700064 </v>
    <v>       0.61010238       0.11738558       0.87200235 </v>
    <v>       0.61010238       0.87200235       0.11738558 </v>
    <v>       0.35839770       0.11365682       0.11365682 </v>
    <v>       0.36120967       0.87743204       0.87743204 </v>
    <v>       0.63425254       0.61450115       0.37563375 </v>
    <v>       0.63425254       0.37563375       0.61450115 </v>
    <v>       0.38646403       0.61943994       0.61943994 </v>
    <v>       0.38307659       0.37599111       0.37599111 </v>
    <v>       0.75425540       0.74632129       0.74632129 </v>
    <v>       0.74426379       0.24898181       0.24898181 </v>
    <v>       0.25557108       0.75253906       0.24964412 </v>
    <v>       0.25557108       0.24964412       0.75253906 </v>
    <v>       0.94208709       0.99767947       0.99767947 </v>
    <v>       0.05599815       0.50501192       0.50501192 </v>
    <v>       0.50106045       0.98153872       0.48187513 </v>
    <v>       0.50106045       0.48187513       0.98153872 </v>
   </varray>
  </structure>
  <varray name="forces" >
   <v>       0.00050055       0.00506174       0.00506174 </v>
   <v>       0.00271457      -0.00241371      -0.00241371 </v>
   <v>      -0.00054268      -0.00602901       0.00332183 </v>
   <v>      -0.00054268       0.00332183      -0.00602901 </v>
   <v>       0.00214412       0.00365453       0.00070367 </v>
   <v>       0.00376689      -0.00234246      -0.00087415 </v>
   <v>       0.00209584      -0.00041016      -0.00075066 </v>
   <v>       0.00202826       0.00084101       0.00033666 </v>
   <v>       0.00214412       0.00070367       0.00365453 </v>
   <v>       0.00376689      -0.00087415      -0.00234246 </v>
   <v>       0.00202826       0.00033666       0.00084101 </v>
   <v>       0.00209584      -0.00075066      -0.00041016 </v>
   <v>      -0.00227563      -0.00051736       0.00035577 </v>
   <v>      -0.00303595       0.00036938      -0.00034677 </v>
   <v>      -0.00220293       0.00295906      -0.00083944 </v>
   <v>      -0.00257953      -0.00190852       0.00073478 </v>
   <v>      -0.00227563       0.00035577      -0.00051736 </v>
   <v>      -0.00303595      -0.00034677       0.00036938 </v>
   <v>      -0.00257953       0.00073478      -0.00190852 </v>
   <v>      -0.00220293      -0.00083944       0.00295906 </v>
   <v>       0.00094420       0.00235766       0.00170446 </v>
   <v>       0.00094420       0.00170446       0.00235766 </v>
   <v>      -0.00024163      -0.00058372      -0.00058372 </v>
   <v>       0.00025392       0.00065694       0.00065694 </v>
   <v>       0.00569079      -0.00034118      -0.00034118 </v>
   <v>      -0.00549519      -0.00112968      -0.00112968 </v>
   <v>       0.00138533      -0.00074677       0.00222407 </v>
   <v>       0.00138533       0.00222407      -0.00074677 </v>
   <v>      -0.00107186       0.00274468       0.00290764 </v>
   <v>      -0.00508883      -0.00361281      -0.00089683 </v>
   <v>       0.00227722      -0.00482734       0.00039762 </v>
   <v>       0.00219284       0.00161004      -0.00309150 </v>
   <v>       0.00219284      -0.00309150       0.00161004 </v>
   <v>       0.00227722       0.00039762      -0.00482734 </v>
   <v>      -0.00107186       0.00290764       0.00274468 </v>
   <v>      -0.00508883      -0.00089683      -0.00361281 </v>
   <v>      -0.00049831      -0.00017875      -0.00098776 </v>
   <v>      -0.00049831      -0.00098776      -0.00017875 </v>
   <v>      -0.00240146      -0.00249953      -0.00249953 </v>
   <v>      -0.00095625       0.00343661       0.00343661 </v>
   <v>       0.00036518      -0.00357390       0.00218425 </v>
   <v>       0.00036518       0.00218425      -0.00357390 </v>
   <v>      -0.00019717      -0.00081385      -0.00081385 </v>
   <v>      -0.00083094      -0.00107661      -0.00107661 </v>
   <v>       0.00109184      -0.00091369      -0.00091369 </v>
   <v>       0.00026713       0.00076233       0.00076233 </v>
   <v>       0.00011259       0.00062122      -0.00108792 </v>
   <v>       0.00011259      -0.00108792       0.00062122 </v>
   <v>       0.00492177       0.00001441       0.00001441 </v>
   <v>      -0.00636572      -0.00005012      -0.00005012 </v>
   <v>       0.00050715       0.00176983       0.00111405 </v>
   <v>       0.00050715       0.00111405       0.00176983 </v>
  </varray>
  <varray name="stress" >
   <v>       3.45896764      -1.46704889      -1.46704889 </v>
   <v>      -1.46704914      -2.64022684      -0.25950632 </v>
   <v>      -1.46704914      -0.25950632      -2.64022684 </v>
  </varray>
  <energy>
   <i name="e_fr_energy">   -271.88539710 </i>
   <i name="e_wo_entrp">   -271.88539710 </i>
   <i name="e_0_energy">   -271.88539710 </i>
  </energy>
  <time name="totalsc">    6.47    6.57</time>
 </calculation>
 <calculation>
  <scstep>
   <time name="dav">    1.79    1.80</time>
   <time name="total">    2.35    2.39</time>
   <energy>
    <i name="alphaZ">    296.24518596 </i>
    <i name="ewald">  -8708.01498887 </i>
    <i name="hartreedc">  -2285.08788664 </i>
    <i name="XCdc">    537.54488575 </i>
    <i name="pawpsdc">   9828.35986050 </i>
    <i name="pawaedc">  -9972.40911957 </i>
    <i name="eentropy">     -0.00000000 </i>
    <i name="bandstr">  -2658.32891725 </i>
    <i name="atom">  12703.13999606 </i>
    <i name="e_fr_energy">   -258.55098406 </i>
    <i name="e_wo_entrp">   -258.55098406 </i>
    <i name="e_0_energy">   -258.55098406 </i>
   </energy>
  </scstep>
  <scstep>
   <time name="diag">    0.27    0.27</time>
   <time name="diis">    1.09    1.12</time>
   <time name="orth">    0.05    0.05</time>
   <time name="total">    1.98    2.02</time>
   <energy>
    <i name="e_fr_energy">   -258.55098780 </i>
    <i name="e_wo_entrp">   -258.55098780 </i>
    <i name="e_0_energy">   -258.55098780 </i>
   </energy>
  </scstep>
  <scstep>
   <time name="diag">    0.27    0.27</time>
   <time name="diis">    1.01    1.02</time>
   <time name="orth">    0.05    0.05</time>
   <time name="total">    1.89    1.91</time>
   <energy>
    <i name="e_fr_energy">   -258.55098887 </i>
    <i name="e_wo_entrp">   -258.55098887 </i>
    <i name="e_0_energy">   -258.55098887 </i>
   </energy>
  </scstep>
  <scstep>
   <time name="diag">    0.27    0.27</time>
   <time name="diis">    0.65    0.66</time>
   <time name="orth">    0.05    0.05</time>
   <time name="total">    1.44    1.45</time>
   <energy>
    <i name="alphaZ">    296.24518596 </i>
    <i name="ewald">  -8708.01498887 </i>
    <i name="hartreedc">  -2285.08401737 </i>
    <i name="XCdc">    537.54458079 </i>
    <i name="pawpsdc">   9828.23651568 </i>
    <i name="pawaedc">  -9972.28502240 </i>
    <i name="eentropy">     -0.00000000 </i>
    <i name="bandstr">  -2658.33323881 </i>
    <i name="atom">  12703.13999606 </i>
    <i name="e_fr_energy">   -258.55098896 </i>
    <i name="e_wo_entrp">   -258.55098896 </i>
    <i name="e_0_energy">   -258.55098896 </i>
   </energy>
  </scstep>
  <structure>
   <crystal>
    <varray name="basis" >
     <v>       9.71292831       0.00000000       0.00000000 </v>
     <v>       0.00000000       9.71292831       0.00000000 </v>
     <v>       0.00000000       0.00000000       9.71292831 </v>
    </varray>
    <i name="volume">    916.32713895 </i>
    <varray name="rec_basis" >
     <v>       0.10295556       0.00000000       0.00000000 </v>
     <v>       0.00000000       0.10295556       0.00000000 </v>
     <v>       0.00000000       0.00000000       0.10295556 </v>
    </varray>
   </crystal>
   <varray name="positions" >
    <v>       0.95230213       0.33137936       0.33137936 </v>
    <v>       0.97526436       0.68496466       0.68496466 </v>
    <v>       0.04012492       0.17037477       0.81700703 </v>
    <v>       0.04012492       0.81700703       0.17037477 </v>
    <v>       0.29647056       0.31220512       0.98241585 </v>
    <v>       0.33362593       0.67877535       0.03098299 </v>
    <v>       0.79213803       0.21089590       0.01835370 </v>
    <v>       0.79427542       0.78605664       0.97661140 </v>
    <v>       0.29647056       0.98241585       0.31220512 </v>
    <v>       0.33362593       0.03098299       0.67877535 </v>
    <v>       0.79427542       0.97661140       0.78605664 </v>
    <v>       0.79213803       0.01835370       0.21089590 </v>
    <v>       0.20376991       0.71649160       0.47836675 </v>
    <v>       0.20551987       0.28912267       0.52430736 </v>
    <v>       0.69871791       0.80622997       0.52070619 </v>
    <v>       0.67726549       0.17381665       0.47399426 </v>
    <v>       0.20376991       0.47836675       0.71649160 </v>
    <v>       0.20551987       0.52430736       0.28912267 </v>
    <v>       0.67726549       0.47399426       0.17381665 </v>
    <v>       0.69871791       0.52070619       0.80622997 </v>
    <v>       0.48116324       0.30834909       0.78572293 </v>
    <v>       0.48116324       0.78572293       0.30834909 </v>
    <v>       0.51604538       0.23582018       0.23582018 </v>
    <v>       0.52434538       0.75753828       0.75753828 </v>
    <v>       0.50833986       0.49680812       0.49680812 </v>
    <v>       0.48857393       0.99613041       0.99613041 </v>
    <v>       0.99990014       0.49856286       0.00188071 </v>
[...]
   <v>      -0.00022289      -0.00001551      -0.00001551 </v>
   <v>      -0.00028691      -0.00030050      -0.00030050 </v>
   <v>       0.00024531      -0.00011168       0.00016049 </v>
   <v>       0.00024531       0.00016049      -0.00011168 </v>
   <v>       0.00027505      -0.00040723      -0.00040723 </v>
   <v>      -0.00026103       0.00036326       0.00036326 </v>
   <v>       0.00033305      -0.00007696       0.00010239 </v>
   <v>       0.00033305       0.00010239      -0.00007696 </v>
  </varray>
  <varray name="stress" >
   <v>       3.27631408      -1.48726999      -1.48726999 </v>
   <v>      -1.48726997      -2.80490061      -0.29318449 </v>
   <v>      -1.48726997      -0.29318449      -2.80490061 </v>
  </varray>
  <energy>
   <i name="e_fr_energy">   -271.88560599 </i>
   <i name="e_wo_entrp">   -271.88560599 </i>
   <i name="e_0_energy">   -271.88560599 </i>
  </energy>
  <time name="totalsc">    5.31    5.39</time>
 </calculation>
 <calculation>
  <scstep>
   <time name="dav">    1.01    1.02</time>
   <time name="total">    1.57    1.58</time>
   <energy>
    <i name="alphaZ">    296.24518596 </i>
    <i name="ewald">  -8709.55859196 </i>
    <i name="hartreedc">  -2283.64092114 </i>
    <i name="XCdc">    537.52624979 </i>
    <i name="pawpsdc">   9826.49022469 </i>
    <i name="pawaedc">  -9970.53061980 </i>
    <i name="eentropy">     -0.00000000 </i>
    <i name="bandstr">  -2658.22278659 </i>
    <i name="atom">  12703.13999606 </i>
    <i name="e_fr_energy">   -258.55126300 </i>
    <i name="e_wo_entrp">   -258.55126300 </i>
    <i name="e_0_energy">   -258.55126300 </i>
   </energy>
  </scstep>
  <scstep>
   <time name="diag">    0.27    0.27</time>
   <time name="diis">    0.24    0.24</time>
   <time name="orth">    0.05    0.05</time>
   <time name="total">    1.02    1.03</time>
   <energy>
    <i name="alphaZ">    296.24518596 </i>
    <i name="ewald">  -8709.55859196 </i>
    <i name="hartreedc">  -2283.64092105 </i>
    <i name="XCdc">    537.52624986 </i>
    <i name="pawpsdc">   9826.49023562 </i>
    <i name="pawaedc">  -9970.53063089 </i>
    <i name="eentropy">     -0.00000000 </i>
    <i name="bandstr">  -2658.22278660 </i>
    <i name="atom">  12703.13999606 </i>
    <i name="e_fr_energy">   -258.55126300 </i>
    <i name="e_wo_entrp">   -258.55126300 </i>
    <i name="e_0_energy">   -258.55126300 </i>
   </energy>
  </scstep>
  <structure>
   <crystal>
    <varray name="basis" >
     <v>       9.71292831       0.00000000       0.00000000 </v>
     <v>       0.00000000       9.71292831       0.00000000 </v>
     <v>       0.00000000       0.00000000       9.71292831 </v>
    </varray>
    <i name="volume">    916.32713895 </i>
    <varray name="rec_basis" >
     <v>       0.10295556       0.00000000       0.00000000 </v>
     <v>       0.00000000       0.10295556       0.00000000 </v>
     <v>       0.00000000       0.00000000       0.10295556 </v>
    </varray>
   </crystal>
   <varray name="positions" >
    <v>       0.95210392       0.33173001       0.33173001 </v>
    <v>       0.97528438       0.68483147       0.68483147 </v>
    <v>       0.04030097       0.16991873       0.81721900 </v>
    <v>       0.04030097       0.81721900       0.16991873 </v>
    <v>       0.29656173       0.31241885       0.98245655 </v>
    <v>       0.33388204       0.67868428       0.03102284 </v>
    <v>       0.79229975       0.21095732       0.01829583 </v>
    <v>       0.79440533       0.78602881       0.97661998 </v>
    <v>       0.29656173       0.98245655       0.31241885 </v>
    <v>       0.33388204       0.03102284       0.67868428 </v>
    <v>       0.79440533       0.97661998       0.78602881 </v>
    <v>       0.79229975       0.01829583       0.21095732 </v>
    <v>       0.20358897       0.71653791       0.47836362 </v>
    <v>       0.20529659       0.28906335       0.52428838 </v>
    <v>       0.69864124       0.80639322       0.52070502 </v>
    <v>       0.67713066       0.17375395       0.47399968 </v>
    <v>       0.20358897       0.47836362       0.71653791 </v>
    <v>       0.20529659       0.52428838       0.28906335 </v>
    <v>       0.67713066       0.47399968       0.17375395 </v>
    <v>       0.69864124       0.52070502       0.80639322 </v>
    <v>       0.48119550       0.30844904       0.78573580 </v>
    <v>       0.48119550       0.78573580       0.30844904 </v>
    <v>       0.51602078       0.23574765       0.23574765 </v>
    <v>       0.52434655       0.75757380       0.75757380 </v>
    <v>       0.50833977       0.49679402       0.49679402 </v>
    <v>       0.48848808       0.99612232       0.99612232 </v>
    <v>       0.99989305       0.49852985       0.00185346 </v>
    <v>       0.99989305       0.00185346       0.49852985 </v>
    <v>       0.12331533       0.89075354       0.62967515 </v>
    <v>       0.11018624       0.12692977       0.36891944 </v>
    <v>       0.88932030       0.86696436       0.37856881 </v>
    <v>       0.87792369       0.12830026       0.61614529 </v>
    <v>       0.87792369       0.61614529       0.12830026 </v>
    <v>       0.88932030       0.37856881       0.86696436 </v>
    <v>       0.12331533       0.62967515       0.89075354 </v>
    <v>       0.11018624       0.36891944       0.12692977 </v>
    <v>       0.61007657       0.11735436       0.87199575 </v>
    <v>       0.61007657       0.87199575       0.11735436 </v>
    <v>       0.35825167       0.11361651       0.11361651 </v>
    <v>       0.36110218       0.87744946       0.87744946 </v>
    <v>       0.63429532       0.61446029       0.37566377 </v>
    <v>       0.63429532       0.37566377       0.61446029 </v>
    <v>       0.38642479       0.61941042       0.61941042 </v>
    <v>       0.38301787       0.37596468       0.37596468 </v>
    <v>       0.75429304       0.74631021       0.74631021 </v>
    <v>       0.74426354       0.24896463       0.24896463 </v>
    <v>       0.25559568       0.75255225       0.24964991 </v>
    <v>       0.25559568       0.24964991       0.75255225 </v>
    <v>       0.94237776       0.99766606       0.99766606 </v>
    <v>       0.05564709       0.50502483       0.50502483 </v>
    <v>       0.50111032       0.98161342       0.48195211 </v>
    <v>       0.50111032       0.48195211       0.98161342 </v>
   </varray>
  </structure>
  <varray name="forces" >
   <v>      -0.00174875       0.00130986       0.00130986 </v>
   <v>      -0.00034691      -0.00000434      -0.00000434 </v>
   <v>       0.00125003      -0.00236123       0.00040866 </v>
   <v>       0.00125003       0.00040866      -0.00236123 </v>
   <v>      -0.00006191       0.00019091       0.00028564 </v>
   <v>       0.00086740       0.00048295       0.00052780 </v>
   <v>       0.00033142       0.00009392      -0.00020742 </v>
   <v>      -0.00045818       0.00023717       0.00024096 </v>
   <v>      -0.00006191       0.00028564       0.00019091 </v>
   <v>       0.00086740       0.00052780       0.00048295 </v>
   <v>      -0.00045818       0.00024096       0.00023717 </v>
   <v>       0.00033142      -0.00020742       0.00009392 </v>
   <v>      -0.00057025      -0.00012322      -0.00007571 </v>
   <v>      -0.00016560       0.00015625      -0.00012603 </v>
   <v>       0.00053507       0.00010419      -0.00035821 </v>
   <v>      -0.00013212       0.00069401      -0.00021559 </v>
   <v>      -0.00057025      -0.00007571      -0.00012322 </v>
   <v>      -0.00016560      -0.00012603       0.00015625 </v>
   <v>      -0.00013212      -0.00021559       0.00069401 </v>
   <v>       0.00053507      -0.00035821       0.00010419 </v>
   <v>       0.00025071      -0.00050853      -0.00009753 </v>
   <v>       0.00025071      -0.00009753      -0.00050853 </v>
   <v>      -0.00107564       0.00011215       0.00011215 </v>
   <v>      -0.00084742      -0.00032626      -0.00032626 </v>
   <v>      -0.00470877      -0.00269053      -0.00269053 </v>
   <v>       0.00186914       0.00118311       0.00118311 </v>
   <v>      -0.00113116      -0.00084794      -0.00242227 </v>
   <v>      -0.00113116      -0.00242227      -0.00084794 </v>
   <v>       0.00040145       0.00053013       0.00020665 </v>
   <v>      -0.00040767       0.00107940      -0.00115302 </v>
   <v>       0.00171918       0.00001979       0.00028703 </v>
   <v>      -0.00042640       0.00056493       0.00065370 </v>
   <v>      -0.00042640       0.00065370       0.00056493 </v>
   <v>       0.00171918       0.00028703       0.00001979 </v>
   <v>       0.00040145       0.00020665       0.00053013 </v>
   <v>      -0.00040767      -0.00115302       0.00107940 </v>
   <v>       0.00061262      -0.00004202       0.00021063 </v>
   <v>       0.00061262       0.00021063      -0.00004202 </v>
   <v>      -0.00008546      -0.00006186      -0.00006186 </v>
   <v>      -0.00020136      -0.00090510      -0.00090510 </v>
   <v>       0.00085027       0.00145522      -0.00048944 </v>
   <v>       0.00085027      -0.00048944       0.00145522 </v>
   <v>      -0.00119308       0.00033689       0.00033689 </v>
   <v>       0.00074378       0.00193060       0.00193060 </v>
   <v>      -0.00022415      -0.00001526      -0.00001526 </v>
   <v>      -0.00028818      -0.00030131      -0.00030131 </v>
   <v>       0.00024683      -0.00011184       0.00016051 </v>
   <v>       0.00024683       0.00016051      -0.00011184 </v>
   <v>       0.00027603      -0.00040820      -0.00040820 </v>
   <v>      -0.00026081       0.00036395       0.00036395 </v>
   <v>       0.00033411      -0.00007691       0.00010272 </v>
   <v>       0.00033411       0.00010272      -0.00007691 </v>
  </varray>
  <varray name="stress" >
   <v>       3.27631226      -1.48727047      -1.48727047 </v>
   <v>      -1.48727054      -2.80490125      -0.29318511 </v>
   <v>      -1.48727054      -0.29318511      -2.80490125 </v>
  </varray>
  <energy>
   <i name="e_fr_energy">   -271.88560599 </i>
   <i name="e_wo_entrp">   -271.88560599 </i>
   <i name="e_0_energy">   -271.88560599 </i>
  </energy>
  <time name="totalsc">    5.42    5.50</time>
 </calculation>
 <calculation>
  <scstep>
   <time name="dav">    1.59    1.60</time>
   <time name="total">    2.16    2.18</time>
   <energy>
    <i name="alphaZ">    296.24518596 </i>
    <i name="ewald">  -8709.54292397 </i>
    <i name="hartreedc">  -2283.65364932 </i>
    <i name="XCdc">    537.52601931 </i>
    <i name="pawpsdc">   9826.49024547 </i>
    <i name="pawaedc">  -9970.53064089 </i>
    <i name="eentropy">     -0.00000000 </i>
    <i name="bandstr">  -2658.22547331 </i>
    <i name="atom">  12703.13999606 </i>
    <i name="e_fr_energy">   -258.55124069 </i>
    <i name="e_wo_entrp">   -258.55124069 </i>
    <i name="e_0_energy">   -258.55124069 </i>
   </energy>
  </scstep>
  <scstep>
   <time name="diag">    0.27    0.27</time>
   <time name="diis">    1.11    1.13</time>
   <time name="orth">    0.05    0.05</time>
   <time name="total">    2.00    2.01</time>
   <energy>
    <i name="e_fr_energy">   -258.55125184 </i>
    <i name="e_wo_entrp">   -258.55125184 </i>
    <i name="e_0_energy">   -258.55125184 </i>
   </energy>
  </scstep>
  <scstep>
   <time name="diag">    0.26    0.27</time>
   <time name="diis">    1.05    1.06</time>
   <time name="orth">    0.05    0.05</time>
   <time name="total">    1.93    1.94</time>
   <energy>
    <i name="e_fr_energy">   -258.55125460 </i>
    <i name="e_wo_entrp">   -258.55125460 </i>
    <i name="e_0_energy">   -258.55125460 </i>
   </energy>
  </scstep>
  <scstep>
   <time name="diag">    0.27    0.27</time>
   <time name="diis">    0.67    0.68</time>
   <time name="orth">    0.05    0.05</time>
   <time name="total">    1.45    1.46</time>
   <energy>
    <i name="alphaZ">    296.24518596 </i>
    <i name="ewald">  -8709.54292397 </i>
    <i name="hartreedc">  -2283.65088189 </i>
    <i name="XCdc">    537.52580406 </i>
    <i name="pawpsdc">   9826.47679827 </i>
    <i name="pawaedc">  -9970.51720430 </i>
    <i name="eentropy">     -0.00000000 </i>
    <i name="bandstr">  -2658.22802896 </i>
    <i name="atom">  12703.13999606 </i>
    <i name="e_fr_energy">   -258.55125477 </i>
    <i name="e_wo_entrp">   -258.55125477 </i>
    <i name="e_0_energy">   -258.55125477 </i>
   </energy>
  </scstep>
  <structure>
   <crystal>
    <varray name="basis" >
     <v>       9.71292831       0.00000000       0.00000000 </v>
     <v>       0.00000000       9.71292831       0.00000000 </v>
     <v>       0.00000000       0.00000000       9.71292831 </v>
    </varray>
    <i name="volume">    916.32713895 </i>
    <varray name="rec_basis" >
     <v>       0.10295556       0.00000000       0.00000000 </v>
     <v>       0.00000000       0.10295556       0.00000000 </v>
     <v>       0.00000000       0.00000000       0.10295556 </v>
    </varray>
   </crystal>
   <varray name="positions" >
    <v>       0.95214215       0.33170930       0.33170930 </v>
    <v>       0.97530119       0.68483337       0.68483337 </v>
    <v>       0.04026916       0.16995530       0.81721093 </v>
    <v>       0.04026916       0.81721093       0.16995530 </v>
    <v>       0.29656006       0.31241470       0.98245793 </v>
    <v>       0.33386893       0.67867676       0.03100806 </v>
    <v>       0.79229056       0.21094901       0.01830244 </v>
    <v>       0.79440833       0.78602960       0.97662273 </v>
    <v>       0.29656006       0.98245793       0.31241470 </v>
    <v>       0.33386893       0.03100806       0.67867676 </v>
    <v>       0.79440833       0.97662273       0.78602960 </v>
    <v>       0.79229056       0.01830244       0.21094901 </v>
    <v>       0.20359981       0.71653473       0.47836205 </v>
    <v>       0.20530630       0.28906896       0.52428837 </v>
    <v>       0.69863495       0.80639201       0.52069825 </v>
    <v>       0.67713248       0.17374239       0.47400427 </v>
    <v>       0.20359981       0.47836205       0.71653473 </v>
    <v>       0.20530630       0.52428837       0.28906896 </v>
    <v>       0.67713248       0.47400427       0.17374239 </v>
    <v>       0.69863495       0.52069825       0.80639201 </v>
    <v>       0.48119787       0.30845991       0.78573917 </v>
    <v>       0.48119787       0.78573917       0.30845991 </v>
    <v>       0.51602137       0.23574291       0.23574291 </v>
    <v>       0.52434459       0.75758271       0.75758271 </v>
    <v>       0.50834076       0.49677933       0.49677933 </v>
    <v>       0.48847906       0.99612531       0.99612531 </v>
    <v>       0.99989022       0.49852999       0.00184858 </v>
    <v>       0.99989022       0.00184858       0.49852999 </v>
    <v>       0.12330641       0.89074506       0.62967658 </v>
    <v>       0.11020507       0.12692443       0.36891872 </v>
    <v>       0.88931288       0.86697511       0.37858356 </v>
    <v>       0.87791868       0.12830434       0.61614985 </v>
    <v>       0.87791868       0.61614985       0.12830434 </v>
    <v>       0.88931288       0.37858356       0.86697511 </v>
    <v>       0.12330641       0.62967658       0.89074506 </v>
    <v>       0.11020507       0.36891872       0.12692443 </v>
    <v>       0.61007192       0.11734560       0.87200013 </v>
    <v>       0.61007192       0.87200013       0.11734560 </v>
    <v>       0.35825787       0.11362927       0.11362927 </v>
    <v>       0.36109306       0.87743538       0.87743538 </v>
    <v>       0.63430665       0.61447441       0.37564963 </v>
    <v>       0.63430665       0.37564963       0.61447441 </v>
    <v>       0.38644165       0.61940501       0.61940501 </v>
    <v>       0.38303174       0.37597441       0.37597441 </v>
    <v>       0.75429954       0.74630971       0.74630971 </v>
    <v>       0.74426947       0.24896783       0.24896783 </v>
    <v>       0.25559005       0.75255335       0.24965147 </v>
    <v>       0.25559005       0.24965147       0.75255335 </v>
    <v>       0.94237514       0.99766961       0.99766961 </v>
    <v>       0.05564680       0.50502266       0.50502266 </v>
    <v>       0.50110745       0.98161343       0.48195140 </v>
    <v>       0.50110745       0.48195140       0.98161343 </v>
   </varray>
  </structure>
  <varray name="forces" >
   <v>      -0.00373879       0.00201676       0.00201676 </v>
   <v>      -0.00133083      -0.00006053      -0.00006053 </v>
   <v>       0.00295745      -0.00372648       0.00068858 </v>
   <v>       0.00295745       0.00068858      -0.00372648 </v>
   <v>       0.00023253       0.00042465      -0.00020491 </v>
   <v>       0.00104049       0.00078667       0.00119205 </v>
   <v>       0.00096504       0.00072542      -0.00079105 </v>
   <v>      -0.00067441       0.00028430      -0.00028851 </v>
   <v>       0.00023253      -0.00020491       0.00042465 </v>
   <v>       0.00104049       0.00119205       0.00078667 </v>
   <v>      -0.00067441      -0.00028851       0.00028430 </v>
   <v>       0.00096504      -0.00079105       0.00072542 </v>
   <v>      -0.00121482       0.00007907       0.00032644 </v>
   <v>      -0.00098760      -0.00035225       0.00005523 </v>
   <v>       0.00080283       0.00003886       0.00069952 </v>
   <v>      -0.00017396       0.00157855      -0.00047714 </v>
   <v>      -0.00121482       0.00032644       0.00007907 </v>
   <v>      -0.00098760       0.00005523      -0.00035225 </v>
   <v>      -0.00017396      -0.00047714       0.00157855 </v>
   <v>       0.00080283       0.00069952       0.00003886 </v>
   <v>      -0.00020336      -0.00146949      -0.00019362 </v>
   <v>      -0.00020336      -0.00019362      -0.00146949 </v>
   <v>      -0.00018471       0.00083025       0.00083025 </v>
   <v>       0.00010367      -0.00126392      -0.00126392 </v>
   <v>       0.00124440       0.00137800       0.00137800 </v>
   <v>       0.00102323      -0.00045848      -0.00045848 </v>
   <v>       0.00008903       0.00045309       0.00032999 </v>
   <v>       0.00008903       0.00032999       0.00045309 </v>
   <v>       0.00105515       0.00099852       0.00005579 </v>
   <v>      -0.00241392       0.00075806      -0.00001729 </v>
   <v>       0.00107520      -0.00128017      -0.00194977 </v>
   <v>       0.00072467      -0.00011725      -0.00044680 </v>
   <v>       0.00072467      -0.00044680      -0.00011725 </v>
   <v>       0.00107520      -0.00194977      -0.00128017 </v>
   <v>       0.00105515       0.00005579       0.00099852 </v>
   <v>      -0.00241392      -0.00001729       0.00075806 </v>
   <v>       0.00064671       0.00105726      -0.00047709 </v>
   <v>       0.00064671      -0.00047709       0.00105726 </v>
   <v>      -0.00094967      -0.00156041      -0.00156041 </v>
   <v>       0.00110983       0.00184010       0.00184010 </v>
   <v>      -0.00121179      -0.00165339       0.00171309 </v>
   <v>      -0.00121179       0.00171309      -0.00165339 </v>
   <v>      -0.00209409       0.00044703       0.00044703 </v>
   <v>      -0.00189867      -0.00107508      -0.00107508 </v>
   <v>      -0.00073741      -0.00004447      -0.00004447 </v>
   <v>      -0.00063294      -0.00039240      -0.00039240 </v>
   <v>       0.00056967      -0.00012269      -0.00013255 </v>
   <v>       0.00056967      -0.00013255      -0.00012269 </v>
   <v>       0.00025601      -0.00061003      -0.00061003 </v>
   <v>       0.00011029       0.00045247       0.00045247 </v>
   <v>       0.00058093      -0.00014351       0.00009953 </v>
   <v>       0.00058093       0.00009953      -0.00014351 </v>
  </varray>
  <varray name="stress" >
   <v>       3.27112538      -1.48001829      -1.48001829 </v>
   <v>      -1.48001835      -2.80918472      -0.28164119 </v>
   <v>      -1.48001835      -0.28164119      -2.80918472 </v>
  </varray>
  <energy>
   <i name="e_fr_energy">   -271.88559833 </i>
   <i name="e_wo_entrp">   -271.88559833 </i>
   <i name="e_0_energy">   -271.88559833 </i>
  </energy>
