unknown system                          
           1
     9.712928    0.000000    0.000000
     0.000000    9.712928    0.000000
     0.000000    0.000000    9.712928
   Li   P    S    Cl
    24     4    20     4
Direct configuration=     1
   0.95229512  0.33133857  0.33133857
   0.97523962  0.68498370  0.68498370
   0.04013363  0.17042235  0.81698093
   0.04013363  0.81698093  0.17042235
   0.29645416  0.31217789  0.98240639
   0.33359788  0.67879373  0.03099286
   0.79212239  0.21089937  0.01836489
   0.79426103  0.78604937  0.97660471
   0.29645416  0.98240639  0.31217789
   0.33359788  0.03099286  0.67879373
   0.79426103  0.97660471  0.78604937
   0.79212239  0.01836489  0.21089937
   0.20378653  0.71649642  0.47835882
   0.20554174  0.28911808  0.52431442
   0.69873276  0.80620606  0.52071668
   0.67728377  0.17383057  0.47398442
   0.20378653  0.47835882  0.71649642
   0.20554174  0.52431442  0.28911808
   0.67728377  0.47398442  0.17383057
   0.69873276  0.52071668  0.80620606
   0.48114948  0.30833317  0.78570790
   0.48114948  0.78570790  0.30833317
   0.51605815  0.23582099  0.23582099
   0.52434972  0.75753683  0.75753683
   0.50834594  0.49681987  0.49681987
   0.48857781  0.99612748  0.99612748
   0.99990963  0.49856140  0.00189629
   0.99990963  0.00189629  0.49856140
   0.12322517  0.89067723  0.62944833
   0.11028469  0.12691993  0.36920324
   0.88923725  0.86733433  0.37860546
   0.87798318  0.12813457  0.61618637
   0.87798318  0.61618637  0.12813457
   0.88923725  0.37860546  0.86733433
   0.12322517  0.62944833  0.89067723
   0.11028469  0.36920324  0.12691993
   0.61002804  0.11730403  0.87208838
   0.61002804  0.87208838  0.11730403
   0.35850181  0.11358438  0.11358438
   0.36132122  0.87750971  0.87750971
   0.63414990  0.61442801  0.37572036
   0.63414990  0.37572036  0.61442801
   0.38654059  0.61936072  0.61936072
   0.38315137  0.37607352  0.37607352
   0.75424852  0.74632905  0.74632905
   0.74425828  0.24897366  0.24897366
   0.25557074  0.75253364  0.24965594
   0.25557074  0.24965594  0.75253364
   0.94205056  0.99767872  0.99767872
   0.05604226  0.50501350  0.50501350
   0.50105755  0.98152634  0.48186643
   0.50105755  0.48186643  0.98152634
Direct configuration=     2
   0.95229726  0.33134891  0.33134891
   0.97524624  0.68497893  0.68497893
   0.04013089  0.17041042  0.81698746
   0.04013089  0.81698746  0.17041042
   0.29645821  0.31218452  0.98240925
   0.33360471  0.67878914  0.03099001
   0.79212620  0.21089847  0.01836143
   0.79426444  0.78605127  0.97660689
   0.29645821  0.98240925  0.31218452
   0.33360471  0.03099001  0.67878914
   0.79426444  0.97660689  0.78605127
   0.79212620  0.01836143  0.21089847
   0.20378253  0.71649512  0.47836145
   0.20553652  0.28911944  0.52431211
   0.69872935  0.80621213  0.52071357
   0.67727945  0.17382722  0.47398739
   0.20378253  0.47836145  0.71649512
   0.20553652  0.52431211  0.28911944
   0.67727945  0.47398739  0.17382722
   0.69872935  0.52071357  0.80621213
   0.48115372  0.30833683  0.78571186
   0.48115372  0.78571186  0.30833683
   0.51605359  0.23582126  0.23582126
   0.52434784  0.75753673  0.75753673
   0.50833806  0.49681580  0.49681580
   0.48858176  0.99612969  0.99612969
   0.99990471  0.49856268  0.00188825
   0.99990471  0.00188825  0.49856268
   0.12325920  0.89065356  0.62948986
   0.11031014  0.12695108  0.36916128
   0.88921288  0.86729140  0.37857574
   0.87795150  0.12817478  0.61621238
   0.87795150  0.61621238  0.12817478
   0.88921288  0.37857574  0.86729140
   0.12325920  0.62948986  0.89065356
   0.11031014  0.36916128  0.12695108
   0.61005673  0.11733550  0.87205518
   0.61005673  0.87205518  0.11733550
   0.35846163  0.11361233  0.11361233
   0.36127817  0.87747974  0.87747974
   0.63418951  0.61445624  0.37568694
   0.63418951  0.37568694  0.61445624
   0.38651104  0.61939129  0.61939129
   0.38312251  0.37604172  0.37604172
   0.75425118  0.74632605  0.74632605
   0.74426041  0.24897681  0.24897681
   0.25557087  0.75253573  0.24965138
   0.25557087  0.24965138  0.75253573
   0.94206465  0.99767901  0.99767901
   0.05602524  0.50501289  0.50501289
   0.50105867  0.98153112  0.48186978
   0.50105867  0.48186978  0.98153112
Direct configuration=     3
   0.95230057  0.33136490  0.33136490
   0.97525648  0.68497154  0.68497154
   0.04012666  0.17039196  0.81699757
   0.04012666  0.81699757  0.17039196
   0.29646448  0.31219478  0.98241368
   0.33361527  0.67878202  0.03098561
   0.79213210  0.21089708  0.01835607
   0.79426971  0.78605422  0.97661026
   0.29646448  0.98241368  0.31219478
   0.33361527  0.03098561  0.67878202
   0.79426971  0.97661026  0.78605422
   0.79213210  0.01835607  0.21089708
   0.20377634  0.71649311  0.47836551
   0.20552843  0.28912154  0.52430854
   0.69872408  0.80622151  0.52070875
   0.67727275  0.17382204  0.47399199
   0.20377634  0.47836551  0.71649311
   0.20552843  0.52430854  0.28912154
   0.67727275  0.47399199  0.17382204
   0.69872408  0.52070875  0.80622151
   0.48116027  0.30834249  0.78571800
   0.48116027  0.78571800  0.30834249
   0.51604655  0.23582168  0.23582168
   0.52434494  0.75753658  0.75753658
   0.50832587  0.49680949  0.49680949
   0.48858786  0.99613311  0.99613311
   0.99989709  0.49856466  0.00187582
   0.99989709  0.00187582  0.49856466
   0.12331187  0.89061694  0.62955410
   0.11034952  0.12699927  0.36909637
   0.88917516  0.86722498  0.37852975
   0.87790247  0.12823700  0.61625264
   0.87790247  0.61625264  0.12823700
   0.88917516  0.37852975  0.86722498
   0.12331187  0.62955410  0.89061694
   0.11034952  0.36909637  0.12699927
   0.61010112  0.11738419  0.87200381
   0.61010112  0.87200381  0.11738419
   0.35839947  0.11365559  0.11365559
   0.36121157  0.87743336  0.87743336
   0.63425080  0.61449991  0.37563522
   0.63425080  0.37563522  0.61449991
   0.38646533  0.61943859  0.61943859
   0.38307786  0.37599251  0.37599251
   0.75425529  0.74632142  0.74632142
   0.74426370  0.24898167  0.24898167
   0.25557107  0.75253897  0.24964432
   0.25557107  0.24964432  0.75253897
   0.94208647  0.99767945  0.99767945
   0.05599890  0.50501195  0.50501195
   0.50106040  0.98153851  0.48187498
   0.50106040  0.48187498  0.98153851
Direct configuration=     4
   0.95230067  0.33136535  0.33136535
   0.97525677  0.68497133  0.68497133
   0.04012654  0.17039143  0.81699786
   0.04012654  0.81699786  0.17039143
   0.29646466  0.31219507  0.98241380
   0.33361557  0.67878182  0.03098548
   0.79213226  0.21089704  0.01835592
   0.79426986  0.78605430  0.97661036
   0.29646466  0.98241380  0.31219507
   0.33361557  0.03098548  0.67878182
   0.79426986  0.97661036  0.78605430
   0.79213226  0.01835592  0.21089704
   0.20377616  0.71649305  0.47836563
   0.20552820  0.28912160  0.52430844
   0.69872393  0.80622178  0.52070862
   0.67727256  0.17382189  0.47399212
   0.20377616  0.47836563  0.71649305
   0.20552820  0.52430844  0.28912160
   0.67727256  0.47399212  0.17382189
   0.69872393  0.52070862  0.80622178
   0.48116046  0.30834265  0.78571818
   0.48116046  0.78571818  0.30834265
   0.51604635  0.23582169  0.23582169
   0.52434485  0.75753657  0.75753657
   0.50832553  0.49680931  0.49680931
   0.48858803  0.99613321  0.99613321
   0.99989687  0.49856472  0.00187547
   0.99989687  0.00187547  0.49856472
   0.12331337  0.89061590  0.62955593
   0.11035064  0.12700064  0.36909453
   0.88917409  0.86722309  0.37852844
   0.87790108  0.12823877  0.61625378
   0.87790108  0.61625378  0.12823877
   0.88917409  0.37852844  0.86722309
   0.12331337  0.62955593  0.89061590
   0.11035064  0.36909453  0.12700064
   0.61010238  0.11738558  0.87200235
   0.61010238  0.87200235  0.11738558
   0.35839770  0.11365682  0.11365682
   0.36120967  0.87743204  0.87743204
   0.63425254  0.61450115  0.37563375
   0.63425254  0.37563375  0.61450115
   0.38646403  0.61943994  0.61943994
   0.38307659  0.37599111  0.37599111
   0.75425540  0.74632129  0.74632129
   0.74426379  0.24898181  0.24898181
   0.25557108  0.75253906  0.24964412
   0.25557108  0.24964412  0.75253906
   0.94208709  0.99767947  0.99767947
   0.05599815  0.50501192  0.50501192
   0.50106045  0.98153872  0.48187513
   0.50106045  0.48187513  0.98153872
Direct configuration=     5
   0.95230213  0.33137936  0.33137936
   0.97526436  0.68496466  0.68496466
   0.04012492  0.17037477  0.81700703
   0.04012492  0.81700703  0.17037477
   0.29647056  0.31220512  0.98241585
   0.33362593  0.67877535  0.03098299
   0.79213803  0.21089590  0.01835370
   0.79427542  0.78605664  0.97661140
   0.29647056  0.98241585  0.31220512
   0.33362593  0.03098299  0.67877535
   0.79427542  0.97661140  0.78605664
   0.79213803  0.01835370  0.21089590
   0.20376991  0.71649160  0.47836675
   0.20551987  0.28912267  0.52430736
   0.69871791  0.80622997  0.52070619
   0.67726549  0.17381665  0.47399426
   0.20376991  0.47836675  0.71649160
   0.20551987  0.52430736  0.28912267
   0.67726549  0.47399426  0.17381665
   0.69871791  0.52070619  0.80622997
   0.48116324  0.30834909  0.78572293
   0.48116324  0.78572293  0.30834909
   0.51604538  0.23582018  0.23582018
   0.52434538  0.75753828  0.75753828
   0.50833986  0.49680812  0.49680812
   0.48857393  0.99613041  0.99613041
   0.99990014  0.49856286  0.00188071
   0.99990014  0.00188071  0.49856286
   0.12331303  0.89062137  0.62956656
   0.11033915  0.12699344  0.36908914
   0.88917829  0.86720733  0.37852733
   0.87790452  0.12824590  0.61624757
   0.87790452  0.61624757  0.12824590
   0.88917829  0.37852733  0.86720733
   0.12331303  0.62956656  0.89062137
   0.11033915  0.36908914  0.12699344
   0.61010315  0.11738739  0.87199735
   0.61010315  0.87199735  0.11738739
   0.35838850  0.11365230  0.11365230
   0.36120405  0.87743887  0.87743887
   0.63425637  0.61449384  0.37563705
   0.63425637  0.37563705  0.61449384
   0.38646137  0.61944002  0.61944002
   0.38307232  0.37598598  0.37598598
   0.75425846  0.74631868  0.74631868
   0.74426464  0.24898403  0.24898403
   0.25557138  0.75254084  0.24964094
   0.25557138  0.24964094  0.75254084
   0.94210100  0.99767952  0.99767952
   0.05598024  0.50501174  0.50501174
   0.50106186  0.98154370  0.48187829
   0.50106186  0.48187829  0.98154370
Direct configuration=     6
   0.95230622  0.33141835  0.33141835
   0.97528549  0.68494610  0.68494610
   0.04012041  0.17032841  0.81703257
   0.04012041  0.81703257  0.17032841
   0.29648702  0.31223311  0.98242156
   0.33365477  0.67875735  0.03097604
   0.79215408  0.21089272  0.01834753
   0.79429090  0.78606316  0.97661429
   0.29648702  0.98242156  0.31223311
   0.33365477  0.03097604  0.67875735
   0.79429090  0.97661429  0.78606316
   0.79215408  0.01834753  0.21089272
   0.20375251  0.71648757  0.47836988
   0.20549668  0.28912563  0.52430437
   0.69870116  0.80625277  0.52069945
   0.67724581  0.17380206  0.47400022
   0.20375251  0.47836988  0.71648757
   0.20549668  0.52430437  0.28912563
   0.67724581  0.47400022  0.17380206
   0.69870116  0.52069945  0.80625277
   0.48117097  0.30836702  0.78573616
   0.48117097  0.78573616  0.30836702
   0.51604270  0.23581598  0.23581598
   0.52434685  0.75754305  0.75754305
   0.50837977  0.49680481  0.49680481
   0.48853465  0.99612262  0.99612262
   0.99990925  0.49855767  0.00189531
   0.99990925  0.00189531  0.49855767
   0.12331208  0.89063661  0.62959614
   0.11030718  0.12697338  0.36907414
   0.88918998  0.86716347  0.37852423
   0.87791412  0.12826576  0.61623028
   0.87791412  0.61623028  0.12826576
   0.88918998  0.37852423  0.86716347
   0.12331208  0.62959614  0.89063661
   0.11030718  0.36907414  0.12697338
   0.61010531  0.11739244  0.87198345
   0.61010531  0.87198345  0.11739244
   0.35836288  0.11363971  0.11363971
   0.36118839  0.87745788  0.87745788
   0.63426703  0.61447347  0.37564623
   0.63426703  0.37564623  0.61447347
   0.38645397  0.61944025  0.61944025
   0.38306044  0.37597172  0.37597172
   0.75426695  0.74631141  0.74631141
   0.74426702  0.24899023  0.24899023
   0.25557223  0.75254579  0.24963208
   0.25557223  0.24963208  0.75254579
   0.94213973  0.99767969  0.99767969
   0.05593039  0.50501126  0.50501126
   0.50106578  0.98155757  0.48188709
   0.50106578  0.48188709  0.98155757
Direct configuration=     7
   0.95231438  0.33149634  0.33149634
   0.97532775  0.68490898  0.68490898
   0.04011139  0.17023567  0.81708365
   0.04011139  0.81708365  0.17023567
   0.29651992  0.31228908  0.98243297
   0.33371246  0.67872133  0.03096214
   0.79218618  0.21088638  0.01833518
   0.79432185  0.78607619  0.97662008
   0.29651992  0.98243297  0.31228908
   0.33371246  0.03096214  0.67872133
   0.79432185  0.97662008  0.78607619
   0.79218618  0.01833518  0.21088638
   0.20371771  0.71647950  0.47837613
   0.20545030  0.28913157  0.52429838
   0.69866766  0.80629837  0.52068595
   0.67720644  0.17377288  0.47401213
   0.20371771  0.47837613  0.71647950
   0.20545030  0.52429838  0.28913157
   0.67720644  0.47401213  0.17377288
   0.69866766  0.52068595  0.80629837
   0.48118645  0.30840288  0.78576262
   0.48118645  0.78576262  0.30840288
   0.51603734  0.23580758  0.23580758
   0.52434980  0.75755259  0.75755259
   0.50845958  0.49679819  0.49679819
   0.48845610  0.99610704  0.99610704
   0.99992747  0.49854730  0.00192450
   0.99992747  0.00192450  0.49854730
   0.12331018  0.89066709  0.62965529
   0.11024323  0.12693326  0.36904413
   0.88921335  0.86707575  0.37851804
   0.87793332  0.12830546  0.61619569
   0.87793332  0.61619569  0.12830546
   0.88921335  0.37851804  0.86707575
   0.12331018  0.62965529  0.89066709
   0.11024323  0.36904413  0.12693326
   0.61010962  0.11740252  0.87195565
   0.61010962  0.87195565  0.11740252
   0.35831165  0.11361454  0.11361454
   0.36115708  0.87749590  0.87749590
   0.63428833  0.61443274  0.37566460
   0.63428833  0.37566460  0.61443274
   0.38643918  0.61944072  0.61944072
   0.38303668  0.37594319  0.37594319
   0.75428395  0.74629688  0.74629688
   0.74427178  0.24900261  0.24900261
   0.25557393  0.75255569  0.24961438
   0.25557393  0.24961438  0.75255569
   0.94221720  0.99768001  0.99768001
   0.05583068  0.50501028  0.50501028
   0.50107363  0.98158531  0.48190469
   0.50107363  0.48190469  0.98158531
Direct configuration=     8
   0.95230818  0.33143714  0.33143714
   0.97529566  0.68493716  0.68493716
   0.04011824  0.17030607  0.81704487
   0.04011824  0.81704487  0.17030607
   0.29649494  0.31224659  0.98242431
   0.33366866  0.67874867  0.03097269
   0.79216181  0.21089120  0.01834456
   0.79429836  0.78606629  0.97661568
   0.29649494  0.98242431  0.31224659
   0.33366866  0.03097269  0.67874867
   0.79429836  0.97661568  0.78606629
   0.79216181  0.01834456  0.21089120
   0.20374413  0.71648562  0.47837138
   0.20548551  0.28912706  0.52430292
   0.69869309  0.80626375  0.52069619
   0.67723633  0.17379503  0.47400309
   0.20374413  0.47837138  0.71648562
   0.20548551  0.52430292  0.28912706
   0.67723633  0.47400309  0.17379503
   0.69869309  0.52069619  0.80626375
   0.48117470  0.30837566  0.78574253
   0.48117470  0.78574253  0.30837566
   0.51604141  0.23581396  0.23581396
   0.52434756  0.75754535  0.75754535
   0.50839899  0.49680322  0.49680322
   0.48851573  0.99611887  0.99611887
   0.99991364  0.49855517  0.00190234
   0.99991364  0.00190234  0.49855517
   0.12331162  0.89064395  0.62961038
   0.11029178  0.12696372  0.36906691
   0.88919561  0.86714234  0.37852274
   0.87791874  0.12827532  0.61622195
   0.87791874  0.61622195  0.12827532
   0.88919561  0.37852274  0.86714234
   0.12331162  0.62961038  0.89064395
   0.11029178  0.36906691  0.12696372
   0.61010635  0.11739487  0.87197676
   0.61010635  0.87197676  0.11739487
   0.35835054  0.11363365  0.11363365
   0.36118085  0.87746704  0.87746704
   0.63427216  0.61446366  0.37565066
   0.63427216  0.37565066  0.61446366
   0.38645041  0.61944037  0.61944037
   0.38305472  0.37596485  0.37596485
   0.75427105  0.74630791  0.74630791
   0.74426817  0.24899321  0.24899321
   0.25557264  0.75254817  0.24962782
   0.25557264  0.24962782  0.75254817
   0.94215839  0.99767977  0.99767977
   0.05590637  0.50501102  0.50501102
   0.50106767  0.98156425  0.48189133
   0.50106767  0.48189133  0.98156425
Direct configuration=     9
   0.95230779  0.33144754  0.33144754
   0.97530024  0.68493247  0.68493247
   0.04011808  0.17029376  0.81705161
   0.04011808  0.81705161  0.17029376
   0.29649901  0.31225393  0.98242572
   0.33367626  0.67874413  0.03097143
   0.79216613  0.21089088  0.01834284
   0.79430261  0.78606743  0.97661647
   0.29649901  0.98242572  0.31225393
   0.33367626  0.03097143  0.67874413
   0.79430261  0.97661647  0.78606743
   0.79216613  0.01834284  0.21089088
   0.20373929  0.71648515  0.47837192
   0.20547939  0.28912749  0.52430227
   0.69868914  0.80626977  0.52069471
   0.67723132  0.17379126  0.47400424
   0.20373929  0.47837192  0.71648515
   0.20547939  0.52430227  0.28912749
   0.67723132  0.47400424  0.17379126
   0.69868914  0.52069471  0.80626977
   0.48117656  0.30838033  0.78574529
   0.48117656  0.78574529  0.30838033
   0.51604043  0.23581219  0.23581219
   0.52434766  0.75754694  0.75754694
   0.50839667  0.49680113  0.49680113
   0.48851667  0.99611961  0.99611961
   0.99991111  0.49855537  0.00189744
   0.99991111  0.00189744  0.49855537
   0.12331020  0.89064943  0.62961565
   0.11028678  0.12696150  0.36906009
   0.88920157  0.86713494  0.37852525
   0.87792095  0.12827985  0.61621768
   0.87792095  0.61621768  0.12827985
   0.88920157  0.37852525  0.86713494
   0.12331020  0.62961565  0.89064943
   0.11028678  0.36906009  0.12696150
   0.61010378  0.11739280  0.87197665
   0.61010378  0.87197665  0.11739280
   0.35834365  0.11363198  0.11363198
   0.36117391  0.87746779  0.87746779
   0.63427701  0.61446181  0.37565055
   0.63427701  0.37565055  0.61446181
   0.38645170  0.61943775  0.61943775
   0.38305517  0.37596495  0.37596495
   0.75427310  0.74630634  0.74630634
   0.74426911  0.24899445  0.24899445
   0.25557289  0.75254927  0.24962618
   0.25557289  0.24962618  0.75254927
   0.94216856  0.99767977  0.99767977
   0.05589357  0.50501073  0.50501073
   0.50106881  0.98156760  0.48189371
   0.50106881  0.48189371  0.98156760
Direct configuration=    10
   0.95230699  0.33146832  0.33146832
   0.97530939  0.68492309  0.68492309
   0.04011776  0.17026917  0.81706506
   0.04011776  0.81706506  0.17026917
   0.29650713  0.31226859  0.98242855
   0.33369144  0.67873504  0.03096892
   0.79217476  0.21089024  0.01833940
   0.79431111  0.78606969  0.97661805
   0.29650713  0.98242855  0.31226859
   0.33369144  0.03096892  0.67873504
   0.79431111  0.97661805  0.78606969
   0.79217476  0.01833940  0.21089024
   0.20372961  0.71648421  0.47837299
   0.20546715  0.28912834  0.52430097
   0.69868124  0.80628180  0.52069173
   0.67722132  0.17378373  0.47400655
   0.20372961  0.47837299  0.71648421
   0.20546715  0.52430097  0.28912834
   0.67722132  0.47400655  0.17378373
   0.69868124  0.52069173  0.80628180
   0.48118027  0.30838965  0.78575079
   0.48118027  0.78575079  0.30838965
   0.51603846  0.23580865  0.23580865
   0.52434786  0.75755013  0.75755013
   0.50839202  0.49679695  0.49679695
   0.48851855  0.99612110  0.99612110
   0.99990607  0.49855576  0.00188766
   0.99990607  0.00188766  0.49855576
   0.12330736  0.89066037  0.62962616
   0.11027679  0.12695706  0.36904648
   0.88921349  0.86712016  0.37853027
   0.87792534  0.12828891  0.61620914
   0.87792534  0.61620914  0.12828891
   0.88921349  0.37853027  0.86712016
   0.12330736  0.62962616  0.89066037
   0.11027679  0.36904648  0.12695706
   0.61009865  0.11738867  0.87197644
   0.61009865  0.87197644  0.11738867
   0.35832989  0.11362864  0.11362864
   0.36116003  0.87746931  0.87746931
   0.63428669  0.61445810  0.37565033
   0.63428669  0.37565033  0.61445810
   0.38645427  0.61943252  0.61943252
   0.38305606  0.37596515  0.37596515
   0.75427721  0.74630320  0.74630320
   0.74427101  0.24899692  0.24899692
   0.25557340  0.75255147  0.24962290
   0.25557340  0.24962290  0.75255147
   0.94218888  0.99767976  0.99767976
   0.05586800  0.50501016  0.50501016
   0.50107109  0.98157428  0.48189846
   0.50107109  0.48189846  0.98157428
Direct configuration=    11
   0.95230541  0.33150988  0.33150988
   0.97532768  0.68490433  0.68490433
   0.04011713  0.17021998  0.81709198
   0.04011713  0.81709198  0.17021998
   0.29652339  0.31229792  0.98243419
   0.33372180  0.67871688  0.03096388
   0.79219202  0.21088897  0.01833254
   0.79432812  0.78607422  0.97662120
   0.29652339  0.98243419  0.31229792
   0.33372180  0.03096388  0.67871688
   0.79432812  0.97662120  0.78607422
   0.79219202  0.01833254  0.21088897
   0.20371027  0.71648233  0.47837513
   0.20544269  0.28913003  0.52429837
   0.69866545  0.80630586  0.52068578
   0.67720131  0.17376866  0.47401117
   0.20371027  0.47837513  0.71648233
   0.20544269  0.52429837  0.28913003
   0.67720131  0.47401117  0.17376866
   0.69866545  0.52068578  0.80630586
   0.48118768  0.30840830  0.78576180
   0.48118768  0.78576180  0.30840830
   0.51603453  0.23580158  0.23580158
   0.52434826  0.75755649  0.75755649
   0.50838273  0.49678859  0.49678859
   0.48852231  0.99612409  0.99612409
   0.99989598  0.49855655  0.00186811
   0.99989598  0.00186811  0.49855655
   0.12330167  0.89068226  0.62964720
   0.11025681  0.12694819  0.36901926
   0.88923732  0.86709059  0.37854032
   0.87793414  0.12830702  0.61619208
   0.87793414  0.61619208  0.12830702
   0.88923732  0.37854032  0.86709059
   0.12330167  0.62964720  0.89068226
   0.11025681  0.36901926  0.12694819
   0.61008840  0.11738041  0.87197600
   0.61008840  0.87197600  0.11738041
   0.35830237  0.11362196  0.11362196
   0.36113228  0.87747233  0.87747233
   0.63430607  0.61445067  0.37564989
   0.63430607  0.37564989  0.61445067
   0.38645941  0.61942206  0.61942206
   0.38305785  0.37596556  0.37596556
   0.75428543  0.74629692  0.74629692
   0.74427479  0.24900185  0.24900185
   0.25557441  0.75255585  0.24961635
   0.25557441  0.24961635  0.75255585
   0.94222952  0.99767976  0.99767976
   0.05581684  0.50500901  0.50500901
   0.50107563  0.98158766  0.48190797
   0.50107563  0.48190797  0.98158766
Direct configuration=    12
   0.95230224  0.33159301  0.33159301
   0.97536427  0.68486682  0.68486682
   0.04011586  0.17012160  0.81714580
   0.04011586  0.81714580  0.17012160
   0.29655589  0.31235658  0.98244549
   0.33378252  0.67868056  0.03095382
   0.79222655  0.21088643  0.01831880
   0.79436213  0.78608328  0.97662749
   0.29655589  0.98244549  0.31235658
   0.33378252  0.03095382  0.67868056
   0.79436213  0.97662749  0.78608328
   0.79222655  0.01831880  0.21088643
   0.20367157  0.71647856  0.47837941
   0.20539375  0.28913343  0.52429318
   0.69863385  0.80635398  0.52067389
   0.67716130  0.17373853  0.47402040
   0.20367157  0.47837941  0.71647856
   0.20539375  0.52429318  0.28913343
   0.67716130  0.47402040  0.17373853
   0.69863385  0.52067389  0.80635398
   0.48120251  0.30844560  0.78578381
   0.48120251  0.78578381  0.30844560
   0.51602667  0.23578743  0.23578743
   0.52434905  0.75756922  0.75756922
   0.50836416  0.49677187  0.49677187
   0.48852982  0.99613005  0.99613005
   0.99987581  0.49855812  0.00182900
   0.99987581  0.00182900  0.49855812
   0.12329031  0.89072603  0.62968927
   0.11021684  0.12693045  0.36896481
   0.88928498  0.86703145  0.37856041
   0.87795174  0.12834324  0.61615795
   0.87795174  0.61615795  0.12834324
   0.88928498  0.37856041  0.86703145
   0.12329031  0.62968927  0.89072603
   0.11021684  0.36896481  0.12693045
   0.61006790  0.11736389  0.87197514
   0.61006790  0.87197514  0.11736389
   0.35824733  0.11360860  0.11360860
   0.36107678  0.87747839  0.87747839
   0.63434481  0.61443583  0.37564902
   0.63434481  0.37564902  0.61443583
   0.38646970  0.61940115  0.61940115
   0.38306143  0.37596638  0.37596638
   0.75430187  0.74628437  0.74628437
   0.74428237  0.24901173  0.24901173
   0.25557644  0.75256463  0.24960325
   0.25557644  0.24960325  0.75256463
   0.94231081  0.99767975  0.99767975
   0.05571454  0.50500672  0.50500672
   0.50108473  0.98161441  0.48192698
   0.50108473  0.48192698  0.98161441
Direct configuration=    13
   0.95230326  0.33156611  0.33156611
   0.97535243  0.68487896  0.68487896
   0.04011627  0.17015343  0.81712839
   0.04011627  0.81712839  0.17015343
   0.29654537  0.31233760  0.98244183
   0.33376287  0.67869231  0.03095707
   0.79221538  0.21088725  0.01832325
   0.79435112  0.78608035  0.97662546
   0.29654537  0.98244183  0.31233760
   0.33376287  0.03095707  0.67869231
   0.79435112  0.97662546  0.78608035
   0.79221538  0.01832325  0.21088725
   0.20368409  0.71647978  0.47837803
   0.20540959  0.28913233  0.52429486
   0.69864408  0.80633841  0.52067774
   0.67717424  0.17374828  0.47401741
   0.20368409  0.47837803  0.71647978
   0.20540959  0.52429486  0.28913233
   0.67717424  0.47401741  0.17374828
   0.69864408  0.52067774  0.80633841
   0.48119771  0.30843353  0.78577669
   0.48119771  0.78577669  0.30843353
   0.51602922  0.23579201  0.23579201
   0.52434879  0.75756510  0.75756510
   0.50837017  0.49677728  0.49677728
   0.48852739  0.99612812  0.99612812
   0.99988234  0.49855761  0.00184165
   0.99988234  0.00184165  0.49855761
   0.12329398  0.89071187  0.62967566
   0.11022977  0.12693619  0.36898243
   0.88926956  0.86705059  0.37855391
   0.87794604  0.12833152  0.61616899
   0.87794604  0.61616899  0.12833152
   0.88926956  0.37855391  0.86705059
   0.12329398  0.62967566  0.89071187
   0.11022977  0.36898243  0.12693619
   0.61007453  0.11736923  0.87197542
   0.61007453  0.87197542  0.11736923
   0.35826514  0.11361292  0.11361292
   0.36109474  0.87747643  0.87747643
   0.63433228  0.61444063  0.37564930
   0.63433228  0.37564930  0.61444063
   0.38646637  0.61940792  0.61940792
   0.38306027  0.37596612  0.37596612
   0.75429655  0.74628843  0.74628843
   0.74427992  0.24900854  0.24900854
   0.25557578  0.75256179  0.24960749
   0.25557578  0.24960749  0.75256179
   0.94228450  0.99767975  0.99767975
   0.05574764  0.50500746  0.50500746
   0.50108178  0.98160576  0.48192083
   0.50108178  0.48192083  0.98160576
Direct configuration=    14
   0.95230268  0.33158146  0.33158146
   0.97535919  0.68487203  0.68487203
   0.04011604  0.17013527  0.81713832
   0.04011604  0.81713832  0.17013527
   0.29655137  0.31234843  0.98244392
   0.33377408  0.67868561  0.03095522
   0.79222175  0.21088679  0.01832071
   0.79435740  0.78608202  0.97662662
   0.29655137  0.98244392  0.31234843
   0.33377408  0.03095522  0.67868561
   0.79435740  0.97662662  0.78608202
   0.79222175  0.01832071  0.21088679
   0.20367695  0.71647908  0.47837882
   0.20540055  0.28913296  0.52429390
   0.69863824  0.80634729  0.52067554
   0.67716686  0.17374271  0.47401912
   0.20367695  0.47837882  0.71647908
   0.20540055  0.52429390  0.28913296
   0.67716686  0.47401912  0.17374271
   0.69863824  0.52067554  0.80634729
   0.48120045  0.30844042  0.78578075
   0.48120045  0.78578075  0.30844042
   0.51602777  0.23578939  0.23578939
   0.52434894  0.75756745  0.75756745
   0.50836674  0.49677419  0.49677419
   0.48852878  0.99612922  0.99612922
   0.99987861  0.49855790  0.00183443
   0.99987861  0.00183443  0.49855790
   0.12329189  0.89071995  0.62968342
   0.11022240  0.12693292  0.36897238
   0.88927836  0.86703967  0.37855762
   0.87794929  0.12833820  0.61616269
   0.87794929  0.61616269  0.12833820
   0.88927836  0.37855762  0.86703967
   0.12329189  0.62968342  0.89071995
   0.11022240  0.36897238  0.12693292
   0.61007075  0.11736618  0.87197526
   0.61007075  0.87197526  0.11736618
   0.35825498  0.11361046  0.11361046
   0.36108450  0.87747755  0.87747755
   0.63433943  0.61443789  0.37564914
   0.63433943  0.37564914  0.61443789
   0.38646827  0.61940406  0.61940406
   0.38306093  0.37596627  0.37596627
   0.75429959  0.74628612  0.74628612
   0.74428131  0.24901036  0.24901036
   0.25557615  0.75256341  0.24960507
   0.25557615  0.24960507  0.75256341
   0.94229951  0.99767975  0.99767975
   0.05572876  0.50500704  0.50500704
   0.50108346  0.98161070  0.48192434
   0.50108346  0.48192434  0.98161070
Direct configuration=    15
   0.95230297  0.33157379  0.33157379
   0.97535581  0.68487549  0.68487549
   0.04011616  0.17014435  0.81713335
   0.04011616  0.81713335  0.17014435
   0.29654837  0.31234302  0.98244287
   0.33376848  0.67868896  0.03095615
   0.79221856  0.21088702  0.01832198
   0.79435426  0.78608118  0.97662604
   0.29654837  0.98244287  0.31234302
   0.33376848  0.03095615  0.67868896
   0.79435426  0.97662604  0.78608118
   0.79221856  0.01832198  0.21088702
   0.20368052  0.71647943  0.47837842
   0.20540507  0.28913264  0.52429438
   0.69864116  0.80634285  0.52067664
   0.67717055  0.17374550  0.47401826
   0.20368052  0.47837842  0.71647943
   0.20540507  0.52429438  0.28913264
   0.67717055  0.47401826  0.17374550
   0.69864116  0.52067664  0.80634285
   0.48119908  0.30843698  0.78577872
   0.48119908  0.78577872  0.30843698
   0.51602849  0.23579070  0.23579070
   0.52434886  0.75756628  0.75756628
   0.50836845  0.49677573  0.49677573
   0.48852808  0.99612867  0.99612867
   0.99988047  0.49855776  0.00183804
   0.99988047  0.00183804  0.49855776
   0.12329293  0.89071591  0.62967954
   0.11022609  0.12693455  0.36897740
   0.88927396  0.86704513  0.37855576
   0.87794767  0.12833486  0.61616584
   0.87794767  0.61616584  0.12833486
   0.88927396  0.37855576  0.86704513
   0.12329293  0.62967954  0.89071591
   0.11022609  0.36897740  0.12693455
   0.61007264  0.11736771  0.87197534
   0.61007264  0.87197534  0.11736771
   0.35826006  0.11361169  0.11361169
   0.36108962  0.87747699  0.87747699
   0.63433585  0.61443926  0.37564922
   0.63433585  0.37564922  0.61443926
   0.38646732  0.61940599  0.61940599
   0.38306060  0.37596619  0.37596619