  52  52   0   4
  0.1733142E+02  0.9659303E-09  0.9659303E-09  0.9659303E-09  0.2000000E-15
  1.000000000000000E-004
  CAR 
 unknown system                          
     12.58548242    -45.22017082  301      2.03595070      1.00000000
    -45.220  0.0000E+00  0.0000E+00  0.0000E+00  0.0000E+00
    -45.027  0.0000E+00  0.0000E+00  0.0000E+00  0.0000E+00
    -44.835  0.0000E+00  0.0000E+00  0.0000E+00  0.0000E+00
    -44.642  0.0000E+00  0.0000E+00  0.0000E+00  0.0000E+00
    -44.449  0.0000E+00  0.0000E+00  0.0000E+00  0.0000E+00
    -44.257  0.0000E+00  0.0000E+00  0.0000E+00  0.0000E+00
    -44.064  0.0000E+00  0.0000E+00  0.0000E+00  0.0000E+00
    -43.871  0.0000E+00  0.0000E+00  0.0000E+00  0.0000E+00
    -43.679  0.0000E+00  0.0000E+00  0.0000E+00  0.0000E+00
    -43.486  0.0000E+00  0.0000E+00  0.0000E+00  0.0000E+00
    -43.293  0.0000E+00  0.0000E+00  0.0000E+00  0.0000E+00
    -43.101  0.0000E+00  0.0000E+00  0.0000E+00  0.0000E+00
    -42.908  0.0000E+00  0.0000E+00  0.0000E+00  0.0000E+00
    -42.715  0.1949E-10  0.1949E-10  0.3756E-11  0.3756E-11
    -42.523  0.1430E-01  0.1430E-01  0.2756E-02  0.2756E-02
    -42.330  0.5697E-01  0.5697E-01  0.1374E-01  0.1374E-01
    -42.137  0.5323E-01  0.5323E-01  0.2400E-01  0.2400E-01
    -41.945  0.0000E+00  0.0000E+00  0.2400E-01  0.2400E-01
    -41.752  0.0000E+00  0.0000E+00  0.2400E-01  0.2400E-01
    -41.559  0.0000E+00  0.0000E+00  0.2400E-01  0.2400E-01
    -41.366  0.0000E+00  0.0000E+00  0.2400E-01  0.2400E-01
    -41.174  0.0000E+00  0.0000E+00  0.2400E-01  0.2400E-01
    -40.981  0.0000E+00  0.0000E+00  0.2400E-01  0.2400E-01
    -40.788  0.0000E+00  0.0000E+00  0.2400E-01  0.2400E-01
    -40.596  0.0000E+00  0.0000E+00  0.2400E-01  0.2400E-01
    -40.403  0.0000E+00  0.0000E+00  0.2400E-01  0.2400E-01
    -40.210  0.0000E+00  0.0000E+00  0.2400E-01  0.2400E-01
    -40.018  0.0000E+00  0.0000E+00  0.2400E-01  0.2400E-01
    -39.825  0.0000E+00  0.0000E+00  0.2400E-01  0.2400E-01
    -39.632  0.0000E+00  0.0000E+00  0.2400E-01  0.2400E-01
    -39.440  0.0000E+00  0.0000E+00  0.2400E-01  0.2400E-01
    -39.247  0.0000E+00  0.0000E+00  0.2400E-01  0.2400E-01
    -39.054  0.0000E+00  0.0000E+00  0.2400E-01  0.2400E-01
    -38.862  0.0000E+00  0.0000E+00  0.2400E-01  0.2400E-01
    -38.669  0.0000E+00  0.0000E+00  0.2400E-01  0.2400E-01
    -38.476  0.0000E+00  0.0000E+00  0.2400E-01  0.2400E-01
    -38.283  0.0000E+00  0.0000E+00  0.2400E-01  0.2400E-01
    -38.091  0.0000E+00  0.0000E+00  0.2400E-01  0.2400E-01
    -37.898  0.0000E+00  0.0000E+00  0.2400E-01  0.2400E-01
    -37.705  0.0000E+00  0.0000E+00  0.2400E-01  0.2400E-01
    -37.513  0.0000E+00  0.0000E+00  0.2400E-01  0.2400E-01
    -37.320  0.0000E+00  0.0000E+00  0.2400E-01  0.2400E-01
    -37.127  0.0000E+00  0.0000E+00  0.2400E-01  0.2400E-01
    -36.935  0.0000E+00  0.0000E+00  0.2400E-01  0.2400E-01
    -36.742  0.0000E+00  0.0000E+00  0.2400E-01  0.2400E-01
    -36.549  0.0000E+00  0.0000E+00  0.2400E-01  0.2400E-01
    -36.357  0.0000E+00  0.0000E+00  0.2400E-01  0.2400E-01
    -36.164  0.0000E+00  0.0000E+00  0.2400E-01  0.2400E-01
    -35.971  0.0000E+00  0.0000E+00  0.2400E-01  0.2400E-01
    -35.779  0.0000E+00  0.0000E+00  0.2400E-01  0.2400E-01
    -35.586  0.0000E+00  0.0000E+00  0.2400E-01  0.2400E-01
    -35.393  0.0000E+00  0.0000E+00  0.2400E-01  0.2400E-01
    -35.201  0.0000E+00  0.0000E+00  0.2400E-01  0.2400E-01
    -35.008  0.0000E+00  0.0000E+00  0.2400E-01  0.2400E-01
    -34.815  0.0000E+00  0.0000E+00  0.2400E-01  0.2400E-01
    -34.622  0.0000E+00  0.0000E+00  0.2400E-01  0.2400E-01
    -34.430  0.0000E+00  0.0000E+00  0.2400E-01  0.2400E-01
    -34.237  0.0000E+00  0.0000E+00  0.2400E-01  0.2400E-01
    -34.044  0.0000E+00  0.0000E+00  0.2400E-01  0.2400E-01
    -33.852  0.0000E+00  0.0000E+00  0.2400E-01  0.2400E-01
    -33.659  0.0000E+00  0.0000E+00  0.2400E-01  0.2400E-01
    -33.466  0.0000E+00  0.0000E+00  0.2400E-01  0.2400E-01
    -33.274  0.0000E+00  0.0000E+00  0.2400E-01  0.2400E-01
    -33.081  0.0000E+00  0.0000E+00  0.2400E-01  0.2400E-01
    -32.888  0.0000E+00  0.0000E+00  0.2400E-01  0.2400E-01
    -32.696  0.0000E+00  0.0000E+00  0.2400E-01  0.2400E-01
    -32.503  0.0000E+00  0.0000E+00  0.2400E-01  0.2400E-01
    -32.310  0.0000E+00  0.0000E+00  0.2400E-01  0.2400E-01
    -32.118  0.0000E+00  0.0000E+00  0.2400E-01  0.2400E-01
    -31.925  0.0000E+00  0.0000E+00  0.2400E-01  0.2400E-01
    -31.732  0.0000E+00  0.0000E+00  0.2400E-01  0.2400E-01
    -31.539  0.0000E+00  0.0000E+00  0.2400E-01  0.2400E-01
    -31.347  0.0000E+00  0.0000E+00  0.2400E-01  0.2400E-01
    -31.154  0.0000E+00  0.0000E+00  0.2400E-01  0.2400E-01
    -30.961  0.0000E+00  0.0000E+00  0.2400E-01  0.2400E-01
    -30.769  0.0000E+00  0.0000E+00  0.2400E-01  0.2400E-01
    -30.576  0.0000E+00  0.0000E+00  0.2400E-01  0.2400E-01
    -30.383  0.0000E+00  0.0000E+00  0.2400E-01  0.2400E-01
    -30.191  0.0000E+00  0.0000E+00  0.2400E-01  0.2400E-01
    -29.998  0.0000E+00  0.0000E+00  0.2400E-01  0.2400E-01
    -29.805  0.0000E+00  0.0000E+00  0.2400E-01  0.2400E-01
    -29.613  0.0000E+00  0.0000E+00  0.2400E-01  0.2400E-01
    -29.420  0.0000E+00  0.0000E+00  0.2400E-01  0.2400E-01
    -29.227  0.0000E+00  0.0000E+00  0.2400E-01  0.2400E-01
    -29.035  0.0000E+00  0.0000E+00  0.2400E-01  0.2400E-01
    -28.842  0.0000E+00  0.0000E+00  0.2400E-01  0.2400E-01
    -28.649  0.0000E+00  0.0000E+00  0.2400E-01  0.2400E-01
    -28.457  0.0000E+00  0.0000E+00  0.2400E-01  0.2400E-01
    -28.264  0.0000E+00  0.0000E+00  0.2400E-01  0.2400E-01
    -28.071  0.0000E+00  0.0000E+00  0.2400E-01  0.2400E-01
    -27.878  0.0000E+00  0.0000E+00  0.2400E-01  0.2400E-01
    -27.686  0.0000E+00  0.0000E+00  0.2400E-01  0.2400E-01
    -27.493  0.0000E+00  0.0000E+00  0.2400E-01  0.2400E-01
    -27.300  0.0000E+00  0.0000E+00  0.2400E-01  0.2400E-01
    -27.108  0.0000E+00  0.0000E+00  0.2400E-01  0.2400E-01
    -26.915  0.0000E+00  0.0000E+00  0.2400E-01  0.2400E-01
    -26.722  0.0000E+00  0.0000E+00  0.2400E-01  0.2400E-01
    -26.530  0.0000E+00  0.0000E+00  0.2400E-01  0.2400E-01
    -26.337  0.0000E+00  0.0000E+00  0.2400E-01  0.2400E-01
    -26.144  0.0000E+00  0.0000E+00  0.2400E-01  0.2400E-01
    -25.952  0.0000E+00  0.0000E+00  0.2400E-01  0.2400E-01
    -25.759  0.0000E+00  0.0000E+00  0.2400E-01  0.2400E-01
    -25.566  0.0000E+00  0.0000E+00  0.2400E-01  0.2400E-01
    -25.374  0.0000E+00  0.0000E+00  0.2400E-01  0.2400E-01
    -25.181  0.0000E+00  0.0000E+00  0.2400E-01  0.2400E-01
    -24.988  0.0000E+00  0.0000E+00  0.2400E-01  0.2400E-01
    -24.796  0.0000E+00  0.0000E+00  0.2400E-01  0.2400E-01
    -24.603  0.0000E+00  0.0000E+00  0.2400E-01  0.2400E-01
    -24.410  0.0000E+00  0.0000E+00  0.2400E-01  0.2400E-01
    -24.217  0.0000E+00  0.0000E+00  0.2400E-01  0.2400E-01
    -24.025  0.0000E+00  0.0000E+00  0.2400E-01  0.2400E-01
    -23.832  0.0000E+00  0.0000E+00  0.2400E-01  0.2400E-01
    -23.639  0.0000E+00  0.0000E+00  0.2400E-01  0.2400E-01
    -23.447  0.0000E+00  0.0000E+00  0.2400E-01  0.2400E-01
    -23.254  0.0000E+00  0.0000E+00  0.2400E-01  0.2400E-01
    -23.061  0.0000E+00  0.0000E+00  0.2400E-01  0.2400E-01
    -22.869  0.0000E+00  0.0000E+00  0.2400E-01  0.2400E-01
    -22.676  0.0000E+00  0.0000E+00  0.2400E-01  0.2400E-01
    -22.483  0.0000E+00  0.0000E+00  0.2400E-01  0.2400E-01
    -22.291  0.0000E+00  0.0000E+00  0.2400E-01  0.2400E-01
    -22.098  0.0000E+00  0.0000E+00  0.2400E-01  0.2400E-01
    -21.905  0.0000E+00  0.0000E+00  0.2400E-01  0.2400E-01
    -21.713  0.0000E+00  0.0000E+00  0.2400E-01  0.2400E-01
    -21.520  0.0000E+00  0.0000E+00  0.2400E-01  0.2400E-01
    -21.327  0.0000E+00  0.0000E+00  0.2400E-01  0.2400E-01
    -21.134  0.0000E+00  0.0000E+00  0.2400E-01  0.2400E-01
    -20.942  0.0000E+00  0.0000E+00  0.2400E-01  0.2400E-01
    -20.749  0.0000E+00  0.0000E+00  0.2400E-01  0.2400E-01
    -20.556  0.0000E+00  0.0000E+00  0.2400E-01  0.2400E-01
    -20.364  0.0000E+00  0.0000E+00  0.2400E-01  0.2400E-01
    -20.171  0.0000E+00  0.0000E+00  0.2400E-01  0.2400E-01
    -19.978  0.0000E+00  0.0000E+00  0.2400E-01  0.2400E-01
    -19.786  0.0000E+00  0.0000E+00  0.2400E-01  0.2400E-01
    -19.593  0.0000E+00  0.0000E+00  0.2400E-01  0.2400E-01
    -19.400  0.0000E+00  0.0000E+00  0.2400E-01  0.2400E-01
    -19.208  0.0000E+00  0.0000E+00  0.2400E-01  0.2400E-01
    -19.015  0.0000E+00  0.0000E+00  0.2400E-01  0.2400E-01
    -18.822  0.0000E+00  0.0000E+00  0.2400E-01  0.2400E-01
    -18.630  0.0000E+00  0.0000E+00  0.2400E-01  0.2400E-01
    -18.437  0.0000E+00  0.0000E+00  0.2400E-01  0.2400E-01
    -18.244  0.0000E+00  0.0000E+00  0.2400E-01  0.2400E-01
    -18.052  0.0000E+00  0.0000E+00  0.2400E-01  0.2400E-01
    -17.859  0.0000E+00  0.0000E+00  0.2400E-01  0.2400E-01
    -17.666  0.0000E+00  0.0000E+00  0.2400E-01  0.2400E-01
    -17.473  0.0000E+00  0.0000E+00  0.2400E-01  0.2400E-01
    -17.281  0.0000E+00  0.0000E+00  0.2400E-01  0.2400E-01
    -17.088  0.0000E+00  0.0000E+00  0.2400E-01  0.2400E-01
    -16.895  0.0000E+00  0.0000E+00  0.2400E-01  0.2400E-01
    -16.703  0.0000E+00  0.0000E+00  0.2400E-01  0.2400E-01
    -16.510  0.0000E+00  0.0000E+00  0.2400E-01  0.2400E-01
    -16.317  0.0000E+00  0.0000E+00  0.2400E-01  0.2400E-01
    -16.125  0.0000E+00  0.0000E+00  0.2400E-01  0.2400E-01
    -15.932  0.0000E+00  0.0000E+00  0.2400E-01  0.2400E-01
    -15.739  0.0000E+00  0.0000E+00  0.2400E-01  0.2400E-01
    -15.547  0.0000E+00  0.0000E+00  0.2400E-01  0.2400E-01
    -15.354  0.0000E+00  0.0000E+00  0.2400E-01  0.2400E-01
    -15.161  0.0000E+00  0.0000E+00  0.2400E-01  0.2400E-01
    -14.969  0.0000E+00  0.0000E+00  0.2400E-01  0.2400E-01
    -14.776  0.0000E+00  0.0000E+00  0.2400E-01  0.2400E-01
    -14.583  0.0000E+00  0.0000E+00  0.2400E-01  0.2400E-01
    -14.390  0.0000E+00  0.0000E+00  0.2400E-01  0.2400E-01
    -14.198  0.0000E+00  0.0000E+00  0.2400E-01  0.2400E-01
    -14.005  0.0000E+00  0.0000E+00  0.2400E-01  0.2400E-01
    -13.812  0.0000E+00  0.0000E+00  0.2400E-01  0.2400E-01
    -13.620  0.0000E+00  0.0000E+00  0.2400E-01  0.2400E-01
    -13.427  0.0000E+00  0.0000E+00  0.2400E-01  0.2400E-01
    -13.234  0.9421E-16  0.9421E-16  0.2400E-01  0.2400E-01
    -13.042  0.4859E-02  0.4859E-02  0.2494E-01  0.2494E-01
    -12.849  0.1590E-01  0.1590E-01  0.2800E-01  0.2800E-01
    -12.656  0.2672E-02  0.2672E-02  0.2851E-01  0.2851E-01
    -12.464  0.1809E-01  0.1809E-01  0.3200E-01  0.3200E-01
    -12.271  0.0000E+00  0.0000E+00  0.3200E-01  0.3200E-01
    -12.078  0.0000E+00  0.0000E+00  0.3200E-01  0.3200E-01
    -11.886  0.0000E+00  0.0000E+00  0.3200E-01  0.3200E-01
    -11.693  0.0000E+00  0.0000E+00  0.3200E-01  0.3200E-01
    -11.500  0.0000E+00  0.0000E+00  0.3200E-01  0.3200E-01
    -11.308  0.0000E+00  0.0000E+00  0.3200E-01  0.3200E-01
    -11.115  0.0000E+00  0.0000E+00  0.3200E-01  0.3200E-01
    -10.922  0.0000E+00  0.0000E+00  0.3200E-01  0.3200E-01
    -10.729  0.0000E+00  0.0000E+00  0.3200E-01  0.3200E-01
    -10.537  0.0000E+00  0.0000E+00  0.3200E-01  0.3200E-01
    -10.344  0.2850E-04  0.2850E-04  0.3201E-01  0.3201E-01
    -10.151  0.1587E-01  0.1587E-01  0.3506E-01  0.3506E-01
     -9.959  0.2401E-01  0.2401E-01  0.3969E-01  0.3969E-01
     -9.766  0.2232E-01  0.2232E-01  0.4400E-01  0.4400E-01
     -9.573  0.0000E+00  0.0000E+00  0.4400E-01  0.4400E-01
     -9.381  0.0000E+00  0.0000E+00  0.4400E-01  0.4400E-01
     -9.188  0.0000E+00  0.0000E+00  0.4400E-01  0.4400E-01
     -8.995  0.0000E+00  0.0000E+00  0.4400E-01  0.4400E-01
     -8.803  0.0000E+00  0.0000E+00  0.4400E-01  0.4400E-01
     -8.610  0.0000E+00  0.0000E+00  0.4400E-01  0.4400E-01
     -8.417  0.2628E-06  0.2628E-06  0.4400E-01  0.4400E-01
     -8.225  0.2063E-01  0.2063E-01  0.4797E-01  0.4797E-01
     -8.032  0.1189E-03  0.1189E-03  0.4800E-01  0.4800E-01
     -7.839  0.0000E+00  0.0000E+00  0.4800E-01  0.4800E-01
     -7.646  0.0000E+00  0.0000E+00  0.4800E-01  0.4800E-01
     -7.454  0.0000E+00  0.0000E+00  0.4800E-01  0.4800E-01
     -7.261  0.0000E+00  0.0000E+00  0.4800E-01  0.4800E-01
     -7.068  0.0000E+00  0.0000E+00  0.4800E-01  0.4800E-01
     -6.876  0.0000E+00  0.0000E+00  0.4800E-01  0.4800E-01
     -6.683  0.0000E+00  0.0000E+00  0.4800E-01  0.4800E-01
     -6.490  0.0000E+00  0.0000E+00  0.4800E-01  0.4800E-01
     -6.298  0.5762E-18  0.5762E-18  0.4800E-01  0.4800E-01
     -6.105  0.4097E-02  0.4096E-02  0.4879E-01  0.4879E-01
     -5.912  0.1093E-02  0.1093E-02  0.4900E-01  0.4900E-01
     -5.720  0.2008E-02  0.2008E-02  0.4939E-01  0.4939E-01
     -5.527  0.1353E-01  0.1353E-01  0.5199E-01  0.5199E-01
     -5.334  0.2268E-04  0.2268E-04  0.5200E-01  0.5200E-01
     -5.142  0.0000E+00  0.0000E+00  0.5200E-01  0.5200E-01
     -4.949  0.0000E+00  0.0000E+00  0.5200E-01  0.5200E-01
     -4.756  0.0000E+00  0.0000E+00  0.5200E-01  0.5200E-01
     -4.564  0.0000E+00  0.0000E+00  0.5200E-01  0.5200E-01
     -4.371  0.0000E+00  0.0000E+00  0.5200E-01  0.5200E-01
     -4.178  0.0000E+00  0.0000E+00  0.5200E-01  0.5200E-01
     -3.985  0.0000E+00  0.0000E+00  0.5200E-01  0.5200E-01
     -3.793  0.0000E+00  0.0000E+00  0.5200E-01  0.5200E-01
     -3.600  0.0000E+00  0.0000E+00  0.5200E-01  0.5200E-01
     -3.407  0.5042E-18  0.5042E-18  0.5200E-01  0.5200E-01
     -3.215  0.4755E-02  0.4755E-02  0.5292E-01  0.5292E-01
     -3.022  0.1081E-01  0.1081E-01  0.5500E-01  0.5500E-01
     -2.829  0.3600E-02  0.3600E-02  0.5569E-01  0.5569E-01
     -2.637  0.1156E-01  0.1156E-01  0.5792E-01  0.5792E-01
     -2.444  0.1192E-01  0.1192E-01  0.6022E-01  0.6022E-01
     -2.251  0.1613E-01  0.1613E-01  0.6333E-01  0.6333E-01
     -2.059  0.3495E-02  0.3495E-02  0.6400E-01  0.6400E-01
     -1.866  0.0000E+00  0.0000E+00  0.6400E-01  0.6400E-01
     -1.673  0.1350E-07  0.1350E-07  0.6400E-01  0.6400E-01
     -1.481  0.1548E-01  0.1548E-01  0.6698E-01  0.6698E-01
     -1.288  0.1846E-01  0.1846E-01  0.7054E-01  0.7054E-01
     -1.095  0.2120E-01  0.2120E-01  0.7463E-01  0.7463E-01
     -0.903  0.7126E-02  0.7126E-02  0.7600E-01  0.7600E-01
     -0.710  0.2540E-12  0.2540E-12  0.7600E-01  0.7600E-01
     -0.517  0.9512E-02  0.9512E-02  0.7783E-01  0.7783E-01
     -0.324  0.1140E-01  0.1140E-01  0.8003E-01  0.8003E-01
     -0.132  0.1060E-01  0.1060E-01  0.8207E-01  0.8207E-01
      0.061  0.2826E-01  0.2826E-01  0.8752E-01  0.8752E-01
      0.254  0.2458E-01  0.2458E-01  0.9225E-01  0.9225E-01
      0.446  0.1537E-01  0.1537E-01  0.9522E-01  0.9522E-01
      0.639  0.4047E-02  0.4047E-02  0.9600E-01  0.9600E-01
      0.832  0.9199E-02  0.9199E-02  0.9777E-01  0.9777E-01
      1.024  0.2123E-01  0.2123E-01  0.1019E+00  0.1019E+00
      1.217  0.2316E-01  0.2316E-01  0.1063E+00  0.1063E+00
      1.410  0.2851E-01  0.2851E-01  0.1118E+00  0.1118E+00
      1.602  0.2879E-01  0.2879E-01  0.1174E+00  0.1174E+00
      1.795  0.1349E-01  0.1349E-01  0.1200E+00  0.1200E+00
      1.988  0.7466E-04  0.7466E-04  0.1200E+00  0.1200E+00
      2.180  0.0000E+00  0.0000E+00  0.1200E+00  0.1200E+00
      2.373  0.0000E+00  0.0000E+00  0.1200E+00  0.1200E+00
      2.566  0.0000E+00  0.0000E+00  0.1200E+00  0.1200E+00
      2.759  0.0000E+00  0.0000E+00  0.1200E+00  0.1200E+00
      2.951  0.0000E+00  0.0000E+00  0.1200E+00  0.1200E+00
      3.144  0.0000E+00  0.0000E+00  0.1200E+00  0.1200E+00
      3.337  0.0000E+00  0.0000E+00  0.1200E+00  0.1200E+00
      3.529  0.0000E+00  0.0000E+00  0.1200E+00  0.1200E+00
      3.722  0.0000E+00  0.0000E+00  0.1200E+00  0.1200E+00
      3.915  0.0000E+00  0.0000E+00  0.1200E+00  0.1200E+00
      4.107  0.0000E+00  0.0000E+00  0.1200E+00  0.1200E+00
      4.300  0.4771E-12  0.4771E-12  0.1200E+00  0.1200E+00
      4.493  0.5149E-02  0.5149E-02  0.1210E+00  0.1210E+00
      4.685  0.2271E-04  0.2271E-04  0.1210E+00  0.1210E+00
      4.878  0.0000E+00  0.0000E+00  0.1210E+00  0.1210E+00
      5.071  0.1475E-14  0.1475E-14  0.1210E+00  0.1210E+00
      5.263  0.3994E-02  0.3994E-02  0.1218E+00  0.1218E+00
      5.456  0.1155E-01  0.1155E-01  0.1240E+00  0.1240E+00
      5.649  0.2243E-04  0.2243E-04  0.1240E+00  0.1240E+00
      5.841  0.1665E-05  0.1665E-05  0.1240E+00  0.1240E+00
      6.034  0.1055E-01  0.1055E-01  0.1260E+00  0.1260E+00
      6.227  0.1588E-01  0.1588E-01  0.1291E+00  0.1291E+00
      6.420  0.4698E-02  0.4698E-02  0.1300E+00  0.1300E+00
      6.612  0.9983E-02  0.9983E-02  0.1319E+00  0.1319E+00
      6.805  0.7992E-02  0.7992E-02  0.1335E+00  0.1335E+00
      6.998  0.1315E-01  0.1315E-01  0.1360E+00  0.1360E+00
      7.190  0.5165E-02  0.5165E-02  0.1370E+00  0.1370E+00
      7.383  0.3071E-03  0.3071E-03  0.1371E+00  0.1371E+00
      7.576  0.1318E-01  0.1318E-01  0.1396E+00  0.1396E+00
      7.768  0.1212E-01  0.1212E-01  0.1419E+00  0.1419E+00
      7.961  0.9435E-02  0.9435E-02  0.1438E+00  0.1438E+00
      8.154  0.1332E-01  0.1332E-01  0.1463E+00  0.1463E+00
      8.346  0.1631E-01  0.1631E-01  0.1495E+00  0.1495E+00
      8.539  0.1382E-01  0.1382E-01  0.1521E+00  0.1521E+00
      8.732  0.1506E-01  0.1506E-01  0.1550E+00  0.1550E+00
      8.924  0.1497E-01  0.1497E-01  0.1579E+00  0.1579E+00
      9.117  0.1886E-01  0.1886E-01  0.1616E+00  0.1616E+00
      9.310  0.2176E-01  0.2176E-01  0.1657E+00  0.1657E+00
      9.503  0.1473E-01  0.1474E-01  0.1686E+00  0.1686E+00
      9.695  0.1801E-01  0.1802E-01  0.1721E+00  0.1721E+00
      9.888  0.1550E-01  0.1528E-01  0.1750E+00  0.1750E+00
     10.081  0.4952E-02  0.5157E-02  0.1760E+00  0.1760E+00
     10.273  0.0000E+00  0.0000E+00  0.1760E+00  0.1760E+00
     10.466  0.0000E+00  0.0000E+00  0.1760E+00  0.1760E+00
     10.659  0.0000E+00  0.0000E+00  0.1760E+00  0.1760E+00
     10.851  0.0000E+00  0.0000E+00  0.1760E+00  0.1760E+00
     11.044  0.0000E+00  0.0000E+00  0.1760E+00  0.1760E+00
     11.237  0.0000E+00  0.0000E+00  0.1760E+00  0.1760E+00
     11.429  0.0000E+00  0.0000E+00  0.1760E+00  0.1760E+00
     11.622  0.0000E+00  0.0000E+00  0.1760E+00  0.1760E+00
     11.815  0.0000E+00  0.0000E+00  0.1760E+00  0.1760E+00
     12.007  0.0000E+00  0.0000E+00  0.1760E+00  0.1760E+00
     12.200  0.0000E+00  0.0000E+00  0.1760E+00  0.1760E+00
     12.393  0.0000E+00  0.0000E+00  0.1760E+00  0.1760E+00
     12.585  0.0000E+00  0.0000E+00  0.1760E+00  0.1760E+00
