 vasp.6.4.1 05Apr23 (build Jun 07 2023 15:38:11) complex                        
  
 executed on             LinuxIFC date 2023.10.16  15:22:47
 running  128 mpi-ranks, with    1 threads/rank, on    1 nodes
 distrk:  each k-point on  128 cores,    1 groups
 distr:  one band on NCORE=  32 cores,    4 groups


--------------------------------------------------------------------------------------------------------


 INCAR:
   GGA = PE
   PREC = Accu
   EDIFF = 1.e-6
   EDIFFG = -1.e-3
   ENCUT = 520.
   NELM = 100
   NELMDL = -10
   LASPH = .TRUE.
   LREAL = Auto
   LMAXMIX = 4
   ISPIN = 2
   LDIAG = .TRUE.
   LPLANE = .TRUE.
   IVDW = 12
   SIGMA = 0.03
   ISMEAR = 0
   NSW = 1000    number of steps for IOM
   IBRION = 2    ionic relax: 0-MD 1-quasi-New 2-CG
   ISIF = 2    ionic relaxation + stress tensor calcn.
   LCHARG = .FALSE.
   LWAVE = .FALSE.
   ALGO = F
   KPAR = 1
   NPAR = 4
   POTIM = 0.2

 POTCAR:    PAW_PBE Li_sv_GW 25Mar2010            
 POTCAR:    PAW_PBE P_GW 19Mar2012                
 POTCAR:    PAW_PBE S_GW 19Mar2012                
 POTCAR:    PAW_PBE Cl_GW 19Mar2012               
 -----------------------------------------------------------------------------
|                                                                             |
|           W    W    AA    RRRRR   N    N  II  N    N   GGGG   !!!           |
|           W    W   A  A   R    R  NN   N  II  NN   N  G    G  !!!           |
|           W    W  A    A  R    R  N N  N  II  N N  N  G       !!!           |
|           W WW W  AAAAAA  RRRRR   N  N N  II  N  N N  G  GGG   !            |
|           WW  WW  A    A  R   R   N   NN  II  N   NN  G    G                |
|           W    W  A    A  R    R  N    N  II  N    N   GGGG   !!!           |
|                                                                             |
|     You use a magnetic or noncollinear calculation, but did not specify     |
|     the initial magnetic moment with the MAGMOM tag. Note that a            |
|     default of 1 will be used for all atoms. This ferromagnetic setup       |
|     may break the symmetry of the crystal, in particular it may rule        |
|     out finding an antiferromagnetic solution. Thence, we recommend         |
|     setting the initial magnetic moment manually or verifying carefully     |
|     that this magnetic setup is desired.                                    |
|                                                                             |
 -----------------------------------------------------------------------------

 POTCAR:    PAW_PBE Li_sv_GW 25Mar2010            
   SHA256 =  24a6ace15a582615486b36ce4dc781b048409f4015b7684ed1273ae395fa2fdc Li_sv_GW/POTCAR       
   COPYR  = (c) Copyright 25Mar2010 Georg Kresse                                                    
   COPYR  = This file is part of the software VASP. Any use, copying, and all other rights are regul
   COPYR  = If you do not have a valid VASP license, you may not use, copy or distribute this file. 
   VRHFIN =Li: 1s2s                                                                                 
   LEXCH  = PE                                                                                      
   EATOM  =   200.9989 eV,   14.7730 Ry                                                             
                                                                                                    
   TITEL  = PAW_PBE Li_sv_GW 25Mar2010                                                              
   LULTRA =        F    use ultrasoft PP ?                                                          
   IUNSCR =        0    unscreen: 0-lin 1-nonlin 2-no                                               
   RPACOR =    0.000    partial core radius                                                         
   POMASS =    7.010; ZVAL   =    3.000    mass and valenz                                          
   RCORE  =    1.500    outmost cutoff radius                                                       
   RWIGS  =    1.600; RWIGS  =    0.847    wigner-seitz radius (au A)                               
   ENMAX  =  433.699; ENMIN  =  325.274 eV                                                          
   RCLOC  =    1.003    cutoff for local pot                                                        
   LCOR   =        T    correct aug charges                                                         
   LPAW   =        T    paw PP                                                                      
   EAUG   = 1041.699                                                                                
   RMAX   =    1.536    core radius for proj-oper                                                   
   RAUG   =    1.300    factor for augmentation sphere                                              
   RDEP   =    1.520    radius for radial grids                                                     
   RDEPT  =    1.300    core radius for aug-charge                                                  
                                                                                                    
   Atomic configuration                                                                             
    4 entries                                                                                       
     n  l   j            E        occ.                                                              
     1  0  0.50       -53.3604   2.0000                                                             
     1  0  0.50       -52.0001   0.0000                                                             
     2  1  0.50        -1.5636   1.0000                                                             
     3  2  1.50        -1.3606   0.0000                                                             
   Description                                                                                      
     l       E           TYP  RCUT    TYP  RCUT                                                     
     0    -53.3603633     23  1.200                                                                 
     0    -52.0001064     23  1.200                                                                 
     0    176.8757380     23  1.300                                                                 
     1     -1.5635925     23  1.500                                                                 
     1    108.8466080     23  1.500                                                                 
     2     81.6349560     23  1.500                                                                 
  local pseudopotential read in
  kinetic energy density of atom read in
  atomic valenz-charges read in
  non local Contribution for L=           0  read in
    real space projection operators read in
  non local Contribution for L=           0  read in
    real space projection operators read in
  non local Contribution for L=           0  read in
    real space projection operators read in
  non local Contribution for L=           1  read in
    real space projection operators read in
  non local Contribution for L=           1  read in
    real space projection operators read in
  non local Contribution for L=           2  read in
    real space projection operators read in
    PAW grid and wavefunctions read in
 
   number of l-projection  operators is LMAX  =           6
   number of lm-projection operators is LMMAX =          14
 
 POTCAR:    PAW_PBE P_GW 19Mar2012                
   SHA256 =  715c28f2291d37b61637ce89646c59f66f71c8b8d8bfba631e5feb9f7b42defe P_GW/POTCAR           
   COPYR  = (c) Copyright 19Mar2012 Georg Kresse                                                    
   COPYR  = This file is part of the software VASP. Any use, copying, and all other rights are regul
   COPYR  = If you do not have a valid VASP license, you may not use, copy or distribute this file. 
   VRHFIN =P : s2p3                                                                                 
   LEXCH  = PE                                                                                      
   EATOM  =   176.0430 eV,   12.9388 Ry                                                             
                                                                                                    
   TITEL  = PAW_PBE P_GW 19Mar2012                                                                  
   LULTRA =        F    use ultrasoft PP ?                                                          
   IUNSCR =        1    unscreen: 0-lin 1-nonlin 2-no                                               
   RPACOR =    1.400    partial core radius                                                         
   POMASS =   30.974; ZVAL   =    5.000    mass and valenz                                          
   RCORE  =    2.000    outmost cutoff radius                                                       
   RWIGS  =    1.900; RWIGS  =    1.005    wigner-seitz radius (au A)                               
   ENMAX  =  255.040; ENMIN  =  191.280 eV                                                          
   ICORE  =        3    local potential                                                             
   LCOR   =        T    correct aug charges                                                         
   LPAW   =        T    paw PP                                                                      
   EAUG   =  499.732                                                                                
   DEXC   =    0.000                                                                                
   RMAX   =    2.047    core radius for proj-oper                                                   
   RAUG   =    1.300    factor for augmentation sphere                                              
   RDEP   =    2.059    radius for radial grids                                                     
   RDEPT  =    1.900    core radius for aug-charge                                                  
                                                                                                    
   Atomic configuration                                                                             
    7 entries                                                                                       
     n  l   j            E        occ.                                                              
     1  0  0.50     -2084.0982   2.0000                                                             
     2  0  0.50      -173.9859   2.0000                                                             
     2  1  1.50      -124.4865   6.0000                                                             
     3  0  0.50       -13.9692   2.0000                                                             
     3  1  0.50        -5.5067   3.0000                                                             
     3  2  1.50        -6.8029   0.0000                                                             
     4  3  2.50        -1.3606   0.0000                                                             
   Description                                                                                      
     l       E           TYP  RCUT    TYP  RCUT                                                     
     0    -13.9691528     23  1.900                                                                 
     0    102.0436950     23  1.900                                                                 
     1     -5.5066939     23  1.900                                                                 
     1    102.0436950     23  1.900                                                                 
     2     -8.1634956     23  2.000                                                                 
     2     81.6349560     23  2.000                                                                 
     3     27.2116520     23  2.000                                                                 
  local pseudopotential read in
  partial core-charges read in
  partial kinetic energy density read in
  kinetic energy density of atom read in
  atomic valenz-charges read in
  non local Contribution for L=           0  read in
    real space projection operators read in
  non local Contribution for L=           0  read in
    real space projection operators read in
  non local Contribution for L=           1  read in
    real space projection operators read in
  non local Contribution for L=           1  read in
    real space projection operators read in
  non local Contribution for L=           2  read in
    real space projection operators read in
  non local Contribution for L=           2  read in
    real space projection operators read in
    PAW grid and wavefunctions read in
 
   number of l-projection  operators is LMAX  =           6
   number of lm-projection operators is LMMAX =          18
 
 POTCAR:    PAW_PBE S_GW 19Mar2012                
   SHA256 =  357db9cfb0783579b2eebe03197c2d807131fea8ea663b1fcfb6ce2fa75af011 S_GW/POTCAR           
   COPYR  = (c) Copyright 19Mar2012 Georg Kresse                                                    
   COPYR  = This file is part of the software VASP. Any use, copying, and all other rights are regul
   COPYR  = If you do not have a valid VASP license, you may not use, copy or distribute this file. 
   VRHFIN =S : s2p4                                                                                 
   LEXCH  = PE                                                                                      
   EATOM  =   276.8230 eV,   20.3459 Ry                                                             
                                                                                                    
   TITEL  = PAW_PBE S_GW 19Mar2012                                                                  
   LULTRA =        F    use ultrasoft PP ?                                                          
   IUNSCR =        1    unscreen: 0-lin 1-nonlin 2-no                                               
   RPACOR =    1.400    partial core radius                                                         
   POMASS =   32.066; ZVAL   =    6.000    mass and valenz                                          
   RCORE  =    1.900    outmost cutoff radius                                                       
   RWIGS  =    1.900; RWIGS  =    1.005    wigner-seitz radius (au A)                               
   ENMAX  =  258.689; ENMIN  =  194.016 eV                                                          
   ICORE  =        3    local potential                                                             
   LCOR   =        T    correct aug charges                                                         
   LPAW   =        T    paw PP                                                                      
   EAUG   =  488.319                                                                                
   DEXC   =    0.000                                                                                
   RMAX   =    1.942    core radius for proj-oper                                                   
   RAUG   =    1.300    factor for augmentation sphere                                              
   RDEP   =    1.954    radius for radial grids                                                     
   RDEPT  =    1.900    core radius for aug-charge                                                  
                                                                                                    
   Atomic configuration                                                                             
    7 entries                                                                                       
     n  l   j            E        occ.                                                              
     1  0  0.50     -2405.8406   2.0000                                                             
     2  0  0.50      -211.7007   2.0000                                                             
     2  1  1.50      -156.4958   6.0000                                                             
     3  0  0.50       -17.2562   2.0000                                                             
     3  1  0.50        -7.0085   4.0000                                                             
     3  2  1.50        -8.1635   0.0000                                                             
     4  3  2.50        -1.3606   0.0000                                                             
   Description                                                                                      
     l       E           TYP  RCUT    TYP  RCUT                                                     
     0    -17.2561639     23  1.700                                                                 
     0     88.4378690     23  1.900                                                                 
     1     -7.0085399     23  1.900                                                                 
     1     88.4378690     23  1.900                                                                 
     2    -10.8846608     23  1.900                                                                 
     2     54.4233040     23  1.900                                                                 
     3     27.2116520     23  1.800                                                                 
  local pseudopotential read in
  partial core-charges read in
  partial kinetic energy density read in
  kinetic energy density of atom read in
  atomic valenz-charges read in
  non local Contribution for L=           0  read in
    real space projection operators read in
  non local Contribution for L=           0  read in
    real space projection operators read in
  non local Contribution for L=           1  read in
    real space projection operators read in
  non local Contribution for L=           1  read in
    real space projection operators read in
  non local Contribution for L=           2  read in
    real space projection operators read in
  non local Contribution for L=           2  read in
    real space projection operators read in
    PAW grid and wavefunctions read in
 
   number of l-projection  operators is LMAX  =           6
   number of lm-projection operators is LMMAX =          18
 
 POTCAR:    PAW_PBE Cl_GW 19Mar2012               
   SHA256 =  3ef3b3169d6a9a89979f58b4cf17d927a58518fc660d8883d88cacaee8175441 Cl_GW/POTCAR          
   COPYR  = (c) Copyright 19Mar2012 Georg Kresse                                                    
   COPYR  = This file is part of the software VASP. Any use, copying, and all other rights are regul
   COPYR  = If you do not have a valid VASP license, you may not use, copy or distribute this file. 
   VRHFIN =Cl: s2p5                                                                                 
   LEXCH  = PE                                                                                      
   EATOM  =   409.7259 eV,   30.1140 Ry                                                             
                                                                                                    
   TITEL  = PAW_PBE Cl_GW 19Mar2012                                                                 
   LULTRA =        F    use ultrasoft PP ?                                                          
   IUNSCR =        1    unscreen: 0-lin 1-nonlin 2-no                                               
   RPACOR =    1.400    partial core radius                                                         
   POMASS =   35.453; ZVAL   =    7.000    mass and valenz                                          
   RCORE  =    1.900    outmost cutoff radius                                                       
   RWIGS  =    1.900; RWIGS  =    1.005    wigner-seitz radius (au A)                               
   ENMAX  =  262.472; ENMIN  =  196.854 eV                                                          
   ICORE  =        3    local potential                                                             
   LCOR   =        T    correct aug charges                                                         
   LPAW   =        T    paw PP                                                                      
   EAUG   =  456.703                                                                                
   DEXC   =    0.000                                                                                
   RMAX   =    1.945    core radius for proj-oper                                                   
   RAUG   =    1.300    factor for augmentation sphere                                              
   RDEP   =    2.020    radius for radial grids                                                     
   RDEPT  =    1.900    core radius for aug-charge                                                  
                                                                                                    
   Atomic configuration                                                                             
    7 entries                                                                                       
     n  l   j            E        occ.                                                              
     1  0  0.50     -2751.1850   2.0000                                                             
     2  0  0.50      -252.6861   2.0000                                                             
     2  1  1.50      -191.6157   6.0000                                                             
     3  0  0.50       -20.6916   2.0000                                                             
     3  1  0.50        -8.5949   5.0000                                                             
     3  2  1.50        -9.5241   0.0000                                                             
     4  3  2.50        -9.5241   0.0000                                                             
   Description                                                                                      
     l       E           TYP  RCUT    TYP  RCUT                                                     
     0    -20.6915657     23  1.700                                                                 
     0     95.2407820     23  1.800                                                                 
     1     -8.5948577     23  1.900                                                                 
     1     95.2407820     23  1.900                                                                 
     2    -10.8846608     23  1.900                                                                 
     2     54.4233040     23  1.900                                                                 
     3     27.2116520     23  1.900                                                                 
  local pseudopotential read in
  partial core-charges read in
  partial kinetic energy density read in
  kinetic energy density of atom read in
  atomic valenz-charges read in
  non local Contribution for L=           0  read in
    real space projection operators read in
  non local Contribution for L=           0  read in
    real space projection operators read in
  non local Contribution for L=           1  read in
    real space projection operators read in
  non local Contribution for L=           1  read in
    real space projection operators read in
  non local Contribution for L=           2  read in
    real space projection operators read in
  non local Contribution for L=           2  read in
    real space projection operators read in
    PAW grid and wavefunctions read in
 
   number of l-projection  operators is LMAX  =           6
   number of lm-projection operators is LMMAX =          18
 
 Optimization of the real space projectors (new method)

 maximal supplied QI-value         = 25.13
 optimisation between [QCUT,QGAM] = [ 11.56, 23.12] = [ 37.43,149.72] Ry 
 Optimized for a Real-space Cutoff    1.28 Angstroem

   l    n(q)    QCUT    max X(q) W(low)/X(q) W(high)/X(q)  e(spline) 
   0      9    11.561    87.733    0.11E-03    0.32E-04    0.56E-06
   0      9    11.561    82.800    0.11E-03    0.35E-04    0.56E-06
   0      9    11.561     2.509    0.22E-03    0.42E-04    0.79E-06
   1      8    11.561    12.580    0.94E-04    0.26E-03    0.21E-06
   1      8    11.561     1.319    0.33E-04    0.15E-03    0.19E-06
   2      8    11.561     1.993    0.36E-04    0.89E-04    0.26E-06
 Optimization of the real space projectors (new method)

 maximal supplied QI-value         = 18.90
 optimisation between [QCUT,QGAM] = [ 11.53, 23.24] = [ 37.21,151.29] Ry 
 Optimized for a Real-space Cutoff    1.21 Angstroem

   l    n(q)    QCUT    max X(q) W(low)/X(q) W(high)/X(q)  e(spline) 
   0      8    11.527     8.355    0.73E-04    0.70E-04    0.26E-07
   0      8    11.527     1.401    0.17E-03    0.17E-03    0.63E-07
   1      8    11.527     4.747    0.13E-03    0.17E-03    0.11E-06
   1      8    11.527     2.025    0.16E-03    0.18E-03    0.12E-06
   2      7    11.527     3.169    0.51E-04    0.25E-03    0.60E-07
   2      7    11.527     3.441    0.82E-04    0.22E-03    0.14E-06
 Optimization of the real space projectors (new method)

 maximal supplied QI-value         = 19.84
 optimisation between [QCUT,QGAM] = [ 11.51, 23.22] = [ 37.09,150.92] Ry 
 Optimized for a Real-space Cutoff    1.49 Angstroem

   l    n(q)    QCUT    max X(q) W(low)/X(q) W(high)/X(q)  e(spline) 
   0     10    11.508     7.541    0.34E-04    0.13E-04    0.69E-07
   0     10    11.508     1.809    0.49E-04    0.27E-04    0.14E-06
   1     10    11.508     4.107    0.27E-05    0.41E-05    0.14E-06
   1     10    11.508     2.196    0.26E-05    0.25E-05    0.22E-06
   2      9    11.508     4.265    0.18E-03    0.11E-03    0.81E-06
   2      9    11.508     1.925    0.97E-04    0.76E-04    0.47E-06
 Optimization of the real space projectors (new method)

 maximal supplied QI-value         = 19.84
 optimisation between [QCUT,QGAM] = [ 11.51, 23.22] = [ 37.09,150.92] Ry 
 Optimized for a Real-space Cutoff    1.21 Angstroem

   l    n(q)    QCUT    max X(q) W(low)/X(q) W(high)/X(q)  e(spline) 
   0      8    11.508     6.761    0.57E-04    0.57E-04    0.35E-07
   0      8    11.508     1.642    0.14E-03    0.14E-03    0.91E-07
   1      8    11.508     3.519    0.20E-04    0.72E-04    0.47E-07
   1      8    11.508     2.150    0.27E-04    0.11E-03    0.89E-07
   2      7    11.508     2.976    0.19E-03    0.33E-03    0.16E-06
   2      7    11.508     1.494    0.14E-03    0.29E-03    0.14E-06
  PAW_PBE Li_sv_GW 25Mar2010            :
 energy of atom  1       EATOM= -200.9989
 kinetic energy error for atom=    0.0127 (will be added to EATOM!!)
  PAW_PBE P_GW 19Mar2012                :
 energy of atom  2       EATOM= -176.0430
 kinetic energy error for atom=    0.0011 (will be added to EATOM!!)
  PAW_PBE S_GW 19Mar2012                :
 energy of atom  3       EATOM= -276.8230
 kinetic energy error for atom=    0.0024 (will be added to EATOM!!)
  PAW_PBE Cl_GW 19Mar2012               :
 energy of atom  4       EATOM= -409.7259
 kinetic energy error for atom=    0.0030 (will be added to EATOM!!)
 
 
 POSCAR: Li24 P4 S20 Cl4
  positions in direct lattice
  velocities in cartesian coordinates
 exchange correlation table for  LEXCH =        8
   RHO(1)=    0.500       N(1)  =     2000
   RHO(2)=  100.500       N(2)  =     4000

 VTST: version 4.1, (05/19/21)

 CHAIN: initializing optimizer
 
 OPT: Using VASP Conjugate-Gradient optimizer
 CHAIN: Read ICHAIN            0
 
 POSCAR: Li24 P4 S20 Cl4
  positions in direct lattice
  velocities in cartesian coordinates
 


--------------------------------------------------------------------------------------------------------


 ion  position               nearest neighbor table
   1  0.966  0.328  0.330-
   2  0.991  0.787  0.808-
   3  0.028  0.201  0.821-
   4  0.021  0.700  0.283-
   5  0.313  0.325  0.967-
   6  0.313  0.695  0.014-
   7  0.676  0.314  0.024-
   8  0.666  0.689  0.956-
   9  0.171  0.967  0.169-
  10  0.218  0.010  0.810-
  11  0.801  0.978  0.790-
  12  0.824  0.045  0.163-
  13  0.221  0.698  0.476-
  14  0.290  0.158  0.526-
  15  0.810  0.714  0.512-
  16  0.707  0.184  0.475-
  17  0.186  0.452  0.665-
  18  0.314  0.520  0.220-
  19  0.699  0.493  0.227-
  20  0.830  0.520  0.698-
  21  0.486  0.211  0.710-
  22  0.464  0.843  0.314-
  23  0.512  0.201  0.286-
  24  0.543  0.815  0.658-
  25  0.501  0.501  0.514-  42 2.04  43 2.04  44 2.06  41 2.06
  26  0.506  0.997  0.998-  38 2.04  40 2.05  39 2.05  37 2.05
  27  1.000  0.497  0.003-  36 2.05  34 2.05  33 2.05  35 2.06
  28  0.006  0.005  0.491-  30 2.05  31 2.05  32 2.05  29 2.06
  29  0.131  0.882  0.612-  28 2.06
  30  0.118  0.126  0.359-  28 2.05
  31  0.878  0.892  0.365-  28 2.05
  32  0.894  0.132  0.620-  28 2.05
  33  0.872  0.631  0.106-  27 2.05
  34  0.873  0.373  0.886-  27 2.05
  35  0.132  0.599  0.871-  27 2.06
  36  0.120  0.380  0.132-  27 2.05
  37  0.631  0.124  0.882-  26 2.05
  38  0.628  0.882  0.126-  26 2.04
  39  0.368  0.115  0.107-  26 2.05
  40  0.404  0.865  0.866-  26 2.05
  41  0.605  0.642  0.391-  25 2.06
  42  0.639  0.381  0.620-  25 2.04
  43  0.381  0.615  0.645-  25 2.04
  44  0.371  0.374  0.402-  25 2.06
  45  0.763  0.749  0.742-
  46  0.744  0.259  0.249-
  47  0.251  0.750  0.243-
  48  0.254  0.238  0.751-
  49  0.008  0.992  0.965-
  50  0.001  0.533  0.492-
  51  0.505  0.028  0.497-
  52  0.496  0.499  0.035-
 
  LATTYP: Found a simple cubic cell.
 ALAT       =     9.6593030851
  
  Lattice vectors:
  
 A1 = (   9.6593030851,   0.0000000000,   0.0000000000)
 A2 = (   0.0000000000,   9.6593030851,   0.0000000000)
 A3 = (   0.0000000000,   0.0000000000,   9.6593030851)


Analysis of symmetry for initial positions (statically):
=====================================================================
 Subroutine PRICEL returns:
 Original cell was already a primitive cell.
 

 Routine SETGRP: Setting up the symmetry group for a 
 simple cubic supercell.


 Subroutine GETGRP returns: Found  1 space group operations
 (whereof  1 operations were pure point group operations)
 out of a pool of 48 trial point group operations.


The static configuration has the point symmetry C_1 .


Analysis of symmetry for dynamics (positions and initial velocities):
=====================================================================
 Subroutine PRICEL returns:
 Original cell was already a primitive cell.
 

 Routine SETGRP: Setting up the symmetry group for a 
 simple cubic supercell.


 Subroutine GETGRP returns: Found  1 space group operations
 (whereof  1 operations were pure point group operations)
 out of a pool of 48 trial point group operations.


The dynamic configuration has the point symmetry C_1 .


Analysis of structural, dynamic, and magnetic symmetry:
=====================================================================
 Subroutine PRICEL returns:
 Original cell was already a primitive cell.
 

 Routine SETGRP: Setting up the symmetry group for a 
 simple cubic supercell.


 Subroutine GETGRP returns: Found  1 space group operations
 (whereof  1 operations were pure point group operations)
 out of a pool of 48 trial point group operations.


The overall configuration has the point symmetry C_1 .


 Subroutine INISYM returns: Found  1 space group operations
 (whereof  1 operations are pure point group operations),
 and found     1 'primitive' translations


----------------------------------------------------------------------------------------

                                     Primitive cell                                     

  volume of cell :     901.2336

  direct lattice vectors                    reciprocal lattice vectors
     9.659303085  0.000000000  0.000000000     0.103527138  0.000000000  0.000000000
     0.000000000  9.659303085  0.000000000     0.000000000  0.103527138  0.000000000
     0.000000000  0.000000000  9.659303085     0.000000000  0.000000000  0.103527138

  length of vectors
     9.659303085  9.659303085  9.659303085     0.103527138  0.103527138  0.103527138

  position of ions in fractional coordinates (direct lattice)
     0.966045363  0.328335711  0.330481301
     0.991298872  0.786643465  0.808329893
     0.028461990  0.200968154  0.820906836
     0.020873939  0.699938737  0.282615189
     0.312766762  0.324507815  0.967153079
     0.313491874  0.694802777  0.013837580
     0.675925210  0.313729465  0.023865349
     0.665868263  0.688619297  0.956102970
     0.171049266  0.966833880  0.169074966
     0.218407514  0.010042841  0.810443177
     0.800755564  0.978353599  0.790343131
     0.823626769  0.045209113  0.162834396
     0.220663267  0.697525225  0.475946334
     0.289777047  0.157541889  0.525827983
     0.810010223  0.714112385  0.512244870
     0.707233010  0.184179774  0.474826202
     0.186091511  0.452074746  0.665372452
     0.313697034  0.519674991  0.219645714
     0.699304167  0.493009450  0.227104720
     0.830421443  0.519890527  0.697908049
     0.486476884  0.210518640  0.709982639
     0.463780341  0.843225717  0.314055651
     0.512271382  0.200942403  0.286090473
     0.543430961  0.815197372  0.657511938
     0.501345077  0.500585863  0.513517269
     0.506197137  0.996789216  0.997827996
     0.999717928  0.496913476  0.002538581
     0.005646823  0.004501508  0.491371661
     0.131471903  0.881810783  0.611811306
     0.117833272  0.126120210  0.358600765
     0.877552512  0.891640738  0.364654731
     0.893924672  0.132238195  0.619551932
     0.871699338  0.631404776  0.106354238
     0.872906126  0.372965696  0.885738255
     0.132133895  0.599195313  0.870543872
     0.119740744  0.379916527  0.132108224
     0.630971080  0.123852516  0.881728583
     0.628443841  0.881706975  0.126088927
     0.367782323  0.115181993  0.107401228
     0.404297225  0.865263848  0.865546478
     0.604762353  0.641735614  0.390702028
     0.639290529  0.380564403  0.619877839
     0.381333762  0.615109446  0.644823907
     0.370818902  0.373570902  0.402202785
     0.762602039  0.748819036  0.742354531
     0.743613908  0.259165783  0.249136903
     0.251390390  0.750279135  0.242517623
     0.254313512  0.237967569  0.750543232
     0.007520642  0.991976619  0.964785920
     0.000784122  0.533259929  0.491793399
     0.504746643  0.027587135  0.497230843
     0.496238754  0.498823373  0.034663376

  ion indices of the primitive-cell ions
   primitive index   ion index
                 1           1
                 2           2
                 3           3
                 4           4
                 5           5
                 6           6
                 7           7
                 8           8
                 9           9
                10          10
                11          11
                12          12
                13          13
                14          14
                15          15
                16          16
                17          17
                18          18
                19          19
                20          20
                21          21
                22          22
                23          23
                24          24
                25          25
                26          26
                27          27
                28          28
                29          29
                30          30
                31          31
                32          32
                33          33
                34          34
                35          35
                36          36
                37          37
                38          38
                39          39
                40          40
                41          41
                42          42
                43          43
                44          44
                45          45
                46          46
                47          47
                48          48
                49          49
                50          50
                51          51
                52          52

----------------------------------------------------------------------------------------

 
 
 KPOINTS: Automatic mesh                          

Automatic generation of k-mesh.
 Grid dimensions read from file:
 generate k-points for:    2    2    2

 Generating k-lattice:

  Cartesian coordinates                     Fractional coordinates (reciprocal lattice)
     0.051763569  0.000000000  0.000000000     0.500000000  0.000000000  0.000000000
     0.000000000  0.051763569  0.000000000     0.000000000  0.500000000  0.000000000
     0.000000000  0.000000000  0.051763569     0.000000000  0.000000000  0.500000000

  Length of vectors
     0.051763569  0.051763569  0.051763569

  Shift w.r.t. Gamma in fractional coordinates (k-lattice)
     0.500000000  0.500000000  0.500000000

 
 Subroutine IBZKPT returns following result:
 ===========================================
 
 Found      4 irreducible k-points:
 
 Following reciprocal coordinates:
            Coordinates               Weight
  0.250000  0.250000  0.250000      2.000000
 -0.250000  0.250000  0.250000      2.000000
 -0.250000 -0.250000  0.250000      2.000000
  0.250000 -0.250000  0.250000      2.000000
 
 Following cartesian coordinates:
            Coordinates               Weight
  0.025882  0.025882  0.025882      2.000000
 -0.025882  0.025882  0.025882      2.000000
 -0.025882 -0.025882  0.025882      2.000000
  0.025882 -0.025882  0.025882      2.000000
 


--------------------------------------------------------------------------------------------------------




 Dimension of arrays:
   k-points           NKPTS =      4   k-points in BZ     NKDIM =      4   number of bands    NBANDS=    176
   number of dos      NEDOS =    301   number of ions     NIONS =     52
   non local maximal  LDIM  =      6   non local SUM 2l+1 LMDIM =     18
   total plane-waves  NPLWV = 373248
   max r-space proj   IRMAX =   5778   max aug-charges    IRDMAX=  17677
   dimension x,y,z NGX =    72 NGY =   72 NGZ =   72
   dimension x,y,z NGXF=   144 NGYF=  144 NGZF=  144
   support grid    NGXF=   144 NGYF=  144 NGZF=  144
   ions per type =              24   4  20   4
   NGX,Y,Z   is equivalent  to a cutoff of  12.39, 12.39, 12.39 a.u.
   NGXF,Y,Z  is equivalent  to a cutoff of  24.78, 24.78, 24.78 a.u.

 SYSTEM =  unknown system                          
 POSCAR =  Li24 P4 S20 Cl4                         

 Startparameter for this run:
   NWRITE =      2    write-flag & timer
   PREC   = accu      normal or accurate (medium, high low for compatibility)
   ISTART =      0    job   : 0-new  1-cont  2-samecut
   ICHARG =      2    charge: 1-file 2-atom 10-const
   ISPIN  =      2    spin polarized calculation?
   LNONCOLLINEAR =      F non collinear calculations
   LSORBIT =      F    spin-orbit coupling
   INIWAV =      1    electr: 0-lowe 1-rand  2-diag
   LASPH  =      T    aspherical Exc in radial PAW
 Electronic Relaxation 1
   ENCUT  =  520.0 eV  38.22 Ry    6.18 a.u.  17.96 17.96 17.96*2*pi/ulx,y,z
   ENINI  =  520.0     initial cutoff
   ENAUG  = 1041.7 eV  augmentation charge cutoff
   NELM   =    100;   NELMIN=  2; NELMDL=-10     # of ELM steps 
   EDIFF  = 0.1E-05   stopping-criterion for ELM
   LREAL  =      T    real-space projection
   NLSPLINE    = F    spline interpolate recip. space projectors
   LCOMPAT=      F    compatible to vasp.4.4
   GGA_COMPAT  = T    GGA compatible to vasp.4.4-vasp.4.6
   LMAXPAW     = -100 max onsite density
   LMAXMIX     =    4 max onsite mixed and CHGCAR
   VOSKOWN=      0    Vosko Wilk Nusair interpolation
   ROPT   =   -0.00025  -0.00025  -0.00025  -0.00025
 Ionic relaxation
   EDIFFG = -.1E-02   stopping-criterion for IOM
   NSW    =   1000    number of steps for IOM
   NBLOCK =      1;   KBLOCK =   1000    inner block; outer block 
   IBRION =      2    ionic relax: 0-MD 1-quasi-New 2-CG
   NFREE  =      1    steps in history (QN), initial steepest desc. (CG)
   ISIF   =      2    stress and relaxation
   IWAVPR =     11    prediction:  0-non 1-charg 2-wave 3-comb
   ISYM   =      2    0-nonsym 1-usesym 2-fastsym
   LCORR  =      T    Harris-Foulkes like correction to forces

   POTIM  = 0.2000    time-step for ionic-motion
   TEIN   =    0.0    initial temperature
   TEBEG  =    0.0;   TEEND  =   0.0 temperature during run
   SMASS  =  -3.00    Nose mass-parameter (am)
   estimated Nose-frequenzy (Omega)   =  0.10E-29 period in steps = 0.31E+47 mass=  -0.213E-26a.u.
   SCALEE = 1.0000    scale energy and forces
   NPACO  =    256;   APACO  = 10.0  distance and # of slots for P.C.
   PSTRESS=    0.0 pullay stress

  Mass of Ions in am
   POMASS =   7.01 30.97 32.07 35.45
  Ionic Valenz
   ZVAL   =   3.00  5.00  6.00  7.00
  Atomic Wigner-Seitz radii
   RWIGS  =  -1.00 -1.00 -1.00 -1.00
  virtual crystal weights 
   VCA    =   1.00  1.00  1.00  1.00
   NELECT =     240.0000    total number of electrons
   NUPDOWN=      -1.0000    fix difference up-down

 DOS related values:
   EMIN   =  10.00;   EMAX   =-10.00  energy-range for DOS
   EFERMI =   0.00;   METHOD = LEGACY      
   ISMEAR =     0;   SIGMA  =   0.03  broadening in eV -4-tet -1-fermi 0-gaus

 Electronic relaxation 2 (details)
   IALGO  =     68    algorithm
   LDIAG  =      T    sub-space diagonalisation (order eigenvalues)
   LSUBROT=      F    optimize rotation matrix (better conditioning)
   TURBO    =      0    0=normal 1=particle mesh
   IRESTART =      0    0=no restart 2=restart with 2 vectors
   NREBOOT  =      0    no. of reboots
   NMIN     =      0    reboot dimension
   EREF     =   0.00    reference energy to select bands
   IMIX   =      4    mixing-type and parameters
     AMIX     =   0.40;   BMIX     =  1.00
     AMIX_MAG =   1.60;   BMIX_MAG =  1.00
     AMIN     =   0.10
     WC   =   100.;   INIMIX=   1;  MIXPRE=   1;  MAXMIX= -45

 Intra band minimization:
   WEIMIN = 0.0010     energy-eigenvalue tresh-hold
   EBREAK =  0.14E-08  absolut break condition
   DEPER  =   0.30     relativ break condition  

   TIME   =   0.40     timestep for ELM

  volume/ion in A,a.u.               =      17.33       116.96
  Fermi-wavevector in a.u.,A,eV,Ry     =   1.053253  1.990360 15.093518  1.109342
  Thomas-Fermi vector in A             =   2.188368
 
 Write flags
   LWAVE        =      F    write WAVECAR
   LDOWNSAMPLE  =      F    k-point downsampling of WAVECAR
   LCHARG       =      F    write CHGCAR
   LVTOT        =      F    write LOCPOT, total local potential
   LVHAR        =      F    write LOCPOT, Hartree potential only
   LELF         =      F    write electronic localiz. function (ELF)
   LORBIT       =      0    0 simple, 1 ext, 2 COOP (PROOUT), +10 PAW based schemes


 Dipole corrections
   LMONO  =      F    monopole corrections only (constant potential shift)
   LDIPOL =      F    correct potential (dipole corrections)
   IDIPOL =      0    1-x, 2-y, 3-z, 4-all directions 
   EPSILON=  1.0000000 bulk dielectric constant

 Exchange correlation treatment:
   GGA     =    PE    GGA type
   LEXCH   =     8    internal setting for exchange type
   LIBXC   =     F    Libxc                    
   VOSKOWN =     0    Vosko Wilk Nusair interpolation
   LHFCALC =     F    Hartree Fock is set to
   LHFONE  =     F    Hartree Fock one center treatment
   AEXX    =    0.0000 exact exchange contribution

 Linear response parameters
   LEPSILON=     F    determine dielectric tensor
   LRPA    =     F    only Hartree local field effects (RPA)
   LNABLA  =     F    use nabla operator in PAW spheres
   LVEL    =     F    velocity operator in full k-point grid
   CSHIFT  =0.1000    complex shift for real part using Kramers Kronig
   OMEGAMAX=  -1.0    maximum frequency
   DEG_THRESHOLD= 0.2000000E-02 threshold for treating states as degnerate
   RTIME   =   -0.100 relaxation time in fs
  (WPLASMAI=    0.000 imaginary part of plasma frequency in eV, 0.658/RTIME)
   DFIELD  = 0.0000000 0.0000000 0.0000000 field for delta impulse in time
 
  Optional k-point grid parameters
   LKPOINTS_OPT  =     F    use optional k-point grid
   KPOINTS_OPT_MODE=     1    mode for optional k-point grid
 
 Orbital magnetization related:
   ORBITALMAG=     F  switch on orbital magnetization
   LCHIMAG   =     F  perturbation theory with respect to B field
   DQ        =  0.001000  dq finite difference perturbation B field
   LLRAUG    =     F  two centre corrections for induced B field
   LBONE     =     F  B-component reconstruction in AE one-centre
   LVGVCALC  =     T  calculate vGv susceptibility
   LVGVAPPL  =     F  apply vGv susceptibility instead of pGv for G=0

 Random number generation:
   RANDOM_GENERATOR = DEFAULT
   PCG_SEED         = not used


--------------------------------------------------------------------------------------------------------


 conjugate gradient relaxation of ions
 charge density and potential will be updated during run
 spin polarized calculation
 RMM-DIIS sequential band-by-band and
  variant of blocked Davidson during initial phase
 perform sub-space diagonalisation
    before iterative eigenvector-optimisation
 modified Broyden-mixing scheme, WC =      100.0
 initial mixing is a Kerker type mixing with AMIX =  0.4000 and BMIX =      1.0000
 Hartree-type preconditioning will be used
 using additional bands           56
 real space projection scheme for non local part
 use partial core corrections
 calculate Harris-corrections to forces 
   (improved forces if not selfconsistent)
 use gradient corrections 
 use of overlap-Matrix (Vanderbilt PP)
 Gauss-broadening in eV      SIGMA  =   0.03


--------------------------------------------------------------------------------------------------------


  energy-cutoff  :      520.00
  volume of cell :      901.23
      direct lattice vectors                 reciprocal lattice vectors
     9.659303085  0.000000000  0.000000000     0.103527138  0.000000000  0.000000000
     0.000000000  9.659303085  0.000000000     0.000000000  0.103527138  0.000000000
     0.000000000  0.000000000  9.659303085     0.000000000  0.000000000  0.103527138

  length of vectors
     9.659303085  9.659303085  9.659303085     0.103527138  0.103527138  0.103527138


 
 k-points in units of 2pi/SCALE and weight: Automatic mesh                          
   0.02588178  0.02588178  0.02588178       0.250
  -0.02588178  0.02588178  0.02588178       0.250
  -0.02588178 -0.02588178  0.02588178       0.250
   0.02588178 -0.02588178  0.02588178       0.250
 
 k-points in reciprocal lattice and weights: Automatic mesh                          
   0.25000000  0.25000000  0.25000000       0.250
  -0.25000000  0.25000000  0.25000000       0.250
  -0.25000000 -0.25000000  0.25000000       0.250
   0.25000000 -0.25000000  0.25000000       0.250
 
 position of ions in fractional coordinates (direct lattice) 
   0.96604536  0.32833571  0.33048130
   0.99129887  0.78664347  0.80832989
   0.02846199  0.20096815  0.82090684
   0.02087394  0.69993874  0.28261519
   0.31276676  0.32450781  0.96715308
   0.31349187  0.69480278  0.01383758
   0.67592521  0.31372947  0.02386535
   0.66586826  0.68861930  0.95610297
   0.17104927  0.96683388  0.16907497
   0.21840751  0.01004284  0.81044318
   0.80075556  0.97835360  0.79034313
   0.82362677  0.04520911  0.16283440
   0.22066327  0.69752523  0.47594633
   0.28977705  0.15754189  0.52582798
   0.81001022  0.71411238  0.51224487
   0.70723301  0.18417977  0.47482620
   0.18609151  0.45207475  0.66537245
   0.31369703  0.51967499  0.21964571
   0.69930417  0.49300945  0.22710472
   0.83042144  0.51989053  0.69790805
   0.48647688  0.21051864  0.70998264
   0.46378034  0.84322572  0.31405565
   0.51227138  0.20094240  0.28609047
   0.54343096  0.81519737  0.65751194
   0.50134508  0.50058586  0.51351727
   0.50619714  0.99678922  0.99782800
   0.99971793  0.49691348  0.00253858
   0.00564682  0.00450151  0.49137166
   0.13147190  0.88181078  0.61181131
   0.11783327  0.12612021  0.35860077
   0.87755251  0.89164074  0.36465473
   0.89392467  0.13223819  0.61955193
   0.87169934  0.63140478  0.10635424
   0.87290613  0.37296570  0.88573825
   0.13213390  0.59919531  0.87054387
   0.11974074  0.37991653  0.13210822
   0.63097108  0.12385252  0.88172858
   0.62844384  0.88170697  0.12608893
   0.36778232  0.11518199  0.10740123
   0.40429723  0.86526385  0.86554648
   0.60476235  0.64173561  0.39070203
   0.63929053  0.38056440  0.61987784
   0.38133376  0.61510945  0.64482391
   0.37081890  0.37357090  0.40220278
   0.76260204  0.74881904  0.74235453
   0.74361391  0.25916578  0.24913690
   0.25139039  0.75027913  0.24251762
   0.25431351  0.23796757  0.75054323
   0.00752064  0.99197662  0.96478592
   0.00078412  0.53325993  0.49179340
   0.50474664  0.02758714  0.49723084
   0.49623875  0.49882337  0.03466338
 
 position of ions in cartesian coordinates  (Angst):
   9.33132495  3.17149414  3.19221905
   9.57525625  7.59842765  7.80790342
   0.27492299  1.94121231  7.92938793
   0.20162771  6.76092040  2.72986576
   3.02110895  3.13451934  9.34202472
   3.02811303  6.71131061  0.13366138
   6.52896646  3.03040799  0.23052264
   6.43182337  6.65158250  9.23528837
   1.65221670  9.33894148  1.63314634
   2.10966437  0.09700684  7.82831628
   7.73474069  9.45021393  7.63416385
   7.95566059  0.43668853  1.57286678
   2.13145337  6.73760756  4.59730989
   2.79904432  1.52174485  5.07913185
   7.82413424  6.89782796  4.94792846
   6.83137799  1.77904826  4.58649019
   1.79751430  4.36672699  6.42703418
   3.03009473  5.01969824  2.12162452
   6.75479090  4.76212771  2.19367332
   8.02129241  5.02178017  6.74130537
   4.69902766  2.03346335  6.85793749
   4.47979488  8.14497277  3.03355872
   4.94818454  1.94096357  2.76343459
   5.24916436  7.87423849  6.35110709
   4.84264404  4.83531057  4.96021894
   4.88951157  9.62828915  9.63832304
   9.65657847  4.79983788  0.02452093
   0.05454437  0.04348143  4.74630780
   1.26992696  8.51767762  5.90967083
   1.13818728  1.21823333  3.46383348
   8.47654569  8.61262814  3.52231057
   8.63468935  1.27732880  5.98443988
   8.42000810  6.09893010  1.02730782
   8.43166484  3.60258869  8.55561426
   1.27632134  5.78780914  8.40884710
   1.15661214  3.66972888  1.27607338
   6.09474090  1.19632899  8.51688363
   6.07032953  8.51667490  1.21793116
   3.55252092  1.11257778  1.03742101
   3.90522943  8.35784576  8.36057577
   5.84158286  6.19871880  3.77390930
   6.17510098  3.67598691  5.98758793
   3.68341838  5.94152856  6.22854955
   3.58185216  3.60843457  3.88499860
   7.36620423  7.23307003  7.17062742
   7.18279211  2.50336085  2.40648886
   2.42825597  7.24717356  2.34255123
   2.45649129  2.29860087  7.24972456
   0.07264416  9.58180282  9.31915961
   0.00757407  5.15091928  4.75038150
   4.87550081  0.26647250  4.80290342
   4.79332052  4.81828615  0.33482406
 


--------------------------------------------------------------------------------------------------------


 k-point   1 :   0.2500 0.2500 0.2500  plane waves:   24252
 k-point   2 :  -0.2500 0.2500 0.2500  plane waves:   24252
 k-point   3 :  -0.2500-0.2500 0.2500  plane waves:   24252
 k-point   4 :   0.2500-0.2500 0.2500  plane waves:   24252

 maximum and minimum number of plane-waves per node :       778      744

 maximum number of plane-waves:     24252
 maximum index in each direction: 
   IXMAX=   18   IYMAX=   18   IZMAX=   17
   IXMIN=  -18   IYMIN=  -18   IZMIN=  -18


 real space projection operators:
  total allocation   :      28362.38 KBytes
  max/ min on nodes  :       1186.39        750.09


 parallel 3D FFT for wavefunctions:
    minimum data exchange during FFTs selected (reduces bandwidth)
 parallel 3D FFT for charge:
    minimum data exchange during FFTs selected (reduces bandwidth)


 total amount of memory used by VASP MPI-rank0    48202. kBytes
=======================================================================

   base      :      30000. kBytes
   nonlr-proj:       6542. kBytes
   fftplans  :       1747. kBytes
   grid      :       5278. kBytes
   one-center:         62. kBytes
   wavefun   :       4573. kBytes
 
     INWAV:  cpu time      0.0000: real time      0.0000
 Broyden mixing: mesh for mixing (old mesh)
   NGX = 35   NGY = 35   NGZ = 35
  (NGX  =144   NGY  =144   NGZ  =144)
  gives a total of  42875 points

 initial charge density was supplied:
 charge density of overlapping atoms calculated
 number of electron     240.0000000 magnetization      52.0000000
 keeping initial charge density in first step


--------------------------------------------------------------------------------------------------------


 Maximum index for non-local projection operator          582
 Maximum index for augmentation-charges          800 (set IRDMAX)


--------------------------------------------------------------------------------------------------------


 First call to EWALD:  gamma=   0.183
 Maximum number of real-space cells 3x 3x 3
 Maximum number of reciprocal cells 3x 3x 3

    FEWALD:  cpu time      0.0030: real time      0.0034


--------------------------------------- Ionic step        1  -------------------------------------------




--------------------------------------- Iteration      1(   1)  ---------------------------------------


    POTLOK:  cpu time      0.0594: real time      0.0675
    SETDIJ:  cpu time      0.4049: real time      0.4132
     EDDAV:  cpu time      2.2590: real time      2.2881
       DOS:  cpu time      0.0021: real time      0.0033
    --------------------------------------------
      LOOP:  cpu time      2.7254: real time      2.7722

 eigenvalue-minimisations  :  3112
 total energy-change (2. order) : 0.1584404E+04  (-0.1137236E+05)
 number of electron     240.0000000 magnetization      52.0000000
 augmentation part      240.0000000 magnetization      52.0000000

 Free energy of the ion-electron system (eV)
  ---------------------------------------------------
  alpha Z        PSCENC =       301.20659102
  Ewald energy   TEWEN  =     -8828.01810528
  -Hartree energ DENC   =     -2102.17235818
  -exchange      EXHF   =         0.00000000
  -V(xc)+E(xc)   XCENC  =       534.26883483
  PAW double counting   =      8141.38806575    -8271.61346273
  entropy T*S    EENTRO =        -0.00216092
  eigenvalues    EBANDS =      -893.79337590
  atomic energy  EATOM  =     12703.13999606
  Solvation  Ediel_sol  =         0.00000000
  ---------------------------------------------------
  free energy    TOTEN  =      1584.40402465 eV

  energy without entropy =     1584.40618557  energy(sigma->0) =     1584.40510511


--------------------------------------------------------------------------------------------------------




--------------------------------------- Iteration      1(   2)  ---------------------------------------


     EDDAV:  cpu time      2.6302: real time      2.6548
       DOS:  cpu time      0.0004: real time      0.0004
    --------------------------------------------
      LOOP:  cpu time      2.6306: real time      2.6552

 eigenvalue-minimisations  :  3856
 total energy-change (2. order) :-0.1639878E+04  (-0.1541346E+04)
 number of electron     240.0000000 magnetization      52.0000000
 augmentation part      240.0000000 magnetization      52.0000000

 Free energy of the ion-electron system (eV)
  ---------------------------------------------------
  alpha Z        PSCENC =       301.20659102
  Ewald energy   TEWEN  =     -8828.01810528
  -Hartree energ DENC   =     -2102.17235818
  -exchange      EXHF   =         0.00000000
  -V(xc)+E(xc)   XCENC  =       534.26883483
  PAW double counting   =      8141.38806575    -8271.61346273
  entropy T*S    EENTRO =        -0.00000000
  eigenvalues    EBANDS =     -2533.67355925
  atomic energy  EATOM  =     12703.13999606
  Solvation  Ediel_sol  =         0.00000000
  ---------------------------------------------------
  free energy    TOTEN  =       -55.47399778 eV

  energy without entropy =      -55.47399778  energy(sigma->0) =      -55.47399778


--------------------------------------------------------------------------------------------------------




--------------------------------------- Iteration      1(   3)  ---------------------------------------


     EDDAV:  cpu time      2.7089: real time      2.7328
       DOS:  cpu time      0.0004: real time      0.0004
    --------------------------------------------
      LOOP:  cpu time      2.7093: real time      2.7332

 eigenvalue-minimisations  :  3760
 total energy-change (2. order) :-0.1727708E+03  (-0.1707139E+03)
 number of electron     240.0000000 magnetization      52.0000000
 augmentation part      240.0000000 magnetization      52.0000000

 Free energy of the ion-electron system (eV)
  ---------------------------------------------------
  alpha Z        PSCENC =       301.20659102
  Ewald energy   TEWEN  =     -8828.01810528
  -Hartree energ DENC   =     -2102.17235818
  -exchange      EXHF   =         0.00000000
  -V(xc)+E(xc)   XCENC  =       534.26883483
  PAW double counting   =      8141.38806575    -8271.61346273
  entropy T*S    EENTRO =        -0.00000000
  eigenvalues    EBANDS =     -2706.44431424
  atomic energy  EATOM  =     12703.13999606
  Solvation  Ediel_sol  =         0.00000000
  ---------------------------------------------------
  free energy    TOTEN  =      -228.24475276 eV

  energy without entropy =     -228.24475276  energy(sigma->0) =     -228.24475276


--------------------------------------------------------------------------------------------------------




--------------------------------------- Iteration      1(   4)  ---------------------------------------


     EDDAV:  cpu time      3.1629: real time      3.1944
       DOS:  cpu time      0.0004: real time      0.0004
    --------------------------------------------
      LOOP:  cpu time      3.1632: real time      3.1947

 eigenvalue-minimisations  :  4776
 total energy-change (2. order) :-0.1365782E+02  (-0.1363372E+02)
 number of electron     240.0000000 magnetization      52.0000000
 augmentation part      240.0000000 magnetization      52.0000000

 Free energy of the ion-electron system (eV)
  ---------------------------------------------------
  alpha Z        PSCENC =       301.20659102
  Ewald energy   TEWEN  =     -8828.01810528
  -Hartree energ DENC   =     -2102.17235818
  -exchange      EXHF   =         0.00000000
  -V(xc)+E(xc)   XCENC  =       534.26883483
  PAW double counting   =      8141.38806575    -8271.61346273
  entropy T*S    EENTRO =        -0.00000000
  eigenvalues    EBANDS =     -2720.10213400
  atomic energy  EATOM  =     12703.13999606
  Solvation  Ediel_sol  =         0.00000000
  ---------------------------------------------------
  free energy    TOTEN  =      -241.90257253 eV

  energy without entropy =     -241.90257253  energy(sigma->0) =     -241.90257253


--------------------------------------------------------------------------------------------------------




--------------------------------------- Iteration      1(   5)  ---------------------------------------


     EDDAV:  cpu time      2.9299: real time      2.9548
       DOS:  cpu time      0.0004: real time      0.0004
    --------------------------------------------
      LOOP:  cpu time      2.9303: real time      2.9552

 eigenvalue-minimisations  :  4432
 total energy-change (2. order) :-0.2043574E+00  (-0.2042558E+00)
 number of electron     240.0000000 magnetization      52.0000000
 augmentation part      240.0000000 magnetization      52.0000000

 Free energy of the ion-electron system (eV)
  ---------------------------------------------------
  alpha Z        PSCENC =       301.20659102
  Ewald energy   TEWEN  =     -8828.01810528
  -Hartree energ DENC   =     -2102.17235818
  -exchange      EXHF   =         0.00000000
  -V(xc)+E(xc)   XCENC  =       534.26883483
  PAW double counting   =      8141.38806575    -8271.61346273
  entropy T*S    EENTRO =        -0.00000000
  eigenvalues    EBANDS =     -2720.30649141
  atomic energy  EATOM  =     12703.13999606
  Solvation  Ediel_sol  =         0.00000000
  ---------------------------------------------------
  free energy    TOTEN  =      -242.10692993 eV

  energy without entropy =     -242.10692993  energy(sigma->0) =     -242.10692993


--------------------------------------------------------------------------------------------------------




--------------------------------------- Iteration      1(   6)  ---------------------------------------


     EDDAV:  cpu time      3.0721: real time      3.0986
       DOS:  cpu time      0.0004: real time      0.0004
    --------------------------------------------
      LOOP:  cpu time      3.0725: real time      3.0989

 eigenvalue-minimisations  :  4664
 total energy-change (2. order) :-0.1236051E-01  (-0.1235932E-01)
 number of electron     240.0000000 magnetization      52.0000000
 augmentation part      240.0000000 magnetization      52.0000000

 Free energy of the ion-electron system (eV)
  ---------------------------------------------------
  alpha Z        PSCENC =       301.20659102
  Ewald energy   TEWEN  =     -8828.01810528
  -Hartree energ DENC   =     -2102.17235818
  -exchange      EXHF   =         0.00000000
  -V(xc)+E(xc)   XCENC  =       534.26883483
  PAW double counting   =      8141.38806575    -8271.61346273
  entropy T*S    EENTRO =        -0.00000000
  eigenvalues    EBANDS =     -2720.31885192
  atomic energy  EATOM  =     12703.13999606
  Solvation  Ediel_sol  =         0.00000000
  ---------------------------------------------------
  free energy    TOTEN  =      -242.11929045 eV

  energy without entropy =     -242.11929045  energy(sigma->0) =     -242.11929045


--------------------------------------------------------------------------------------------------------




--------------------------------------- Iteration      1(   7)  ---------------------------------------


     EDDAV:  cpu time      3.0281: real time      3.0578
       DOS:  cpu time      0.0004: real time      0.0004
    --------------------------------------------
      LOOP:  cpu time      3.0285: real time      3.0582

 eigenvalue-minimisations  :  4600
 total energy-change (2. order) :-0.3761317E-03  (-0.3761061E-03)
 number of electron     240.0000000 magnetization      52.0000000
 augmentation part      240.0000000 magnetization      52.0000000

 Free energy of the ion-electron system (eV)
  ---------------------------------------------------
  alpha Z        PSCENC =       301.20659102
  Ewald energy   TEWEN  =     -8828.01810528
  -Hartree energ DENC   =     -2102.17235818
  -exchange      EXHF   =         0.00000000
  -V(xc)+E(xc)   XCENC  =       534.26883483
  PAW double counting   =      8141.38806575    -8271.61346273
  entropy T*S    EENTRO =        -0.00000000
  eigenvalues    EBANDS =     -2720.31922805
  atomic energy  EATOM  =     12703.13999606
  Solvation  Ediel_sol  =         0.00000000
  ---------------------------------------------------
  free energy    TOTEN  =      -242.11966658 eV

  energy without entropy =     -242.11966658  energy(sigma->0) =     -242.11966658


--------------------------------------------------------------------------------------------------------




--------------------------------------- Iteration      1(   8)  ---------------------------------------


     EDDAV:  cpu time      3.0054: real time      3.0307
       DOS:  cpu time      0.0004: real time      0.0004
    --------------------------------------------
      LOOP:  cpu time      3.0058: real time      3.0311

 eigenvalue-minimisations  :  4552
 total energy-change (2. order) :-0.2155954E-04  (-0.2155899E-04)
 number of electron     240.0000000 magnetization      52.0000000
 augmentation part      240.0000000 magnetization      52.0000000

 Free energy of the ion-electron system (eV)
  ---------------------------------------------------
  alpha Z        PSCENC =       301.20659102
  Ewald energy   TEWEN  =     -8828.01810528
  -Hartree energ DENC   =     -2102.17235818
  -exchange      EXHF   =         0.00000000
  -V(xc)+E(xc)   XCENC  =       534.26883483
  PAW double counting   =      8141.38806575    -8271.61346273
  entropy T*S    EENTRO =        -0.00000000
  eigenvalues    EBANDS =     -2720.31924961
  atomic energy  EATOM  =     12703.13999606
  Solvation  Ediel_sol  =         0.00000000
  ---------------------------------------------------
  free energy    TOTEN  =      -242.11968814 eV

  energy without entropy =     -242.11968814  energy(sigma->0) =     -242.11968814


--------------------------------------------------------------------------------------------------------




--------------------------------------- Iteration      1(   9)  ---------------------------------------


     EDDAV:  cpu time      2.9635: real time      2.9877
       DOS:  cpu time      0.0004: real time      0.0004
    --------------------------------------------
      LOOP:  cpu time      2.9639: real time      2.9881

 eigenvalue-minimisations  :  4496
 total energy-change (2. order) :-0.1380551E-05  (-0.1380684E-05)
 number of electron     240.0000000 magnetization      52.0000000
 augmentation part      240.0000000 magnetization      52.0000000

 Free energy of the ion-electron system (eV)
  ---------------------------------------------------
  alpha Z        PSCENC =       301.20659102
  Ewald energy   TEWEN  =     -8828.01810528
  -Hartree energ DENC   =     -2102.17235818
  -exchange      EXHF   =         0.00000000
  -V(xc)+E(xc)   XCENC  =       534.26883483
  PAW double counting   =      8141.38806575    -8271.61346273
  entropy T*S    EENTRO =        -0.00000000
  eigenvalues    EBANDS =     -2720.31925099
  atomic energy  EATOM  =     12703.13999606
  Solvation  Ediel_sol  =         0.00000000
  ---------------------------------------------------
  free energy    TOTEN  =      -242.11968952 eV

  energy without entropy =     -242.11968952  energy(sigma->0) =     -242.11968952


--------------------------------------------------------------------------------------------------------




--------------------------------------- Iteration      1(  10)  ---------------------------------------


     EDDAV:  cpu time      1.9717: real time      1.9875
       DOS:  cpu time      0.0004: real time      0.0004
    CHARGE:  cpu time      0.0680: real time      0.0745
    MIXING:  cpu time      0.0020: real time      0.0031
    --------------------------------------------
      LOOP:  cpu time      2.0422: real time      2.0655

 eigenvalue-minimisations  :  2632
 total energy-change (2. order) :-0.5923357E-07  (-0.5923400E-07)
 number of electron     239.9999999 magnetization      27.2629112
 augmentation part        1.4925648 magnetization      27.7050777

 Broyden mixing:
  rms(total) = 0.64371E+01    rms(broyden)= 0.64365E+01
  rms(prec ) = 0.66788E+01
  weight for this iteration     100.00

 Free energy of the ion-electron system (eV)
  ---------------------------------------------------
  alpha Z        PSCENC =       301.20659102
  Ewald energy   TEWEN  =     -8828.01810528
  -Hartree energ DENC   =     -2102.17235818
  -exchange      EXHF   =         0.00000000
  -V(xc)+E(xc)   XCENC  =       534.26883483
  PAW double counting   =      8141.38806575    -8271.61346273
  entropy T*S    EENTRO =        -0.00000000
  eigenvalues    EBANDS =     -2720.31925105
  atomic energy  EATOM  =     12703.13999606
  Solvation  Ediel_sol  =         0.00000000
  ---------------------------------------------------
  free energy    TOTEN  =      -242.11968958 eV

  energy without entropy =     -242.11968958  energy(sigma->0) =     -242.11968958


--------------------------------------------------------------------------------------------------------




--------------------------------------- Iteration      1(  11)  ---------------------------------------


    POTLOK:  cpu time      0.0541: real time      0.0553
    SETDIJ:  cpu time      0.3973: real time      0.3996
    EDDIAG:  cpu time      0.3644: real time      0.3677
  RMM-DIIS:  cpu time      1.1559: real time      1.1665
    ORTHCH:  cpu time      0.0677: real time      0.0684
       DOS:  cpu time      0.0005: real time      0.0005
    CHARGE:  cpu time      0.0646: real time      0.0666
    MIXING:  cpu time      0.0012: real time      0.0164
    --------------------------------------------
      LOOP:  cpu time      2.1056: real time      2.1410

 eigenvalue-minimisations  :  2816
 total energy-change (2. order) : 0.5565601E+01  (-0.4673586E+01)
 number of electron     239.9999999 magnetization      16.3126365
 augmentation part        1.7040716 magnetization      16.4951752

 Broyden mixing:
  rms(total) = 0.33109E+01    rms(broyden)= 0.33107E+01
  rms(prec ) = 0.34256E+01
  weight for this iteration     100.00

 eigenvalues of (default mixing * dielectric matrix)
  average eigenvalue GAMMA=   0.7257
  0.7257

 Free energy of the ion-electron system (eV)
  ---------------------------------------------------
  alpha Z        PSCENC =       301.20659102
  Ewald energy   TEWEN  =     -8828.01810528
  -Hartree energ DENC   =     -2149.99805142
  -exchange      EXHF   =         0.00000000
  -V(xc)+E(xc)   XCENC  =       542.49457618
  PAW double counting   =      8930.09458776    -9066.40653639
  entropy T*S    EENTRO =        -0.00000000
  eigenvalues    EBANDS =     -2669.06714656
  atomic energy  EATOM  =     12703.13999606
  Solvation  Ediel_sol  =         0.00000000
  ---------------------------------------------------
  free energy    TOTEN  =      -236.55408863 eV

  energy without entropy =     -236.55408863  energy(sigma->0) =     -236.55408863


--------------------------------------------------------------------------------------------------------




--------------------------------------- Iteration      1(  12)  ---------------------------------------


    POTLOK:  cpu time      0.0534: real time      0.0545
    SETDIJ:  cpu time      0.4007: real time      0.4027
    EDDIAG:  cpu time      0.3559: real time      0.3584
  RMM-DIIS:  cpu time      1.2760: real time      1.3160
    ORTHCH:  cpu time      0.0670: real time      0.0682
       DOS:  cpu time      0.0005: real time      0.0005
    CHARGE:  cpu time      0.0650: real time      0.0672
    MIXING:  cpu time      0.0011: real time      0.0011
    --------------------------------------------
      LOOP:  cpu time      2.2197: real time      2.2686

 eigenvalue-minimisations  :  2953
 total energy-change (2. order) :-0.1954955E+02  (-0.2106498E+01)
 number of electron     239.9999999 magnetization       0.4654892
 augmentation part        1.8025842 magnetization       0.8059186

 Broyden mixing:
  rms(total) = 0.20232E+01    rms(broyden)= 0.20232E+01
  rms(prec ) = 0.20845E+01
  weight for this iteration     100.00

 eigenvalues of (default mixing * dielectric matrix)
  average eigenvalue GAMMA=   1.1657
  1.6600  0.6714

 Free energy of the ion-electron system (eV)
  ---------------------------------------------------
  alpha Z        PSCENC =       301.20659102
  Ewald energy   TEWEN  =     -8828.01810528
  -Hartree energ DENC   =     -2173.83652126
  -exchange      EXHF   =         0.00000000
  -V(xc)+E(xc)   XCENC  =       536.18891525
  PAW double counting   =      9284.33394872    -9424.23952155
  entropy T*S    EENTRO =        -0.00000000
  eigenvalues    EBANDS =     -2654.87894247
  atomic energy  EATOM  =     12703.13999606
  Solvation  Ediel_sol  =         0.00000000
  ---------------------------------------------------
  free energy    TOTEN  =      -256.10363950 eV

  energy without entropy =     -256.10363950  energy(sigma->0) =     -256.10363950


--------------------------------------------------------------------------------------------------------




--------------------------------------- Iteration      1(  13)  ---------------------------------------


    POTLOK:  cpu time      0.0523: real time      0.0533
    SETDIJ:  cpu time      0.4079: real time      0.4097
    EDDIAG:  cpu time      0.3570: real time      0.3598
  RMM-DIIS:  cpu time      1.2123: real time      1.2238
    ORTHCH:  cpu time      0.0674: real time      0.0680
       DOS:  cpu time      0.0005: real time      0.0005
    CHARGE:  cpu time      0.0647: real time      0.0663
    MIXING:  cpu time      0.0011: real time      0.0011
    --------------------------------------------
      LOOP:  cpu time      2.1630: real time      2.1825

 eigenvalue-minimisations  :  2911
 total energy-change (2. order) :-0.2484757E+01  (-0.8946368E+00)
 number of electron     239.9999999 magnetization      -1.8284658
 augmentation part        1.9031138 magnetization      -1.7252190

 Broyden mixing:
  rms(total) = 0.66028E+00    rms(broyden)= 0.66028E+00
  rms(prec ) = 0.69315E+00
  weight for this iteration     100.00

 eigenvalues of (default mixing * dielectric matrix)
  average eigenvalue GAMMA=   1.3015
  2.5017  0.7493  0.6534

 Free energy of the ion-electron system (eV)
  ---------------------------------------------------
  alpha Z        PSCENC =       301.20659102
  Ewald energy   TEWEN  =     -8828.01810528
  -Hartree energ DENC   =     -2201.41629402
  -exchange      EXHF   =         0.00000000
  -V(xc)+E(xc)   XCENC  =       537.77628190
  PAW double counting   =      9789.32767321    -9933.20352724
  entropy T*S    EENTRO =        -0.00000000
  eigenvalues    EBANDS =     -2627.40101219
  atomic energy  EATOM  =     12703.13999606
  Solvation  Ediel_sol  =         0.00000000
  ---------------------------------------------------
  free energy    TOTEN  =      -258.58839655 eV

  energy without entropy =     -258.58839655  energy(sigma->0) =     -258.58839655


--------------------------------------------------------------------------------------------------------




--------------------------------------- Iteration      1(  14)  ---------------------------------------


    POTLOK:  cpu time      0.0525: real time      0.0535
    SETDIJ:  cpu time      0.3996: real time      0.4017
    EDDIAG:  cpu time      0.3542: real time      0.3562
  RMM-DIIS:  cpu time      1.5565: real time      1.5702
    ORTHCH:  cpu time      0.0682: real time      0.0692
       DOS:  cpu time      0.0005: real time      0.0005
    CHARGE:  cpu time      0.0651: real time      0.0668
    MIXING:  cpu time      0.0011: real time      0.0011
    --------------------------------------------
      LOOP:  cpu time      2.4978: real time      2.5191

 eigenvalue-minimisations  :  3746
 total energy-change (2. order) :-0.1943214E+00  (-0.1927462E+00)
 number of electron     239.9999999 magnetization      -0.8568464
 augmentation part        1.8733717 magnetization      -0.8289444

 Broyden mixing:
  rms(total) = 0.32189E+00    rms(broyden)= 0.32189E+00
  rms(prec ) = 0.35601E+00
  weight for this iteration     100.00

 eigenvalues of (default mixing * dielectric matrix)
  average eigenvalue GAMMA=   1.2663
  2.6115  1.1732  0.6897  0.5909

 Free energy of the ion-electron system (eV)
  ---------------------------------------------------
  alpha Z        PSCENC =       301.20659102
  Ewald energy   TEWEN  =     -8828.01810528
  -Hartree energ DENC   =     -2202.68525969
  -exchange      EXHF   =         0.00000000
  -V(xc)+E(xc)   XCENC  =       538.20558077
  PAW double counting   =      9863.35510441   -10008.00391032
  entropy T*S    EENTRO =        -0.00000000
  eigenvalues    EBANDS =     -2625.98271491
  atomic energy  EATOM  =     12703.13999606
  Solvation  Ediel_sol  =         0.00000000
  ---------------------------------------------------
  free energy    TOTEN  =      -258.78271793 eV

  energy without entropy =     -258.78271793  energy(sigma->0) =     -258.78271793


--------------------------------------------------------------------------------------------------------




--------------------------------------- Iteration      1(  15)  ---------------------------------------


    POTLOK:  cpu time      0.0524: real time      0.0533
    SETDIJ:  cpu time      0.3978: real time      0.3993
    EDDIAG:  cpu time      0.3572: real time      0.3594
  RMM-DIIS:  cpu time      1.2845: real time      1.2960
    ORTHCH:  cpu time      0.0679: real time      0.0688
       DOS:  cpu time      0.0005: real time      0.0005
    CHARGE:  cpu time      0.0651: real time      0.0659
    MIXING:  cpu time      0.0012: real time      0.0012
    --------------------------------------------
      LOOP:  cpu time      2.2266: real time      2.2445

 eigenvalue-minimisations  :  3083
 total energy-change (2. order) : 0.2441720E-01  (-0.3283531E-01)
 number of electron     239.9999999 magnetization      -0.2305057
 augmentation part        1.8254982 magnetization      -0.2039443

 Broyden mixing:
  rms(total) = 0.68655E-01    rms(broyden)= 0.68652E-01
  rms(prec ) = 0.81114E-01
  weight for this iteration     100.00

 eigenvalues of (default mixing * dielectric matrix)
  average eigenvalue GAMMA=   1.2727
  2.5374  1.5909  0.9482  0.6851  0.6017

 Free energy of the ion-electron system (eV)
  ---------------------------------------------------
  alpha Z        PSCENC =       301.20659102
  Ewald energy   TEWEN  =     -8828.01810528
  -Hartree energ DENC   =     -2198.34010188
  -exchange      EXHF   =         0.00000000
  -V(xc)+E(xc)   XCENC  =       537.86689348
  PAW double counting   =      9835.84246523    -9980.31187017
  entropy T*S    EENTRO =        -0.00000000
  eigenvalues    EBANDS =     -2630.14416919
  atomic energy  EATOM  =     12703.13999606
  Solvation  Ediel_sol  =         0.00000000
  ---------------------------------------------------
  free energy    TOTEN  =      -258.75830073 eV

  energy without entropy =     -258.75830073  energy(sigma->0) =     -258.75830073


--------------------------------------------------------------------------------------------------------




--------------------------------------- Iteration      1(  16)  ---------------------------------------


    POTLOK:  cpu time      0.0531: real time      0.0540
    SETDIJ:  cpu time      0.4000: real time      0.4011
    EDDIAG:  cpu time      0.3574: real time      0.3594
  RMM-DIIS:  cpu time      1.2802: real time      1.2916
    ORTHCH:  cpu time      0.0683: real time      0.0691
       DOS:  cpu time      0.0005: real time      0.0005
    CHARGE:  cpu time      0.0642: real time      0.0647
    MIXING:  cpu time      0.0012: real time      0.0012
    --------------------------------------------
      LOOP:  cpu time      2.2247: real time      2.2415

 eigenvalue-minimisations  :  3078
 total energy-change (2. order) :-0.1926926E-01  (-0.1013050E-01)
 number of electron     239.9999999 magnetization      -0.1051392
 augmentation part        1.8036460 magnetization      -0.0907470

 Broyden mixing:
  rms(total) = 0.30693E-01    rms(broyden)= 0.30691E-01
  rms(prec ) = 0.37018E-01
  weight for this iteration     100.00

 eigenvalues of (default mixing * dielectric matrix)
  average eigenvalue GAMMA=   1.2520
  2.4592  1.9496  1.0390  0.6208  0.6992  0.7442

 Free energy of the ion-electron system (eV)
  ---------------------------------------------------
  alpha Z        PSCENC =       301.20659102
  Ewald energy   TEWEN  =     -8828.01810528
  -Hartree energ DENC   =     -2197.80060705
  -exchange      EXHF   =         0.00000000
  -V(xc)+E(xc)   XCENC  =       537.78420680
  PAW double counting   =      9824.12381458    -9968.36630490
  entropy T*S    EENTRO =        -0.00000000
  eigenvalues    EBANDS =     -2630.84716123
  atomic energy  EATOM  =     12703.13999606
[...]
 -0.424   0.436   0.001   0.431   0.005   0.014   0.003   0.000   0.000   0.004   0.002   0.004  -0.003  -0.000
 -0.520   0.534   0.002   0.005   0.374   0.031   0.000   0.003   0.000  -0.003   0.002  -0.002   0.003  -0.005
 -0.204   0.210   0.001   0.014   0.031   0.632   0.000   0.000   0.005  -0.006  -0.003   0.003  -0.007  -0.006
 -0.004   0.003   0.000   0.003   0.000   0.000   0.000   0.000   0.000   0.000   0.000   0.000  -0.000  -0.000
 -0.005   0.004   0.000   0.000   0.003   0.000   0.000   0.000   0.000  -0.000   0.000  -0.000   0.000  -0.000
 -0.001   0.001   0.000   0.000   0.000   0.005   0.000   0.000   0.000  -0.000  -0.000   0.000  -0.000  -0.000
  0.002  -0.002  -0.000   0.004  -0.003  -0.006   0.000  -0.000  -0.000   0.000   0.000   0.000  -0.000   0.000
  0.004  -0.004  -0.000   0.002   0.002  -0.003   0.000   0.000  -0.000   0.000   0.000  -0.000   0.000  -0.000
 -0.011   0.012   0.000   0.004  -0.002   0.003   0.000  -0.000   0.000   0.000  -0.000   0.000  -0.000  -0.000
  0.004  -0.004  -0.000  -0.003   0.003  -0.007  -0.000   0.000  -0.000  -0.000   0.000  -0.000   0.000   0.000
  0.012  -0.012  -0.000  -0.000  -0.005  -0.006  -0.000  -0.000  -0.000   0.000  -0.000  -0.000   0.000   0.000
 total augmentation occupancy for first ion, spin component:           2
  0.000  -0.000  -0.000  -0.000  -0.000  -0.000   0.000  -0.000   0.000  -0.000  -0.000  -0.000   0.000   0.000
 -0.000   0.000   0.000   0.000  -0.000   0.000  -0.000  -0.000  -0.000   0.000   0.000   0.000  -0.000  -0.000
 -0.000   0.000   0.000   0.000  -0.000  -0.000   0.000  -0.000  -0.000   0.000  -0.000   0.000  -0.000   0.000
 -0.000   0.000   0.000  -0.000   0.000  -0.000  -0.000  -0.000   0.000  -0.000  -0.000  -0.000   0.000   0.000
 -0.000  -0.000  -0.000   0.000  -0.000   0.000  -0.000  -0.000  -0.000   0.000  -0.000   0.000  -0.000   0.000
 -0.000   0.000  -0.000  -0.000   0.000  -0.000   0.000   0.000  -0.000  -0.000   0.000  -0.000   0.000  -0.000
  0.000  -0.000   0.000  -0.000  -0.000   0.000  -0.000  -0.000   0.000  -0.000   0.000  -0.000  -0.000   0.000
 -0.000  -0.000  -0.000  -0.000  -0.000   0.000  -0.000   0.000   0.000  -0.000  -0.000  -0.000   0.000  -0.000
  0.000  -0.000  -0.000   0.000  -0.000  -0.000   0.000   0.000  -0.000  -0.000   0.000  -0.000   0.000   0.000
 -0.000   0.000   0.000  -0.000   0.000  -0.000  -0.000  -0.000  -0.000   0.000   0.000   0.000   0.000   0.000
 -0.000   0.000  -0.000  -0.000  -0.000   0.000   0.000  -0.000   0.000   0.000   0.000   0.000  -0.000   0.000
 -0.000   0.000   0.000  -0.000   0.000  -0.000  -0.000  -0.000  -0.000   0.000   0.000  -0.000   0.000   0.000
  0.000  -0.000  -0.000   0.000  -0.000   0.000  -0.000   0.000   0.000   0.000  -0.000   0.000  -0.000  -0.000
  0.000  -0.000   0.000   0.000   0.000  -0.000   0.000  -0.000   0.000   0.000   0.000   0.000  -0.000   0.000


------------------------ aborting loop because EDIFF is reached ----------------------------------------


    CHARGE:  cpu time      0.0647: real time      0.0666
    FORLOC:  cpu time      0.0038: real time      0.0038
    FORNL :  cpu time      0.3929: real time      0.3958
    STRESS:  cpu time      1.1771: real time      1.1847
    FORCOR:  cpu time      0.0493: real time      0.0497
    FORHAR:  cpu time      0.0085: real time      0.0085
    MIXING:  cpu time      0.0008: real time      0.0008
    OFIELD:  cpu time      0.0000: real time      0.0000

 ---------------------------------------------------------------------------------------------

         DFTD3 V3.0 Rev 1        
 Edisp (eV)  -13.58302

 E6    (eV) :    -8.3687
 E8    (eV) :    -5.2143
 % E8        : 38.39
    FORVDW:  cpu time      0.2904: real time      0.2922

  FORCE on cell =-STRESS in cart. coord.  units (eV):
  Direction    XX          YY          ZZ          XY          YZ          ZX
  --------------------------------------------------------------------------------------
  Alpha Z   301.20659   301.20659   301.20659
  Ewald   -2911.85289 -2950.80548 -2965.40676   -22.68674   -10.88486    20.49653
  Hartree   751.56149   727.64312   721.14506    -4.31773    -4.31409     4.82770
  E(xc)    -947.75449  -947.79216  -947.85194    -0.08217    -0.02026     0.04383
  Local   -1545.58924 -1485.58011 -1466.16848    23.22207    14.00359   -22.69533
  n-local  1481.33035  1481.54211  1481.80440    -0.51123    -0.01462     0.34193
  augment  -356.64966  -356.83242  -357.06064    -0.19864    -0.00330     0.00495
  Kinetic  3241.27607  3244.93850  3247.57768     4.41408     0.60887    -1.29821
  Fock        0.00000     0.00000     0.00000     0.00000     0.00000     0.00000
  vdW       -14.36429   -14.38239   -14.38380    -0.00994    -0.01646    -0.00302
  -------------------------------------------------------------------------------------
  Total      -0.83605    -0.06223     0.86211    -0.17028    -0.64112     1.71839
  in kB      -1.48631    -0.11062     1.53263    -0.30272    -1.13977     3.05489
  external pressure =       -0.02 kB  Pullay stress =        0.00 kB


 VOLUME and BASIS-vectors are now :
 -----------------------------------------------------------------------------
  energy-cutoff  :      520.00
  volume of cell :      901.23
      direct lattice vectors                 reciprocal lattice vectors
     9.659303085  0.000000000  0.000000000     0.103527138  0.000000000  0.000000000
     0.000000000  9.659303085  0.000000000     0.000000000  0.103527138  0.000000000
     0.000000000  0.000000000  9.659303085     0.000000000  0.000000000  0.103527138

  length of vectors
     9.659303085  9.659303085  9.659303085     0.103527138  0.103527138  0.103527138


 FORCES acting on ions
    electron-ion (+dipol)            ewald-force                    non-local-force                 convergence-correction
 -----------------------------------------------------------------------------------------------
   0.414E+00 -.628E+01 -.107E+02   -.989E+00 0.520E+01 0.937E+01   0.572E+00 0.108E+01 0.130E+01   0.175E-03 -.346E-04 0.169E-04
   -.495E+01 0.238E+01 -.704E+01   0.406E+01 -.352E+01 0.628E+01   0.892E+00 0.114E+01 0.761E+00   -.445E-04 0.634E-04 0.280E-04
   0.199E+01 -.698E+01 -.731E+01   -.143E+01 0.797E+01 0.647E+01   -.552E+00 -.987E+00 0.840E+00   0.703E-04 -.899E-04 0.712E-04
   0.321E+01 0.193E+01 0.321E+01   -.248E+01 -.977E+00 -.449E+01   -.728E+00 -.954E+00 0.128E+01   0.121E-03 -.909E-04 0.178E-04
   -.744E+01 -.785E+01 0.207E+01   0.653E+01 0.644E+01 -.317E+01   0.915E+00 0.142E+01 0.110E+01   0.165E-03 -.200E-03 0.108E-03
   -.235E+01 0.672E+00 0.559E+01   0.145E+01 0.427E+00 -.513E+01   0.904E+00 -.110E+01 -.456E+00   -.109E-05 -.469E-04 0.728E-05
   0.586E+01 -.677E+01 0.693E+01   -.459E+01 0.539E+01 -.629E+01   -.127E+01 0.138E+01 -.641E+00   -.179E-03 -.217E-04 -.226E-04
   0.920E+01 0.106E+02 0.402E+01   -.773E+01 -.954E+01 -.500E+01   -.147E+01 -.110E+01 0.978E+00   -.416E-05 0.632E-05 0.804E-05
   0.108E+02 -.658E+00 0.685E+01   -.948E+01 -.263E-01 -.560E+01   -.133E+01 0.682E+00 -.124E+01   0.357E-05 0.144E-03 -.428E-04
   -.201E+01 0.714E+01 -.655E+01   0.316E+01 -.613E+01 0.545E+01   -.116E+01 -.100E+01 0.111E+01   0.720E-04 0.274E-03 0.570E-04
   0.544E+01 -.618E+00 -.294E+01   -.640E+01 -.150E+00 0.200E+01   0.970E+00 0.766E+00 0.939E+00   -.356E-04 0.622E-04 -.246E-06
   -.159E+02 -.331E+00 0.976E+01   0.143E+02 0.119E+01 -.829E+01   0.158E+01 -.859E+00 -.147E+01   0.512E-04 0.811E-04 -.379E-04
   -.285E+01 0.499E+00 -.659E+00   0.366E+01 0.605E+00 0.195E+00   -.812E+00 -.111E+01 0.459E+00   0.115E-03 0.232E-04 -.864E-04
   0.209E+01 0.514E+01 0.484E+01   -.307E+01 -.424E+01 -.425E+01   0.977E+00 -.898E+00 -.586E+00   -.212E-04 -.332E-03 0.274E-03
   0.231E+01 0.230E+01 0.589E+01   -.327E+01 -.105E+01 -.497E+01   0.955E+00 -.126E+01 -.922E+00   -.383E-04 0.610E-05 0.242E-04
   -.419E+01 0.642E+01 -.333E+00   0.519E+01 -.528E+01 -.339E+00   -.100E+01 -.114E+01 0.667E+00   -.679E-04 0.156E-05 0.101E-03
   0.124E+02 0.501E+01 0.868E+01   -.111E+02 -.597E+01 -.714E+01   -.129E+01 0.953E+00 -.154E+01   0.238E-03 -.724E-04 -.287E-03
   -.374E+00 0.368E+01 0.329E+00   -.557E+00 -.291E+01 0.647E+00   0.930E+00 -.765E+00 -.982E+00   -.361E-04 -.907E-04 0.251E-04
   -.340E+01 -.517E+01 -.188E+01   0.403E+01 0.438E+01 0.280E+01   -.627E+00 0.786E+00 -.937E+00   0.128E-03 -.582E-04 0.111E-03
   -.407E+01 0.784E+01 0.525E+01   0.276E+01 -.733E+01 -.390E+01   0.131E+01 -.507E+00 -.135E+01   0.145E-03 -.428E-04 -.651E-04
   -.331E+01 -.166E+01 -.289E+01   0.268E+01 0.246E+01 0.418E+01   0.627E+00 -.802E+00 -.130E+01   -.229E-03 -.405E-03 -.175E-03
   0.645E+00 -.914E+01 -.105E+02   -.140E+01 0.776E+01 0.924E+01   0.754E+00 0.138E+01 0.123E+01   -.191E-03 0.833E-04 -.547E-04
   0.468E+01 0.548E+01 0.310E+01   -.383E+01 -.452E+01 -.398E+01   -.847E+00 -.960E+00 0.886E+00   -.199E-03 0.177E-03 -.187E-03
   0.188E+01 -.973E+01 0.112E+02   -.911E+00 0.859E+01 -.960E+01   -.966E+00 0.113E+01 -.162E+01   -.991E-04 0.160E-03 0.887E-04
   -.633E+01 -.130E+01 -.418E+01   0.623E+01 0.132E+01 0.488E+01   0.936E-01 -.135E-01 -.695E+00   -.332E-03 -.424E-04 0.543E-04
   0.193E+01 0.925E+00 -.476E+01   -.174E+01 -.125E+01 0.492E+01   -.188E+00 0.325E+00 -.156E+00   -.455E-04 -.588E-04 -.184E-03
   0.268E+00 -.606E+00 -.721E+01   -.228E+00 0.415E+00 0.726E+01   -.402E-01 0.191E+00 -.517E-01   0.224E-04 -.326E-04 -.902E-04
   0.127E+01 0.738E+00 0.417E+01   -.126E+01 -.403E+00 -.457E+01   -.127E-01 -.328E+00 0.388E+00   0.145E-03 0.413E-04 0.258E-04
   -.506E+02 0.389E+02 -.238E+02   0.545E+02 -.423E+02 0.264E+02   -.389E+01 0.336E+01 -.256E+01   0.228E-03 0.516E-03 -.143E-03
   -.316E+02 -.425E+02 0.535E+02   0.339E+02 0.454E+02 -.569E+02   -.229E+01 -.291E+01 0.332E+01   0.198E-03 0.133E-03 -.410E-03
   0.536E+02 0.201E+02 0.485E+02   -.574E+02 -.221E+02 -.518E+02   0.375E+01 0.193E+01 0.327E+01   0.104E-03 0.304E-03 0.223E-03
   0.315E+02 -.572E+02 -.235E+02   -.341E+02 0.613E+02 0.261E+02   0.259E+01 -.405E+01 -.262E+01   0.505E-04 0.146E-03 0.394E-04
   0.348E+02 -.546E+02 -.266E+02   -.375E+02 0.590E+02 0.287E+02   0.272E+01 -.443E+01 -.205E+01   0.174E-03 0.108E-03 -.131E-03
   0.420E+02 0.388E+02 0.314E+02   -.453E+02 -.417E+02 -.342E+02   0.326E+01 0.293E+01 0.275E+01   -.651E-04 -.100E-03 0.227E-03
   -.450E+02 -.294E+02 0.378E+02   0.487E+02 0.314E+02 -.412E+02   -.364E+01 -.194E+01 0.338E+01   -.228E-03 -.329E-03 -.134E-03
   -.240E+02 0.543E+02 -.425E+02   0.262E+02 -.581E+02 0.458E+02   -.218E+01 0.381E+01 -.325E+01   0.423E-03 -.266E-03 0.162E-03
   -.394E+02 -.383E+02 0.336E+02   0.426E+02 0.415E+02 -.362E+02   -.322E+01 -.317E+01 0.268E+01   -.298E-03 0.192E-04 -.155E-03
   -.470E+02 0.406E+02 -.474E+02   0.501E+02 -.433E+02 0.504E+02   -.307E+01 0.269E+01 -.299E+01   -.183E-03 0.255E-03 -.435E-03
   0.515E+02 -.352E+02 -.365E+02   -.554E+02 0.379E+02 0.392E+02   0.385E+01 -.276E+01 -.270E+01   -.386E-03 0.407E-03 0.381E-03
   0.265E+02 0.480E+02 0.439E+02   -.284E+02 -.515E+02 -.473E+02   0.190E+01 0.348E+01 0.342E+01   0.635E-04 0.432E-03 0.174E-03
   -.288E+02 -.494E+02 0.379E+02   0.311E+02 0.530E+02 -.413E+02   -.228E+01 -.366E+01 0.332E+01   -.528E-03 -.493E-04 -.152E-03
   -.470E+02 0.185E+02 -.467E+02   0.507E+02 -.212E+02 0.498E+02   -.369E+01 0.269E+01 -.312E+01   -.651E-06 -.119E-03 -.990E-04
   0.217E+02 -.318E+02 -.660E+02   -.238E+02 0.342E+02 0.701E+02   0.212E+01 -.235E+01 -.403E+01   0.186E-03 -.203E-04 0.448E-04
   0.533E+02 0.338E+02 0.314E+02   -.576E+02 -.364E+02 -.337E+02   0.427E+01 0.263E+01 0.233E+01   -.768E-03 0.830E-04 0.549E-03
   0.178E+02 0.551E+01 -.703E+01   -.181E+02 -.566E+01 0.733E+01   0.372E+00 0.143E+00 -.300E+00   0.102E-03 0.182E-03 -.312E-04
   -.216E+02 0.426E+01 0.333E+00   0.220E+02 -.444E+01 -.368E+00   -.439E+00 0.178E+00 0.352E-01   -.189E-03 0.252E-06 -.555E-04
   -.981E+00 -.169E+02 0.372E+01   0.112E+01 0.173E+02 -.380E+01   -.143E+00 -.374E+00 0.811E-01   -.156E-03 0.855E-04 0.584E-04
   0.203E+00 -.195E+02 -.203E+01   -.220E+00 0.199E+02 0.203E+01   0.158E-01 -.393E+00 -.105E-02   0.641E-03 -.738E-03 0.820E-04
   0.712E+01 0.316E+01 -.485E+02   -.736E+01 -.332E+01 0.492E+02   0.238E+00 0.162E+00 -.723E+00   0.185E-03 0.527E-04 -.203E-03
   0.111E+01 0.343E+02 0.142E+01   -.108E+01 -.349E+02 -.150E+01   -.359E-01 0.583E+00 0.818E-01   0.120E-03 -.242E-03 -.406E-03
   -.522E+01 0.374E+02 -.206E+00   0.539E+01 -.379E+02 0.383E+00   -.173E+00 0.561E+00 -.181E+00   -.171E-03 0.508E-03 0.110E-02
   -.627E+01 -.301E+01 0.337E+02   0.639E+01 0.311E+01 -.342E+02   -.117E+00 -.989E-01 0.522E+00   -.531E-03 -.426E-03 0.216E-03
 -----------------------------------------------------------------------------------------------
   0.867E+00 0.357E+01 0.133E+01   0.284E-13 0.110E-12 -.213E-13   -.883E+00 -.356E+01 -.133E+01   -.110E-02 0.448E-03 0.689E-03
 
 
 POSITION                                       TOTAL-FORCE (eV/Angst)
 -----------------------------------------------------------------------------------
      9.33131      3.17150      3.19229        -0.000041      0.000028     -0.000194
      9.57523      7.59838      7.80793         0.000115      0.000204     -0.000091
      0.27487      1.94116      7.92935         0.000006     -0.000042      0.000060
      0.20165      6.76095      2.72979        -0.000017     -0.000032      0.000064
      3.02098      3.13457      9.34198        -0.000089      0.000129     -0.000009
      3.02821      6.71142      0.13372         0.000121      0.000067      0.000010
      6.52909      3.03035      0.23051         0.000100      0.000047      0.000069
      6.43180      6.65165      9.23533         0.000067     -0.000209     -0.000077
      1.65229      9.33897      1.63322         0.000023     -0.000035      0.000080
      2.10971      0.09702      7.82823        -0.000001      0.000077     -0.000119
      7.73474      9.45019      7.63421         0.000027     -0.000036     -0.000168
      7.95571      0.43670      1.57289        -0.000224     -0.000130     -0.000076
      2.13136      6.73757      4.59730         0.000022      0.000000      0.000050
      2.79917      1.52209      5.07897         0.000069      0.000058      0.000219
      7.82428      6.89791      4.94800         0.000086     -0.000070      0.000007
      6.83136      1.77906      4.58652        -0.000018     -0.000043     -0.000160
      1.79732      4.36683      6.42724        -0.000110      0.000193     -0.000024
      3.03002      5.01968      2.12154         0.000031      0.000054      0.000009
      6.75459      4.76209      2.19360        -0.000102     -0.000041     -0.000070
      8.02111      5.02178      6.74133        -0.000016     -0.000003     -0.000067
      4.69897      2.03360      6.85816        -0.000149      0.000000     -0.000034
      4.47984      8.14483      3.03365         0.000146     -0.000191      0.000129
      4.94829      1.94069      2.76337         0.000157     -0.000049      0.000027
      5.24917      7.87417      6.35101        -0.000050     -0.000081     -0.000114
      4.84263      4.83529      4.96019         0.000315      0.000140      0.000160
      4.88955      9.62822      9.63826         0.000139     -0.000305      0.000229
      9.65658      4.79986      0.02448        -0.000267      0.000114      0.000323
      0.05453      0.04340      4.74632         0.000091      0.000057      0.000199
      1.26990      8.51764      5.90970        -0.000340     -0.000060     -0.000092
      1.13823      1.21826      3.46390         0.000198      0.000146     -0.000292
      8.47658      8.61260      3.52227         0.000279      0.000209      0.000217
      8.63466      1.27730      5.98444        -0.000125     -0.000162      0.000035
      8.41998      6.09886      1.02737        -0.000064     -0.000088     -0.000256
      8.43170      3.60259      8.55555         0.000217      0.000232     -0.000065
      1.27639      5.78789      8.40898        -0.000253     -0.000140      0.000242
      1.15655      3.66971      1.27610         0.000293     -0.000304      0.000189
      6.09479      1.19635      8.51689         0.000111     -0.000188     -0.000084
      6.07028      8.51671      1.21798        -0.000376      0.000329     -0.000553
      3.55250      1.11259      1.03733        -0.000537      0.000515      0.000288
      3.90524      8.35785      8.36054         0.000454      0.000270      0.000155
      5.84174      6.19869      3.77399        -0.000222      0.000002      0.000283
      6.17505      3.67595      5.98761        -0.000186      0.000017      0.000125
      3.68334      5.94150      6.22852         0.000142     -0.000333     -0.000490
      3.58206      3.60838      3.88477        -0.000030     -0.000008     -0.000270
      7.36616      7.23305      7.17065         0.000085      0.000071      0.000124
      7.18285      2.50337      2.40650        -0.000045     -0.000138      0.000003
      2.42829      7.24717      2.34255         0.000014     -0.000118      0.000169
      2.45637      2.29871      7.24968         0.000063     -0.000132     -0.000177
      0.07266      9.58182      9.31923        -0.000141     -0.000273     -0.000163
      0.00758      5.15090      4.75043         0.000014      0.000116      0.000055
      4.87548      0.26641      4.80280         0.000043      0.000080      0.000031
      4.79337      4.81830      0.33475        -0.000023      0.000058      0.000097
 -----------------------------------------------------------------------------------
    total drift:                               -0.016410      0.011423     -0.000723


--------------------------------------------------------------------------------------------------------



  FREE ENERGIE OF THE ION-ELECTRON SYSTEM (eV)
  ---------------------------------------------------
  free  energy   TOTEN  =      -272.36840779 eV

  energy  without entropy=     -272.36840779  energy(sigma->0) =     -272.36840779
 
 d Force = 0.7777606E-06[-0.743E-07, 0.163E-05]  d Energy = 0.2979036E-05-0.220E-05
 d Force =-0.6580665E-04[-0.680E-04,-0.636E-04]  d Ewald  =-0.6580671E-04 0.691E-10


--------------------------------------------------------------------------------------------------------


    POTLOK:  cpu time      0.4521: real time      0.4540


--------------------------------------------------------------------------------------------------------


 stress matrix after NEB project (eV)
     -0.83605     -0.17028      1.71839
     -0.17028     -0.06223     -0.64112
      1.71839     -0.64112      0.86211
  FORCES: max atom, RMS     0.000797    0.000302
  FORCE total and by dimension    0.002176    0.000553
  Stress total and by dimension    2.869130    1.718391


--------------------------------------------------------------------------------------------------------


  
 reached required accuracy - stopping structural energy minimisation
     LOOP+:  cpu time      9.8955: real time      9.9863
    4ORBIT:  cpu time      0.0000: real time      0.0000

 total amount of memory used by VASP MPI-rank0    48202. kBytes
=======================================================================

   base      :      30000. kBytes
   nonlr-proj:       6542. kBytes
   fftplans  :       1747. kBytes
   grid      :       5278. kBytes
   one-center:         62. kBytes
   wavefun   :       4573. kBytes
 
  
  
 General timing and accounting informations for this job:
 ========================================================
  
                  Total CPU time used (sec):      108.268
                            User time (sec):      107.084
                          System time (sec):        1.184
                         Elapsed time (sec):      112.795
  
                   Maximum memory used (kb):      382260.
                   Average memory used (kb):          N/A
  
                          Minor page faults:        58704
                          Major page faults:          133
                 Voluntary context switches:         4053
