<?xml version="1.0" encoding="ISO-8859-1"?>
<modeling>
 <generator>
  <i name="program" type="string">vasp </i>
  <i name="version" type="string">6.4.1  </i>
  <i name="subversion" type="string">05Apr23 (build Jun 07 2023 15:38:11) complex                          parallel </i>
  <i name="platform" type="string">LinuxIFC </i>
  <i name="date" type="string">2023 10 16 </i>
  <i name="time" type="string">15:22:47 </i>
 </generator>
 <incar>
  <i type="string" name="PREC">Accu</i>
  <i type="string" name="ALGO">F</i>
  <i type="logical" name="LDIAG"> T  </i>
  <i type="int" name="ISPIN">     2</i>
  <i type="int" name="NELM">   100</i>
  <i type="int" name="NELMDL">   -10</i>
  <i type="int" name="IBRION">     2</i>
  <i name="EDIFF">      0.00000100</i>
  <i name="EDIFFG">     -0.00100000</i>
  <i type="int" name="NSW">  1000</i>
  <i type="int" name="ISIF">     2</i>
  <i name="ENCUT">    520.00000000</i>
  <i name="POTIM">      0.20000000</i>
  <i type="string" name="LREAL">Auto</i>
  <i type="logical" name="LPLANE"> T  </i>
  <i type="int" name="ISMEAR">     0</i>
  <i name="SIGMA">      0.03000000</i>
  <i type="int" name="LMAXMIX">     4</i>
  <i type="logical" name="LWAVE"> F  </i>
  <i type="logical" name="LCHARG"> F  </i>
  <i type="logical" name="LASPH"> T  </i>
  <i type="string" name="GGA">PE</i>
  <i type="int" name="IVDW">    12</i>
 </incar>
 <primitive_cell>
  <structure name="primitive_cell" >
   <crystal>
    <varray name="basis" >
     <v>       9.65930309       0.00000000       0.00000000 </v>
     <v>       0.00000000       9.65930309       0.00000000 </v>
     <v>       0.00000000       0.00000000       9.65930309 </v>
    </varray>
    <i name="volume">    901.23361099 </i>
    <varray name="rec_basis" >
     <v>       0.10352714       0.00000000       0.00000000 </v>
     <v>       0.00000000       0.10352714       0.00000000 </v>
     <v>       0.00000000       0.00000000       0.10352714 </v>
    </varray>
   </crystal>
   <varray name="positions" >
    <v>       0.96604536       0.32833571       0.33048130 </v>
    <v>       0.99129887       0.78664347       0.80832989 </v>
    <v>       0.02846199       0.20096815       0.82090684 </v>
    <v>       0.02087394       0.69993874       0.28261519 </v>
    <v>       0.31276676       0.32450781       0.96715308 </v>
    <v>       0.31349187       0.69480278       0.01383758 </v>
    <v>       0.67592521       0.31372947       0.02386535 </v>
    <v>       0.66586826       0.68861930       0.95610297 </v>
    <v>       0.17104927       0.96683388       0.16907497 </v>
    <v>       0.21840751       0.01004284       0.81044318 </v>
    <v>       0.80075556       0.97835360       0.79034313 </v>
    <v>       0.82362677       0.04520911       0.16283440 </v>
    <v>       0.22066327       0.69752523       0.47594633 </v>
    <v>       0.28977705       0.15754189       0.52582798 </v>
    <v>       0.81001022       0.71411238       0.51224487 </v>
    <v>       0.70723301       0.18417977       0.47482620 </v>
    <v>       0.18609151       0.45207475       0.66537245 </v>
    <v>       0.31369703       0.51967499       0.21964571 </v>
    <v>       0.69930417       0.49300945       0.22710472 </v>
    <v>       0.83042144       0.51989053       0.69790805 </v>
    <v>       0.48647688       0.21051864       0.70998264 </v>
    <v>       0.46378034       0.84322572       0.31405565 </v>
    <v>       0.51227138       0.20094240       0.28609047 </v>
    <v>       0.54343096       0.81519737       0.65751194 </v>
    <v>       0.50134508       0.50058586       0.51351727 </v>
    <v>       0.50619714       0.99678922       0.99782800 </v>
    <v>       0.99971793       0.49691348       0.00253858 </v>
    <v>       0.00564682       0.00450151       0.49137166 </v>
    <v>       0.13147190       0.88181078       0.61181131 </v>
    <v>       0.11783327       0.12612021       0.35860077 </v>
    <v>       0.87755251       0.89164074       0.36465473 </v>
    <v>       0.89392467       0.13223819       0.61955193 </v>
    <v>       0.87169934       0.63140478       0.10635424 </v>
    <v>       0.87290613       0.37296570       0.88573825 </v>
    <v>       0.13213390       0.59919531       0.87054387 </v>
    <v>       0.11974074       0.37991653       0.13210822 </v>
    <v>       0.63097108       0.12385252       0.88172858 </v>
    <v>       0.62844384       0.88170697       0.12608893 </v>
    <v>       0.36778232       0.11518199       0.10740123 </v>
    <v>       0.40429723       0.86526385       0.86554648 </v>
    <v>       0.60476235       0.64173561       0.39070203 </v>
    <v>       0.63929053       0.38056440       0.61987784 </v>
    <v>       0.38133376       0.61510945       0.64482391 </v>
    <v>       0.37081890       0.37357090       0.40220278 </v>
    <v>       0.76260204       0.74881904       0.74235453 </v>
    <v>       0.74361391       0.25916578       0.24913690 </v>
    <v>       0.25139039       0.75027913       0.24251762 </v>
    <v>       0.25431351       0.23796757       0.75054323 </v>
    <v>       0.00752064       0.99197662       0.96478592 </v>
    <v>       0.00078412       0.53325993       0.49179340 </v>
    <v>       0.50474664       0.02758714       0.49723084 </v>
    <v>       0.49623875       0.49882337       0.03466338 </v>
   </varray>
  </structure>
  <varray name="primitive_index" >
   <v type="int" >        1 </v>
   <v type="int" >        2 </v>
   <v type="int" >        3 </v>
   <v type="int" >        4 </v>
   <v type="int" >        5 </v>
   <v type="int" >        6 </v>
   <v type="int" >        7 </v>
   <v type="int" >        8 </v>
   <v type="int" >        9 </v>
   <v type="int" >       10 </v>
   <v type="int" >       11 </v>
   <v type="int" >       12 </v>
   <v type="int" >       13 </v>
   <v type="int" >       14 </v>
   <v type="int" >       15 </v>
   <v type="int" >       16 </v>
   <v type="int" >       17 </v>
   <v type="int" >       18 </v>
   <v type="int" >       19 </v>
   <v type="int" >       20 </v>
   <v type="int" >       21 </v>
   <v type="int" >       22 </v>
   <v type="int" >       23 </v>
   <v type="int" >       24 </v>
   <v type="int" >       25 </v>
   <v type="int" >       26 </v>
   <v type="int" >       27 </v>
   <v type="int" >       28 </v>
   <v type="int" >       29 </v>
   <v type="int" >       30 </v>
   <v type="int" >       31 </v>
   <v type="int" >       32 </v>
   <v type="int" >       33 </v>
   <v type="int" >       34 </v>
   <v type="int" >       35 </v>
   <v type="int" >       36 </v>
   <v type="int" >       37 </v>
   <v type="int" >       38 </v>
   <v type="int" >       39 </v>
   <v type="int" >       40 </v>
   <v type="int" >       41 </v>
   <v type="int" >       42 </v>
   <v type="int" >       43 </v>
   <v type="int" >       44 </v>
   <v type="int" >       45 </v>
   <v type="int" >       46 </v>
   <v type="int" >       47 </v>
   <v type="int" >       48 </v>
   <v type="int" >       49 </v>
   <v type="int" >       50 </v>
   <v type="int" >       51 </v>
   <v type="int" >       52 </v>
  </varray>
 </primitive_cell>
 <kpoints>
  <generation param="Monkhorst-Pack">
   <v type="int" name="divisions">       2        2        2 </v>
   <v name="usershift">      0.00000000       0.00000000       0.00000000 </v>
   <v name="genvec1">      0.50000000       0.00000000       0.00000000 </v>
   <v name="genvec2">      0.00000000       0.50000000       0.00000000 </v>
   <v name="genvec3">      0.00000000       0.00000000       0.50000000 </v>
   <v name="shift">      0.50000000       0.50000000       0.50000000 </v>
  </generation>
  <varray name="kpointlist" >
   <v>       0.25000000       0.25000000       0.25000000 </v>
   <v>      -0.25000000       0.25000000       0.25000000 </v>
   <v>      -0.25000000      -0.25000000       0.25000000 </v>
   <v>       0.25000000      -0.25000000       0.25000000 </v>
  </varray>
  <varray name="weights" >
   <v>       0.25000000 </v>
   <v>       0.25000000 </v>
   <v>       0.25000000 </v>
   <v>       0.25000000 </v>
  </varray>
 </kpoints>
 <parameters>
  <separator name="general" >
   <i type="string" name="SYSTEM">unknown system</i>
   <i type="logical" name="LCOMPAT"> F  </i>
  </separator>
  <separator name="electronic" >
   <i type="string" name="PREC">accu</i>
   <i name="ENMAX">    520.00000000</i>
   <i name="ENAUG">   1041.69900000</i>
   <i name="EDIFF">      0.00000100</i>
   <i type="int" name="IALGO">    68</i>
   <i type="int" name="IWAVPR">    11</i>
   <i type="int" name="NBANDS">   176</i>
   <i type="int" name="NBANDSLOW">    -1</i>
   <i type="int" name="NBANDSHIGH">    -1</i>
   <i name="NELECT">    240.00000000</i>
   <i type="int" name="TURBO">     0</i>
   <i type="int" name="IRESTART">     0</i>
   <i type="int" name="NREBOOT">     0</i>
   <i type="int" name="NMIN">     0</i>
   <i name="EREF">      0.00000000</i>
   <separator name="electronic smearing" >
    <i type="int" name="ISMEAR">     0</i>
    <i name="SIGMA">      0.03000000</i>
    <i name="KSPACING">      0.50000000</i>
    <i type="logical" name="KGAMMA"> T  </i>
    <i type="logical" name="KBLOWUP"> T  </i>
   </separator>
   <separator name="electronic projectors" >
    <i type="logical" name="LREAL"> T  </i>
    <v name="ROPT">     -0.00025000     -0.00025000     -0.00025000     -0.00025000</v>
    <i type="int" name="LMAXPAW">  -100</i>
    <i type="int" name="LMAXMIX">     4</i>
    <i type="logical" name="NLSPLINE"> F  </i>
   </separator>
   <separator name="electronic startup" >
    <i type="int" name="ISTART">     0</i>
    <i type="int" name="ICHARG">     2</i>
    <i type="int" name="INIWAV">     1</i>
   </separator>
   <separator name="electronic spin" >
    <i type="int" name="ISPIN">     2</i>
    <i type="logical" name="LNONCOLLINEAR"> F  </i>
    <v name="MAGMOM">      1.00000000      1.00000000      1.00000000      1.00000000      1.00000000      1.00000000      1.00000000      1.00000000      1.00000000      1.00000000      1.00000000      1.00000000      1.00000000      1.00000000      1.00000000      1.00000000      1.00000000      1.00000000      1.00000000      1.00000000
      1.00000000      1.00000000      1.00000000      1.00000000      1.00000000      1.00000000      1.00000000      1.00000000      1.00000000      1.00000000      1.00000000      1.00000000      1.00000000      1.00000000      1.00000000      1.00000000      1.00000000      1.00000000      1.00000000      1.00000000
      1.00000000      1.00000000      1.00000000      1.00000000      1.00000000      1.00000000      1.00000000      1.00000000      1.00000000      1.00000000      1.00000000      1.00000000</v>
    <i name="NUPDOWN">     -1.00000000</i>
    <i type="logical" name="LSORBIT"> F  </i>
    <v name="SAXIS">      0.00000000      0.00000000      1.00000000</v>
    <i type="logical" name="LSPIRAL"> F  </i>
    <v name="QSPIRAL">      0.00000000      0.00000000      0.00000000</v>
    <i type="logical" name="LZEROZ"> F  </i>
   </separator>
   <separator name="electronic exchange-correlation" >
    <i type="logical" name="LASPH"> T  </i>
    <i type="logical" name="LMETAGGA"> F  </i>
   </separator>
   <separator name="electronic convergence" >
    <i type="int" name="NELM">   100</i>
    <i type="int" name="NELMDL">   -10</i>
    <i type="int" name="NELMIN">     2</i>
    <i name="ENINI">    520.00000000</i>
    <separator name="electronic convergence detail" >
     <i type="logical" name="LDIAG"> T  </i>
     <i type="logical" name="LSUBROT"> F  </i>
     <i name="WEIMIN">      0.00100000</i>
     <i name="EBREAK">      0.00000000</i>
     <i name="DEPER">      0.30000000</i>
     <i type="int" name="NRMM">     4</i>
     <i name="TIME">      0.40000000</i>
    </separator>
   </separator>
   <separator name="electronic mixer" >
    <i name="AMIX">      0.40000000</i>
    <i name="BMIX">      1.00000000</i>
    <i name="AMIN">      0.10000000</i>
    <i name="AMIX_MAG">      1.60000000</i>
    <i name="BMIX_MAG">      1.00000000</i>
    <separator name="electronic mixer details" >
     <i type="int" name="IMIX">     4</i>
     <i type="logical" name="MIXFIRST"> F  </i>
     <i type="int" name="MAXMIX">   -45</i>
     <i name="WC">    100.00000000</i>
     <i type="int" name="INIMIX">     1</i>
     <i type="int" name="MIXPRE">     1</i>
     <i type="int" name="MREMOVE">     5</i>
    </separator>
   </separator>
   <separator name="electronic dipolcorrection" >
    <i type="logical" name="LDIPOL"> F  </i>
    <i type="logical" name="LMONO"> F  </i>
    <i type="int" name="IDIPOL">     0</i>
    <i name="EPSILON">      1.00000000</i>
    <v name="DIPOL">   -100.00000000   -100.00000000   -100.00000000</v>
    <i name="EFIELD">      0.00000000</i>
   </separator>
  </separator>
  <separator name="grids" >
   <i type="int" name="NGX">    72</i>
   <i type="int" name="NGY">    72</i>
   <i type="int" name="NGZ">    72</i>
   <i type="int" name="NGXF">   144</i>
   <i type="int" name="NGYF">   144</i>
   <i type="int" name="NGZF">   144</i>
   <i type="logical" name="ADDGRID"> F  </i>
  </separator>
  <separator name="ionic" >
   <i type="int" name="NSW">  1000</i>
   <i type="int" name="IBRION">     2</i>
   <i type="int" name="MDALGO">     0</i>
   <i type="int" name="ISIF">     2</i>
   <i name="PSTRESS">      0.00000000</i>
   <i name="EDIFFG">     -0.00100000</i>
   <i type="int" name="NFREE">     1</i>
   <i name="POTIM">      0.20000000</i>
   <i name="SMASS">     -3.00000000</i>
   <i name="SCALEE">      1.00000000</i>
  </separator>
  <separator name="ionic md" >
   <i name="TEBEG">      0.00010000</i>
   <i name="TEEND">      0.00010000</i>
   <i type="int" name="NBLOCK">     1</i>
   <i type="int" name="KBLOCK">  1000</i>
   <i type="int" name="NPACO">   256</i>
   <i name="APACO">     10.00000000</i>
  </separator>
  <separator name="symmetry" >
   <i type="int" name="ISYM">     2</i>
   <i name="SYMPREC">      0.00001000</i>
  </separator>
  <separator name="dos" >
   <i type="int" name="LORBIT">     0</i>
   <v name="RWIGS">     -1.00000000     -1.00000000     -1.00000000     -1.00000000</v>
   <i type="int" name="NEDOS">   301</i>
   <i name="EMIN">     10.00000000</i>
   <i name="EMAX">    -10.00000000</i>
   <i name="EFERMI">      0.00000000</i>
  </separator>
  <separator name="writing" >
   <i type="int" name="NWRITE">     2</i>
   <i type="logical" name="LWAVE"> F  </i>
   <i type="logical" name="LDOWNSAMPLE"> F  </i>
   <i type="logical" name="LCHARG"> F  </i>
   <i type="logical" name="LPARD"> F  </i>
   <i type="logical" name="LVTOT"> F  </i>
   <i type="logical" name="LVHAR"> F  </i>
   <i type="logical" name="LELF"> F  </i>
   <i type="logical" name="LOPTICS"> F  </i>
   <v name="STM">      0.00000000      0.00000000      0.00000000      0.00000000      0.00000000      0.00000000      0.00000000</v>
  </separator>
  <separator name="performance" >
   <i type="int" name="NPAR">     4</i>
   <i type="int" name="NSIM">     4</i>
   <i type="int" name="NBLK">    -1</i>
   <i type="logical" name="LPLANE"> T  </i>
   <i type="logical" name="LSCALAPACK"> T  </i>
   <i type="logical" name="LSCAAWARE"> F  </i>
   <i type="logical" name="LSCALU"> F  </i>
   <i type="logical" name="LASYNC"> F  </i>
   <i type="logical" name="LORBITALREAL"> F  </i>
  </separator>
  <separator name="miscellaneous" >
   <i type="int" name="IDIOT">     3</i>
   <i type="int" name="PHON_NSTRUCT">    -1</i>
   <i type="logical" name="LMUSIC"> F  </i>
   <v name="POMASS">      7.01000000     30.97400000     32.06600000     35.45300000</v>
   <v name="DARWINR">      0.00000000      0.00000000      0.00000000      0.00000000</v>
   <v name="DARWINV">      1.00000000      1.00000000      1.00000000      1.00000000</v>
   <i type="logical" name="LCORR"> T  </i>
  </separator>
  <i type="logical" name="GGA_COMPAT"> T  </i>
  <i type="logical" name="LBERRY"> F  </i>
  <i type="int" name="ICORELEVEL">     0</i>
  <i type="logical" name="LDAU"> F  </i>
  <i type="int" name="I_CONSTRAINED_M">     0</i>
  <separator name="electronic exchange-correlation" >
   <i type="string" name="GGA">PE</i>
   <i type="int" name="VOSKOWN">     0</i>
   <i type="logical" name="LHFCALC"> F  </i>
   <i type="string" name="PRECFOCK"></i>
   <i type="logical" name="LSYMGRAD"> F  </i>
   <i type="logical" name="LHFONE"> F  </i>
   <i type="logical" name="LRHFCALC"> F  </i>
   <i type="logical" name="LTHOMAS"> F  </i>
   <i type="logical" name="LMODELHF"> F  </i>
   <i type="logical" name="LFOCKACE"> F  </i>
   <i name="ENCUT4O">     -1.00000000</i>
   <i type="int" name="EXXOEP">     0</i>
   <i type="int" name="FOURORBIT">     0</i>
   <i name="AEXX">      0.00000000</i>
   <i name="HFALPHA">      0.00000000</i>
   <i name="MCALPHA">      0.00000000</i>
   <i name="ALDAX">      1.00000000</i>
   <i name="AGGAX">      1.00000000</i>
   <i name="ALDAC">      1.00000000</i>
   <i name="AGGAC">      1.00000000</i>
   <i type="int" name="NKREDX">     1</i>
   <i type="int" name="NKREDY">     1</i>
   <i type="int" name="NKREDZ">     1</i>
   <i type="logical" name="SHIFTRED"> F  </i>
   <i type="logical" name="ODDONLY"> F  </i>
   <i type="logical" name="EVENONLY"> F  </i>
   <i type="int" name="LMAXFOCK">     0</i>
   <i type="int" name="NMAXFOCKAE">     0</i>
   <i type="logical" name="LFOCKAEDFT"> F  </i>
   <i name="HFSCREEN">      0.00000000</i>
   <i name="HFSCREENC">      0.00000000</i>
   <i type="int" name="NBANDSGWLOW">     0</i>
  </separator>
  <separator name="vdW DFT" >
   <i type="logical" name="LUSE_VDW"> F  </i>
   <i type="int" name="IVDW_NL">     1</i>
   <i type="logical" name="LSPIN_VDW"> F  </i>
   <i name="Zab_VDW">     -0.84910000</i>
   <i name="PARAM1">      0.12340000</i>
   <i name="PARAM2">      1.00000000</i>
   <i name="PARAM3">      0.00000000</i>
  </separator>
  <separator name="model GW" >
   <i type="int" name="MODEL_GW">     0</i>
   <i name="MODEL_EPS0">     10.39884936</i>
   <i name="MODEL_ALPHA">      1.00000000</i>
  </separator>
  <separator name="linear response parameters" >
   <i type="logical" name="LEPSILON"> F  </i>
   <i type="logical" name="LRPA"> F  </i>
   <i type="logical" name="LNABLA"> F  </i>
   <i type="logical" name="LVEL"> F  </i>
   <i name="CSHIFT">      0.10000000</i>
   <i name="OMEGAMAX">     -1.00000000</i>
   <i name="DEG_THRESHOLD">      0.00200000</i>
   <i name="RTIME">     -0.10000000</i>
   <i name="WPLASMAI">      0.00000000</i>
   <v name="DFIELD">      0.00000000      0.00000000      0.00000000</v>
   <v name="WPLASMA">      0.00000000      0.00000000      0.00000000      0.00000000      0.00000000      0.00000000      0.00000000      0.00000000      0.00000000</v>
  </separator>
  <separator name="orbital magnetization" >
   <i type="logical" name="NUCIND"> F  </i>
   <v name="MAGPOS">      0.00000000      0.00000000      0.00000000</v>
   <i type="logical" name="LNICSALL"> T  </i>
   <i type="logical" name="ORBITALMAG"> F  </i>
   <i type="logical" name="LMAGBLOCH"> F  </i>
   <i type="logical" name="LCHIMAG"> F  </i>
   <i type="logical" name="LGAUGE"> T  </i>
   <i type="int" name="MAGATOM">     0</i>
   <v name="MAGDIPOL">      0.00000000      0.00000000      0.00000000</v>
   <v name="AVECCONST">      0.00000000      0.00000000      0.00000000</v>
  </separator>
  <separator name="response functions" >
   <i type="logical" name="LALL_IN_ONE"> F  </i>
   <i type="int" name="IALL_IN_ONE">    -1</i>
   <i type="int" name="NBANDS_WAVE">    -1</i>
   <i type="logical" name="LFINITE_TEMPERATURE"> F  </i>
   <i type="logical" name="LADDER"> F  </i>
   <i type="logical" name="LRPAFORCE"> F  </i>
   <i type="logical" name="LFXC"> F  </i>
   <i type="logical" name="LHARTREE"> T  </i>
   <i type="int" name="IBSE">     0</i>
   <v type="int" name="KPOINT">    -1     0     0     0</v>
   <i type="logical" name="LTCTC"> F  </i>
   <i type="logical" name="LTCTE"> F  </i>
   <i type="logical" name="LTETE"> F  </i>
   <i type="logical" name="LTRIPLET"> F  </i>
   <i type="logical" name="LFXCEPS"> F  </i>
   <i type="logical" name="LFXHEG"> F  </i>
   <i type="int" name="NATURALO">     2</i>
   <i type="logical" name="LHOLEGF"> F  </i>
   <i type="logical" name="L2ORDER"> F  </i>
   <i type="logical" name="LDMP1"> F  </i>
   <i type="logical" name="LMP2LT"> F  </i>
   <i type="logical" name="LSMP2LT"> F  </i>
   <i type="logical" name="LGWLF"> F  </i>
   <i name="ENCUTGW">     -1.60000002</i>
   <i name="ENCUTGWSOFT">     -1.60000002</i>
   <i name="ENCUTLF">     -1.00000000</i>
   <i type="logical" name="LESF_SPLINES"> F  </i>
   <i type="int" name="LMAXMP2">    -1</i>
   <i name="SCISSOR">      0.00000000</i>
   <i type="int" name="NOMEGA">     0</i>
   <i type="int" name="NOMEGAR">     0</i>
   <i type="int" name="NBANDSGW">    -1</i>
   <i type="int" name="NBANDSO">    -1</i>
   <i type="int" name="NBANDSV">    -1</i>
   <i type="int" name="NELMGW">     1</i>
   <i type="int" name="NELMHF">     1</i>
   <i type="int" name="DIM">     3</i>
   <i type="int" name="IESPILON">     4</i>
   <i type="int" name="ANTIRES">     0</i>
   <i name="OMEGAMAX">    -30.00000000</i>
   <i name="OMEGAMIN">    -30.00000000</i>
   <i name="OMEGATL">   -200.00000000</i>
   <i type="int" name="OMEGAGRID">     0</i>
   <i name="CSHIFT">     -0.10000000</i>
   <i type="logical" name="LSELFENERGY"> F  </i>
   <i type="logical" name="LSPECTRAL"> F  </i>
   <i type="logical" name="LSPECTRALGW"> F  </i>
   <i type="logical" name="LSINGLES"> F  </i>
   <i type="logical" name="LFERMIGW"> F  </i>
   <i type="logical" name="ODDONLYGW"> F  </i>
   <i type="logical" name="EVENONLYGW"> F  </i>
   <i type="int" name="NKREDLFX">     1</i>
   <i type="int" name="NKREDLFY">     1</i>
   <i type="int" name="NKREDLFZ">     1</i>
   <i type="int" name="MAXMEM">  2800</i>
   <i type="int" name="TELESCOPE">     0</i>
   <i type="int" name="NTAUPAR">    -1</i>
   <i type="int" name="NOMEGAPAR">    -1</i>
   <i name="DAMP_NEWTON">      0.80000001</i>
   <i name="LAMBDA">      1.00000000</i>
  </separator>
  <separator name="External order field" >
   <i name="OFIELD_KAPPA">      0.00000000</i>
   <v name="OFIELD_K">      0.00000000      0.00000000      0.00000000</v>
   <i name="OFIELD_Q6_NEAR">      0.00000000</i>
   <i name="OFIELD_Q6_FAR">      0.00000000</i>
   <i name="OFIELD_A">      0.00000000</i>
  </separator>
  <separator name="optional k-points parameters" >
   <i type="int" name="KPOINTS_OPT_MODE">     1</i>
   <i type="logical" name="LKPOINTS_OPT"> F  </i>
  </separator>
 </parameters>
 <atominfo>
  <atoms>      52 </atoms>
  <types>       4 </types>
  <array name="atoms" >
   <dimension dim="1">ion</dimension>
   <field type="string">element</field>
   <field type="int">atomtype</field>
   <set>
    <rc><c>Li</c><c>   1</c></rc>
    <rc><c>Li</c><c>   1</c></rc>
    <rc><c>Li</c><c>   1</c></rc>
    <rc><c>Li</c><c>   1</c></rc>
    <rc><c>Li</c><c>   1</c></rc>
    <rc><c>Li</c><c>   1</c></rc>
    <rc><c>Li</c><c>   1</c></rc>
    <rc><c>Li</c><c>   1</c></rc>
    <rc><c>Li</c><c>   1</c></rc>
    <rc><c>Li</c><c>   1</c></rc>
    <rc><c>Li</c><c>   1</c></rc>
    <rc><c>Li</c><c>   1</c></rc>
    <rc><c>Li</c><c>   1</c></rc>
    <rc><c>Li</c><c>   1</c></rc>
    <rc><c>Li</c><c>   1</c></rc>
    <rc><c>Li</c><c>   1</c></rc>
    <rc><c>Li</c><c>   1</c></rc>
    <rc><c>Li</c><c>   1</c></rc>
    <rc><c>Li</c><c>   1</c></rc>
    <rc><c>Li</c><c>   1</c></rc>
    <rc><c>Li</c><c>   1</c></rc>
    <rc><c>Li</c><c>   1</c></rc>
    <rc><c>Li</c><c>   1</c></rc>
    <rc><c>Li</c><c>   1</c></rc>
    <rc><c>P </c><c>   2</c></rc>
    <rc><c>P </c><c>   2</c></rc>
    <rc><c>P </c><c>   2</c></rc>
    <rc><c>P </c><c>   2</c></rc>
    <rc><c>S </c><c>   3</c></rc>
    <rc><c>S </c><c>   3</c></rc>
    <rc><c>S </c><c>   3</c></rc>
    <rc><c>S </c><c>   3</c></rc>
    <rc><c>S </c><c>   3</c></rc>
    <rc><c>S </c><c>   3</c></rc>
    <rc><c>S </c><c>   3</c></rc>
    <rc><c>S </c><c>   3</c></rc>
    <rc><c>S </c><c>   3</c></rc>
    <rc><c>S </c><c>   3</c></rc>
    <rc><c>S </c><c>   3</c></rc>
    <rc><c>S </c><c>   3</c></rc>
    <rc><c>S </c><c>   3</c></rc>
    <rc><c>S </c><c>   3</c></rc>
    <rc><c>S </c><c>   3</c></rc>
    <rc><c>S </c><c>   3</c></rc>
    <rc><c>S </c><c>   3</c></rc>
    <rc><c>S </c><c>   3</c></rc>
    <rc><c>S </c><c>   3</c></rc>
    <rc><c>S </c><c>   3</c></rc>
    <rc><c>Cl</c><c>   4</c></rc>
    <rc><c>Cl</c><c>   4</c></rc>
    <rc><c>Cl</c><c>   4</c></rc>
    <rc><c>Cl</c><c>   4</c></rc>
   </set>
  </array>
  <array name="atomtypes" >
   <dimension dim="1">type</dimension>
   <field type="int">atomspertype</field>
   <field type="string">element</field>
   <field>mass</field>
   <field>valence</field>
   <field type="string">pseudopotential</field>
   <set>
    <rc><c>  24</c><c>Li</c><c>      7.01000000</c><c>      3.00000000</c><c>  PAW_PBE Li_sv_GW 25Mar2010            </c></rc>
    <rc><c>   4</c><c>P </c><c>     30.97400000</c><c>      5.00000000</c><c>  PAW_PBE P_GW 19Mar2012                </c></rc>
    <rc><c>  20</c><c>S </c><c>     32.06600000</c><c>      6.00000000</c><c>  PAW_PBE S_GW 19Mar2012                </c></rc>
    <rc><c>   4</c><c>Cl</c><c>     35.45300000</c><c>      7.00000000</c><c>  PAW_PBE Cl_GW 19Mar2012               </c></rc>
   </set>
  </array>
 </atominfo>
 <structure name="initialpos" >
  <crystal>
   <varray name="basis" >
    <v>       9.65930309       0.00000000       0.00000000 </v>
    <v>       0.00000000       9.65930309       0.00000000 </v>
    <v>       0.00000000       0.00000000       9.65930309 </v>
   </varray>
   <i name="volume">    901.23361099 </i>
   <varray name="rec_basis" >
    <v>       0.10352714       0.00000000       0.00000000 </v>
    <v>       0.00000000       0.10352714       0.00000000 </v>
    <v>       0.00000000       0.00000000       0.10352714 </v>
   </varray>
  </crystal>
  <varray name="positions" >
   <v>       0.96604536       0.32833571       0.33048130 </v>
   <v>       0.99129887       0.78664347       0.80832989 </v>
   <v>       0.02846199       0.20096815       0.82090684 </v>
   <v>       0.02087394       0.69993874       0.28261519 </v>
   <v>       0.31276676       0.32450781       0.96715308 </v>
   <v>       0.31349187       0.69480278       0.01383758 </v>
   <v>       0.67592521       0.31372947       0.02386535 </v>
   <v>       0.66586826       0.68861930       0.95610297 </v>
   <v>       0.17104927       0.96683388       0.16907497 </v>
   <v>       0.21840751       0.01004284       0.81044318 </v>
   <v>       0.80075556       0.97835360       0.79034313 </v>
   <v>       0.82362677       0.04520911       0.16283440 </v>
   <v>       0.22066327       0.69752523       0.47594633 </v>
   <v>       0.28977705       0.15754189       0.52582798 </v>
   <v>       0.81001022       0.71411238       0.51224487 </v>
   <v>       0.70723301       0.18417977       0.47482620 </v>
   <v>       0.18609151       0.45207475       0.66537245 </v>
   <v>       0.31369703       0.51967499       0.21964571 </v>
   <v>       0.69930417       0.49300945       0.22710472 </v>
   <v>       0.83042144       0.51989053       0.69790805 </v>
   <v>       0.48647688       0.21051864       0.70998264 </v>
   <v>       0.46378034       0.84322572       0.31405565 </v>
   <v>       0.51227138       0.20094240       0.28609047 </v>
   <v>       0.54343096       0.81519737       0.65751194 </v>
   <v>       0.50134508       0.50058586       0.51351727 </v>
   <v>       0.50619714       0.99678922       0.99782800 </v>
   <v>       0.99971793       0.49691348       0.00253858 </v>
   <v>       0.00564682       0.00450151       0.49137166 </v>
   <v>       0.13147190       0.88181078       0.61181131 </v>
   <v>       0.11783327       0.12612021       0.35860077 </v>
   <v>       0.87755251       0.89164074       0.36465473 </v>
   <v>       0.89392467       0.13223819       0.61955193 </v>
   <v>       0.87169934       0.63140478       0.10635424 </v>
   <v>       0.87290613       0.37296570       0.88573825 </v>
   <v>       0.13213390       0.59919531       0.87054387 </v>
   <v>       0.11974074       0.37991653       0.13210822 </v>
   <v>       0.63097108       0.12385252       0.88172858 </v>
   <v>       0.62844384       0.88170697       0.12608893 </v>
   <v>       0.36778232       0.11518199       0.10740123 </v>
   <v>       0.40429723       0.86526385       0.86554648 </v>
   <v>       0.60476235       0.64173561       0.39070203 </v>
   <v>       0.63929053       0.38056440       0.61987784 </v>
   <v>       0.38133376       0.61510945       0.64482391 </v>
   <v>       0.37081890       0.37357090       0.40220278 </v>
   <v>       0.76260204       0.74881904       0.74235453 </v>
   <v>       0.74361391       0.25916578       0.24913690 </v>
   <v>       0.25139039       0.75027913       0.24251762 </v>
   <v>       0.25431351       0.23796757       0.75054323 </v>
   <v>       0.00752064       0.99197662       0.96478592 </v>
   <v>       0.00078412       0.53325993       0.49179340 </v>
   <v>       0.50474664       0.02758714       0.49723084 </v>
   <v>       0.49623875       0.49882337       0.03466338 </v>
  </varray>
 </structure>
 <calculation>
  <scstep>
   <time name="dav">    2.26    2.29</time>
   <time name="total">    2.73    2.77</time>
   <energy>
    <i name="alphaZ">    301.20659102 </i>
    <i name="ewald">  -8828.01810528 </i>
    <i name="hartreedc">  -2102.17235818 </i>
    <i name="XCdc">    534.26883483 </i>
    <i name="pawpsdc">   8141.38806575 </i>
    <i name="pawaedc">  -8271.61346273 </i>
    <i name="eentropy">     -0.00216092 </i>
    <i name="bandstr">   -893.79337590 </i>
    <i name="atom">  12703.13999606 </i>
    <i name="e_fr_energy">   1584.40402465 </i>
    <i name="e_wo_entrp">   1584.40618557 </i>
    <i name="e_0_energy">   1584.40510511 </i>
   </energy>
  </scstep>
  <scstep>
   <time name="dav">    2.63    2.65</time>
   <time name="total">    2.63    2.66</time>
   <energy>
    <i name="e_fr_energy">    -55.47399778 </i>
    <i name="e_wo_entrp">    -55.47399778 </i>
    <i name="e_0_energy">    -55.47399778 </i>
   </energy>
  </scstep>
  <scstep>
   <time name="dav">    2.71    2.73</time>
   <time name="total">    2.71    2.73</time>
   <energy>
    <i name="e_fr_energy">   -228.24475276 </i>
    <i name="e_wo_entrp">   -228.24475276 </i>
    <i name="e_0_energy">   -228.24475276 </i>
   </energy>
  </scstep>
  <scstep>
   <time name="dav">    3.16    3.19</time>
   <time name="total">    3.16    3.19</time>
   <energy>
    <i name="e_fr_energy">   -241.90257253 </i>
    <i name="e_wo_entrp">   -241.90257253 </i>
    <i name="e_0_energy">   -241.90257253 </i>
   </energy>
  </scstep>
  <scstep>
   <time name="dav">    2.93    2.95</time>
   <time name="total">    2.93    2.96</time>
   <energy>
    <i name="e_fr_energy">   -242.10692993 </i>
    <i name="e_wo_entrp">   -242.10692993 </i>
    <i name="e_0_energy">   -242.10692993 </i>
   </energy>
  </scstep>
  <scstep>
   <time name="dav">    3.07    3.10</time>
   <time name="total">    3.07    3.10</time>
   <energy>
    <i name="e_fr_energy">   -242.11929045 </i>
    <i name="e_wo_entrp">   -242.11929045 </i>
    <i name="e_0_energy">   -242.11929045 </i>
   </energy>
  </scstep>
  <scstep>
   <time name="dav">    3.03    3.06</time>
   <time name="total">    3.03    3.06</time>
   <energy>
    <i name="e_fr_energy">   -242.11966658 </i>
    <i name="e_wo_entrp">   -242.11966658 </i>
    <i name="e_0_energy">   -242.11966658 </i>
   </energy>
  </scstep>
  <scstep>
   <time name="dav">    3.01    3.03</time>
   <time name="total">    3.01    3.03</time>
   <energy>
    <i name="e_fr_energy">   -242.11968814 </i>
    <i name="e_wo_entrp">   -242.11968814 </i>
    <i name="e_0_energy">   -242.11968814 </i>
   </energy>
  </scstep>
  <scstep>
   <time name="dav">    2.96    2.99</time>
   <time name="total">    2.96    2.99</time>
   <energy>
    <i name="e_fr_energy">   -242.11968952 </i>
    <i name="e_wo_entrp">   -242.11968952 </i>
    <i name="e_0_energy">   -242.11968952 </i>
   </energy>
  </scstep>
  <scstep>
   <time name="dav">    1.97    1.99</time>
   <time name="total">    2.04    2.07</time>
   <energy>
    <i name="e_fr_energy">   -242.11968958 </i>
    <i name="e_wo_entrp">   -242.11968958 </i>
    <i name="e_0_energy">   -242.11968958 </i>
   </energy>
  </scstep>
  <scstep>
   <time name="diag">    0.36    0.37</time>
   <time name="diis">    1.16    1.17</time>
   <time name="orth">    0.07    0.07</time>
   <time name="total">    2.11    2.14</time>
   <energy>
    <i name="e_fr_energy">   -236.55408863 </i>
    <i name="e_wo_entrp">   -236.55408863 </i>
    <i name="e_0_energy">   -236.55408863 </i>
   </energy>
  </scstep>
  <scstep>
   <time name="diag">    0.36    0.36</time>
   <time name="diis">    1.28    1.32</time>
   <time name="orth">    0.07    0.07</time>
   <time name="total">    2.22    2.27</time>
   <energy>
    <i name="e_fr_energy">   -256.10363950 </i>
    <i name="e_wo_entrp">   -256.10363950 </i>
    <i name="e_0_energy">   -256.10363950 </i>
   </energy>
  </scstep>
  <scstep>
   <time name="diag">    0.36    0.36</time>
   <time name="diis">    1.21    1.22</time>
   <time name="orth">    0.07    0.07</time>
   <time name="total">    2.16    2.18</time>
   <energy>
    <i name="e_fr_energy">   -258.58839655 </i>
    <i name="e_wo_entrp">   -258.58839655 </i>
    <i name="e_0_energy">   -258.58839655 </i>
   </energy>
  </scstep>
  <scstep>
   <time name="diag">    0.35    0.36</time>
   <time name="diis">    1.56    1.57</time>
   <time name="orth">    0.07    0.07</time>
   <time name="total">    2.50    2.52</time>
   <energy>
    <i name="e_fr_energy">   -258.78271793 </i>
    <i name="e_wo_entrp">   -258.78271793 </i>
    <i name="e_0_energy">   -258.78271793 </i>
   </energy>
  </scstep>
  <scstep>
   <time name="diag">    0.36    0.36</time>
   <time name="diis">    1.28    1.30</time>
   <time name="orth">    0.07    0.07</time>
   <time name="total">    2.23    2.24</time>
   <energy>
    <i name="e_fr_energy">   -258.75830073 </i>
    <i name="e_wo_entrp">   -258.75830073 </i>
    <i name="e_0_energy">   -258.75830073 </i>
   </energy>
  </scstep>
  <scstep>
   <time name="diag">    0.36    0.36</time>
   <time name="diis">    1.28    1.29</time>
   <time name="orth">    0.07    0.07</time>
   <time name="total">    2.22    2.24</time>
   <energy>
    <i name="e_fr_energy">   -258.77756999 </i>
    <i name="e_wo_entrp">   -258.77756999 </i>
    <i name="e_0_energy">   -258.77756999 </i>
   </energy>
  </scstep>
  <scstep>
   <time name="diag">    0.36    0.37</time>
   <time name="diis">    1.44    1.45</time>
   <time name="orth">    0.07    0.07</time>
   <time name="total">    2.39    2.41</time>
   <energy>
    <i name="e_fr_energy">   -258.78361344 </i>
    <i name="e_wo_entrp">   -258.78361344 </i>
    <i name="e_0_energy">   -258.78361344 </i>
   </energy>
  </scstep>
  <scstep>
   <time name="diag">    0.36    0.36</time>
   <time name="diis">    1.41    1.43</time>
   <time name="orth">    0.07    0.07</time>
   <time name="total">    2.35    2.37</time>
   <energy>
    <i name="e_fr_energy">   -258.78482559 </i>
    <i name="e_wo_entrp">   -258.78482559 </i>
    <i name="e_0_energy">   -258.78482559 </i>
   </energy>
  </scstep>
  <scstep>
   <time name="diag">    0.36    0.36</time>
   <time name="diis">    1.62    1.64</time>
   <time name="orth">    0.07    0.07</time>
   <time name="total">    2.56    2.58</time>
   <energy>
    <i name="e_fr_energy">   -258.78527276 </i>
    <i name="e_wo_entrp">   -258.78527276 </i>
    <i name="e_0_energy">   -258.78527276 </i>
   </energy>
  </scstep>
  <scstep>
   <time name="diag">    0.36    0.36</time>
   <time name="diis">    1.61    1.62</time>
   <time name="orth">    0.07    0.07</time>
   <time name="total">    2.55    2.58</time>
   <energy>
    <i name="e_fr_energy">   -258.78536456 </i>
    <i name="e_wo_entrp">   -258.78536456 </i>
    <i name="e_0_energy">   -258.78536456 </i>
   </energy>
  </scstep>
  <scstep>
   <time name="diag">    0.73    0.75</time>
   <time name="diis">    1.44    1.45</time>
   <time name="orth">    0.07    0.07</time>
   <time name="total">    2.75    2.79</time>
   <energy>
    <i name="e_fr_energy">   -258.78538118 </i>
    <i name="e_wo_entrp">   -258.78538118 </i>
    <i name="e_0_energy">   -258.78538118 </i>
   </energy>
  </scstep>
  <scstep>
   <time name="diag">    0.35    0.36</time>
   <time name="diis">    1.58    1.60</time>
   <time name="orth">    0.07    0.07</time>
   <time name="total">    2.52    2.54</time>
   <energy>
    <i name="e_fr_energy">   -258.78538640 </i>
    <i name="e_wo_entrp">   -258.78538640 </i>
    <i name="e_0_energy">   -258.78538640 </i>
   </energy>
  </scstep>
  <scstep>
   <time name="diag">    0.35    0.36</time>
   <time name="diis">    1.27    1.28</time>
   <time name="orth">    0.07    0.07</time>
   <time name="total">    2.21    2.23</time>
   <energy>
    <i name="e_fr_energy">   -258.78538600 </i>
    <i name="e_wo_entrp">   -258.78538600 </i>
    <i name="e_0_energy">   -258.78538600 </i>
   </energy>
  </scstep>
  <scstep>
   <time name="diag">    0.36    0.36</time>
   <time name="diis">    0.93    0.94</time>
   <time name="orth">    0.07    0.07</time>
   <time name="total">    1.81    1.82</time>
   <energy>
    <i name="alphaZ">    301.20659102 </i>
    <i name="ewald">  -8828.01810528 </i>
    <i name="hartreedc">  -2200.34796066 </i>
    <i name="XCdc">    537.87774433 </i>
    <i name="pawpsdc">   9821.46840127 </i>
    <i name="pawaedc">  -9965.47309719 </i>
    <i name="eentropy">     -0.00000000 </i>
    <i name="bandstr">  -2628.63895505 </i>
    <i name="atom">  12703.13999606 </i>
    <i name="e_fr_energy">   -258.78538550 </i>
    <i name="e_wo_entrp">   -258.78538550 </i>
    <i name="e_0_energy">   -258.78538550 </i>
   </energy>
  </scstep>
  <structure>
   <crystal>
    <varray name="basis" >
     <v>       9.65930309       0.00000000       0.00000000 </v>
     <v>       0.00000000       9.65930309       0.00000000 </v>
     <v>       0.00000000       0.00000000       9.65930309 </v>
    </varray>
    <i name="volume">    901.23361099 </i>
    <varray name="rec_basis" >
     <v>       0.10352714       0.00000000       0.00000000 </v>
     <v>       0.00000000       0.10352714       0.00000000 </v>
     <v>       0.00000000       0.00000000       0.10352714 </v>
    </varray>
   </crystal>
   <varray name="positions" >
    <v>       0.96604536       0.32833571       0.33048130 </v>
    <v>       0.99129887       0.78664347       0.80832989 </v>
    <v>       0.02846199       0.20096815       0.82090684 </v>
    <v>       0.02087394       0.69993874       0.28261519 </v>
    <v>       0.31276676       0.32450781       0.96715308 </v>
    <v>       0.31349187       0.69480278       0.01383758 </v>
    <v>       0.67592521       0.31372947       0.02386535 </v>
    <v>       0.66586826       0.68861930       0.95610297 </v>
    <v>       0.17104927       0.96683388       0.16907497 </v>
    <v>       0.21840751       0.01004284       0.81044318 </v>
    <v>       0.80075556       0.97835360       0.79034313 </v>
    <v>       0.82362677       0.04520911       0.16283440 </v>
    <v>       0.22066327       0.69752523       0.47594633 </v>
    <v>       0.28977705       0.15754189       0.52582798 </v>
    <v>       0.81001022       0.71411238       0.51224487 </v>
    <v>       0.70723301       0.18417977       0.47482620 </v>
    <v>       0.18609151       0.45207475       0.66537245 </v>
    <v>       0.31369703       0.51967499       0.21964571 </v>
    <v>       0.69930417       0.49300945       0.22710472 </v>
    <v>       0.83042144       0.51989053       0.69790805 </v>
    <v>       0.48647688       0.21051864       0.70998264 </v>
    <v>       0.46378034       0.84322572       0.31405565 </v>
    <v>       0.51227138       0.20094240       0.28609047 </v>
    <v>       0.54343096       0.81519737       0.65751194 </v>
    <v>       0.50134508       0.50058586       0.51351727 </v>
    <v>       0.50619714       0.99678922       0.99782800 </v>
    <v>       0.99971793       0.49691348       0.00253858 </v>
    <v>       0.00564682       0.00450151       0.49137166 </v>
    <v>       0.13147190       0.88181078       0.61181131 </v>
    <v>       0.11783327       0.12612021       0.35860077 </v>
    <v>       0.87755251       0.89164074       0.36465473 </v>
    <v>       0.89392467       0.13223819       0.61955193 </v>
    <v>       0.87169934       0.63140478       0.10635424 </v>
    <v>       0.87290613       0.37296570       0.88573825 </v>
    <v>       0.13213390       0.59919531       0.87054387 </v>
    <v>       0.11974074       0.37991653       0.13210822 </v>
    <v>       0.63097108       0.12385252       0.88172858 </v>
    <v>       0.62844384       0.88170697       0.12608893 </v>
    <v>       0.36778232       0.11518199       0.10740123 </v>
    <v>       0.40429723       0.86526385       0.86554648 </v>
    <v>       0.60476235       0.64173561       0.39070203 </v>
    <v>       0.63929053       0.38056440       0.61987784 </v>
    <v>       0.38133376       0.61510945       0.64482391 </v>
    <v>       0.37081890       0.37357090       0.40220278 </v>
    <v>       0.76260204       0.74881904       0.74235453 </v>
    <v>       0.74361391       0.25916578       0.24913690 </v>
    <v>       0.25139039       0.75027913       0.24251762 </v>
    <v>       0.25431351       0.23796757       0.75054323 </v>
    <v>       0.00752064       0.99197662       0.96478592 </v>
    <v>       0.00078412       0.53325993       0.49179340 </v>
    <v>       0.50474664       0.02758714       0.49723084 </v>
    <v>       0.49623875       0.49882337       0.03466338 </v>
   </varray>
  </structure>
  <varray name="forces" >
   <v>      -0.00011992       0.00010366       0.00041002 </v>
   <v>      -0.00011937      -0.00031424       0.00014958 </v>
   <v>      -0.00035150      -0.00031841      -0.00030172 </v>
   <v>       0.00006757       0.00025318      -0.00047683 </v>
   <v>      -0.00080265       0.00038166      -0.00036877 </v>
   <v>       0.00057891       0.00074013       0.00028431 </v>
   <v>       0.00079458      -0.00033875      -0.00015536 </v>
   <v>      -0.00014751       0.00047242       0.00025803 </v>
   <v>       0.00041153       0.00003662       0.00046992 </v>
   <v>       0.00028328      -0.00005732      -0.00062743 </v>
   <v>       0.00001337      -0.00018693       0.00026322 </v>
   <v>       0.00023190      -0.00005650       0.00016444 </v>
   <v>      -0.00060209      -0.00019795      -0.00007193 </v>
   <v>       0.00081076       0.00207529      -0.00093305 </v>
   <v>       0.00086503       0.00055014       0.00040742 </v>
   <v>      -0.00009460       0.00006549       0.00021799 </v>
   <v>      -0.00114907       0.00064505       0.00131139 </v>
   <v>      -0.00041705      -0.00004474      -0.00049194 </v>
   <v>      -0.00124179      -0.00019352      -0.00045973 </v>
   <v>      -0.00112917       0.00006934       0.00014989 </v>
   <v>      -0.00029063       0.00084502       0.00133947 </v>
   <v>       0.00033493      -0.00088556       0.00050422 </v>
   <v>       0.00066647      -0.00161262      -0.00036032 </v>
   <v>       0.00000305      -0.00044587      -0.00055563 </v>
   <v>       0.00007487       0.00012277      -0.00015590 </v>
   <v>       0.00113942      -0.00230517      -0.00096387 </v>
   <v>       0.00004080       0.00076903      -0.00113348 </v>
   <v>      -0.00050246      -0.00162635       0.00036781 </v>
   <v>      -0.00040478       0.00011457      -0.00004250 </v>
   <v>       0.00067042       0.00071447      -0.00009857 </v>
   <v>       0.00055071       0.00021300      -0.00006640 </v>
   <v>      -0.00022867       0.00000661       0.00008206 </v>
   <v>      -0.00014190      -0.00049120       0.00039457 </v>
   <v>       0.00018463      -0.00003484      -0.00036118 </v>
   <v>       0.00004125       0.00017774       0.00127091 </v>
   <v>      -0.00012185      -0.00045006       0.00060679 </v>
   <v>       0.00035114       0.00038742       0.00000413 </v>
   <v>      -0.00091096       0.00084086      -0.00025554 </v>
   <v>      -0.00103730       0.00076960       0.00007758 </v>
   <v>       0.00042236       0.00061796       0.00034856 </v>
   <v>       0.00096845      -0.00030865       0.00059727 </v>
   <v>      -0.00032028      -0.00027072       0.00011980 </v>
   <v>      -0.00052025      -0.00016622      -0.00010854 </v>
   <v>       0.00118075      -0.00052223      -0.00149363 </v>
   <v>      -0.00037982      -0.00012999       0.00014555 </v>
   <v>       0.00041839       0.00005456       0.00006523 </v>
   <v>       0.00024233       0.00007605      -0.00008574 </v>
   <v>      -0.00078613       0.00080766      -0.00022873 </v>
   <v>       0.00008967       0.00008721       0.00089351 </v>
   <v>       0.00015444      -0.00043035       0.00043515 </v>
   <v>      -0.00014460      -0.00073009      -0.00073963 </v>
   <v>       0.00037336       0.00012078      -0.00080239 </v>
  </varray>
  <varray name="stress" >
   <v>      -1.47474253      -0.30347342       3.05035891 </v>
   <v>      -0.30347354      -0.10033763      -1.13897253 </v>
   <v>       3.05035925      -1.13897235       1.54289906 </v>
  </varray>
  <energy>
   <i name="e_fr_energy">   -272.36840142 </i>
   <i name="e_wo_entrp">   -272.36840142 </i>
   <i name="e_0_energy">   -272.36840142 </i>
  </energy>
  <time name="totalsc">   63.91   64.64</time>
 </calculation>
 <calculation>
  <scstep>
   <time name="dav">    2.24    2.26</time>
   <time name="total">    2.76    2.79</time>
   <energy>
    <i name="alphaZ">    301.20659102 </i>
    <i name="ewald">  -8828.01940563 </i>
    <i name="hartreedc">  -2200.35084960 </i>
    <i name="XCdc">    537.87780736 </i>
    <i name="pawpsdc">   9821.46439434 </i>
    <i name="pawaedc">  -9965.46900049 </i>
    <i name="eentropy">     -0.00000000 </i>
    <i name="bandstr">  -2628.63491915 </i>
    <i name="atom">  12703.13999606 </i>
    <i name="e_fr_energy">   -258.78538609 </i>
    <i name="e_wo_entrp">   -258.78538609 </i>
    <i name="e_0_energy">   -258.78538609 </i>
   </energy>
  </scstep>
  <scstep>
   <time name="diag">    0.36    0.37</time>
   <time name="diis">    0.85    0.85</time>
   <time name="orth">    0.07    0.07</time>
   <time name="total">    1.73    1.74</time>
   <energy>
    <i name="alphaZ">    301.20659102 </i>
    <i name="ewald">  -8828.01940563 </i>
    <i name="hartreedc">  -2200.35241315 </i>
    <i name="XCdc">    537.87763397 </i>
    <i name="pawpsdc">   9821.44263532 </i>
    <i name="pawaedc">  -9965.44680068 </i>
    <i name="eentropy">     -0.00000000 </i>
    <i name="bandstr">  -2628.63362325 </i>
    <i name="atom">  12703.13999606 </i>
    <i name="e_fr_energy">   -258.78538634 </i>
    <i name="e_wo_entrp">   -258.78538634 </i>
    <i name="e_0_energy">   -258.78538634 </i>
   </energy>
  </scstep>
  <structure>
   <crystal>
    <varray name="basis" >
     <v>       9.65930309       0.00000000       0.00000000 </v>
     <v>       0.00000000       9.65930309       0.00000000 </v>
     <v>       0.00000000       0.00000000       9.65930309 </v>
    </varray>
    <i name="volume">    901.23361099 </i>
    <varray name="rec_basis" >
     <v>       0.10352714       0.00000000       0.00000000 </v>
     <v>       0.00000000       0.10352714       0.00000000 </v>
     <v>       0.00000000       0.00000000       0.10352714 </v>
    </varray>
   </crystal>
   <varray name="positions" >
    <v>       0.96604512       0.32833592       0.33048212 </v>
    <v>       0.99129863       0.78664284       0.80833019 </v>
    <v>       0.02846129       0.20096752       0.82090623 </v>
    <v>       0.02087407       0.69993924       0.28261424 </v>
    <v>       0.31276516       0.32450858       0.96715234 </v>
    <v>       0.31349303       0.69480426       0.01383815 </v>
    <v>       0.67592680       0.31372879       0.02386504 </v>
    <v>       0.66586797       0.68862024       0.95610349 </v>
    <v>       0.17105009       0.96683395       0.16907590 </v>
    <v>       0.21840808       0.01004273       0.81044192 </v>
    <v>       0.80075559       0.97835323       0.79034366 </v>
    <v>       0.82362723       0.04520900       0.16283472 </v>
    <v>       0.22066206       0.69752483       0.47594619 </v>
    <v>       0.28977867       0.15754603       0.52582612 </v>
    <v>       0.81001195       0.71411348       0.51224568 </v>
    <v>       0.70723282       0.18417990       0.47482664 </v>
    <v>       0.18608922       0.45207603       0.66537507 </v>
    <v>       0.31369620       0.51967490       0.21964473 </v>
    <v>       0.69930169       0.49300906       0.22710380 </v>
    <v>       0.83041919       0.51989067       0.69790835 </v>
    <v>       0.48647630       0.21052033       0.70998531 </v>
    <v>       0.46378101       0.84322395       0.31405666 </v>
    <v>       0.51227271       0.20093918       0.28608975 </v>
    <v>       0.54343097       0.81519648       0.65751083 </v>
    <v>       0.50134523       0.50058611       0.51351696 </v>
    <v>       0.50619941       0.99678461       0.99782607 </v>
    <v>       0.99971801       0.49691501       0.00253632 </v>
    <v>       0.00564582       0.00449826       0.49137240 </v>
    <v>       0.13147109       0.88181101       0.61181122 </v>
    <v>       0.11783461       0.12612164       0.35860057 </v>
    <v>       0.87755361       0.89164116       0.36465460 </v>
    <v>       0.89392422       0.13223821       0.61955210 </v>
    <v>       0.87169905       0.63140379       0.10635503 </v>
    <v>       0.87290649       0.37296563       0.88573753 </v>
    <v>       0.13213398       0.59919567       0.87054641 </v>
    <v>       0.11974050       0.37991563       0.13210944 </v>
    <v>       0.63097178       0.12385329       0.88172859 </v>
    <v>       0.62844202       0.88170865       0.12608842 </v>
    <v>       0.36778025       0.11518353       0.10740138 </v>
    <v>       0.40429807       0.86526508       0.86554717 </v>
    <v>       0.60476429       0.64173500       0.39070322 </v>
    <v>       0.63928989       0.38056386       0.61987808 </v>
    <v>       0.38133272       0.61510911       0.64482369 </v>
    <v>       0.37082126       0.37356986       0.40219980 </v>
    <v>       0.76260128       0.74881878       0.74235482 </v>
    <v>       0.74361474       0.25916589       0.24913703 </v>
    <v>       0.25139087       0.75027929       0.24251745 </v>
    <v>       0.25431194       0.23796918       0.75054278 </v>
    <v>       0.00752082       0.99197679       0.96478770 </v>
    <v>       0.00078443       0.53325907       0.49179427 </v>
    <v>       0.50474635       0.02758568       0.49722937 </v>
    <v>       0.49623950       0.49882361       0.03466177 </v>
   </varray>
  </structure>
  <varray name="forces" >
   <v>      -0.00003674       0.00002850       0.00027134 </v>
   <v>      -0.00011772      -0.00013266       0.00011371 </v>
   <v>      -0.00019583      -0.00021585      -0.00012885 </v>
   <v>       0.00008994       0.00009151      -0.00026870 </v>
   <v>      -0.00046702       0.00016886      -0.00013694 </v>
   <v>       0.00035576       0.00038567       0.00025309 </v>
   <v>       0.00042374      -0.00019127      -0.00003121 </v>
   <v>      -0.00006084       0.00020684       0.00015154 </v>
   <v>       0.00028879       0.00011193       0.00029733 </v>
   <v>       0.00013026       0.00010337      -0.00028933 </v>
   <v>       0.00002991      -0.00006843       0.00016809 </v>
   <v>       0.00020237       0.00006404       0.00008408 </v>
   <v>      -0.00030526      -0.00012765      -0.00002546 </v>
   <v>       0.00045055       0.00124953      -0.00057407 </v>
   <v>       0.00055241       0.00027676       0.00028840 </v>
   <v>      -0.00008576       0.00002151       0.00015128 </v>
   <v>      -0.00070391       0.00035490       0.00076277 </v>
   <v>      -0.00024222      -0.00009228      -0.00027851 </v>
   <v>      -0.00077369      -0.00017220      -0.00027690 </v>
   <v>      -0.00066123       0.00001444       0.00008022 </v>
   <v>      -0.00022180       0.00050984       0.00080503 </v>
   <v>       0.00013812      -0.00051396       0.00034834 </v>
   <v>       0.00033078      -0.00098790      -0.00027127 </v>
   <v>       0.00002074      -0.00027344      -0.00036311 </v>
   <v>      -0.00008356      -0.00006198      -0.00015947 </v>
   <v>       0.00021757      -0.00039380      -0.00034344 </v>
   <v>       0.00001711       0.00015896      -0.00025682 </v>
   <v>      -0.00005732      -0.00047578       0.00011738 </v>
   <v>      -0.00005277      -0.00025173       0.00021026 </v>
   <v>       0.00016107       0.00002609       0.00038018 </v>
   <v>       0.00005613      -0.00024788      -0.00018113 </v>
   <v>      -0.00010706      -0.00014179       0.00004756 </v>
   <v>      -0.00013257      -0.00023693       0.00032097 </v>
   <v>       0.00009078      -0.00005492      -0.00028931 </v>
   <v>       0.00031392       0.00040456       0.00038795 </v>
   <v>      -0.00019189       0.00000348       0.00008285 </v>
   <v>       0.00016025       0.00012678      -0.00001463 </v>
   <v>      -0.00009411       0.00004068       0.00033174 </v>
   <v>       0.00009903      -0.00002201      -0.00041942 </v>
   <v>      -0.00016162      -0.00002859      -0.00025665 </v>
   <v>       0.00061360      -0.00011876       0.00020649 </v>
   <v>      -0.00016404      -0.00026113       0.00011618 </v>
   <v>      -0.00038611      -0.00006027      -0.00016510 </v>
   <v>       0.00077894      -0.00023577      -0.00091633 </v>
   <v>       0.00002334      -0.00001726       0.00000131 </v>
   <v>       0.00001990       0.00010431       0.00007845 </v>
   <v>       0.00008985      -0.00013621       0.00002881 </v>
   <v>      -0.00039956       0.00027738      -0.00014957 </v>
   <v>       0.00015926       0.00006388      -0.00050622 </v>
   <v>       0.00001302       0.00045603       0.00011567 </v>
   <v>      -0.00013809       0.00040778      -0.00025982 </v>
   <v>       0.00001361      -0.00013714       0.00036125 </v>
  </varray>
  <varray name="stress" >
   <v>      -1.48361277      -0.30208787       3.05355427 </v>
   <v>      -0.30208832      -0.10872634      -1.13938729 </v>
   <v>       3.05355466      -1.13938708       1.53489932 </v>
  </varray>
  <energy>
   <i name="e_fr_energy">   -272.36840270 </i>
   <i name="e_wo_entrp">   -272.36840270 </i>
   <i name="e_0_energy">   -272.36840270 </i>
  </energy>
  <time name="totalsc">    7.54    7.62</time>
 </calculation>
 <calculation>
  <scstep>
   <time name="dav">    2.19    2.21</time>
   <time name="total">    2.71    2.73</time>
   <energy>
    <i name="alphaZ">    301.20659102 </i>
    <i name="ewald">  -8828.02022736 </i>
    <i name="hartreedc">  -2200.35218292 </i>
    <i name="XCdc">    537.87748246 </i>
    <i name="pawpsdc">   9821.42668344 </i>
    <i name="pawaedc">  -9965.43044018 </i>
    <i name="eentropy">     -0.00000000 </i>
    <i name="bandstr">  -2628.63328902 </i>
    <i name="atom">  12703.13999606 </i>
    <i name="e_fr_energy">   -258.78538650 </i>
    <i name="e_wo_entrp">   -258.78538650 </i>
    <i name="e_0_energy">   -258.78538650 </i>
   </energy>
  </scstep>
  <scstep>
   <time name="diag">    0.36    0.36</time>
   <time name="diis">    0.81    0.82</time>
   <time name="orth">    0.07    0.07</time>
   <time name="total">    1.69    1.70</time>
   <energy>
    <i name="alphaZ">    301.20659102 </i>
    <i name="ewald">  -8828.02022736 </i>
    <i name="hartreedc">  -2200.35214997 </i>
    <i name="XCdc">    537.87737666 </i>
    <i name="pawpsdc">   9821.41617939 </i>
    <i name="pawaedc">  -9965.41973291 </i>
    <i name="eentropy">     -0.00000000 </i>
    <i name="bandstr">  -2628.63341946 </i>
    <i name="atom">  12703.13999606 </i>
    <i name="e_fr_energy">   -258.78538657 </i>
    <i name="e_wo_entrp">   -258.78538657 </i>
    <i name="e_0_energy">   -258.78538657 </i>
   </energy>
  </scstep>
  <structure>
   <crystal>
    <varray name="basis" >
     <v>       9.65930309       0.00000000       0.00000000 </v>
     <v>       0.00000000       9.65930309       0.00000000 </v>
     <v>       0.00000000       0.00000000       9.65930309 </v>
    </varray>
    <i name="volume">    901.23361099 </i>
    <varray name="rec_basis" >
     <v>       0.10352714       0.00000000       0.00000000 </v>
     <v>       0.00000000       0.10352714       0.00000000 </v>
     <v>       0.00000000       0.00000000       0.10352714 </v>
    </varray>
   </crystal>
   <varray name="positions" >
    <v>       0.96604497       0.32833605       0.33048264 </v>
    <v>       0.99129848       0.78664244       0.80833038 </v>
    <v>       0.02846084       0.20096712       0.82090585 </v>
    <v>       0.02087416       0.69993956       0.28261363 </v>
    <v>       0.31276414       0.32450906       0.96715188 </v>
    <v>       0.31349376       0.69480519       0.01383851 </v>
    <v>       0.67592780       0.31372836       0.02386484 </v>
    <v>       0.66586778       0.68862084       0.95610381 </v>
    <v>       0.17105061       0.96683400       0.16907650 </v>
    <v>       0.21840844       0.01004265       0.81044113 </v>
    <v>       0.80075561       0.97835299       0.79034399 </v>
    <v>       0.82362752       0.04520893       0.16283493 </v>
    <v>       0.22066130       0.69752458       0.47594610 </v>
    <v>       0.28977969       0.15754866       0.52582494 </v>
    <v>       0.81001304       0.71411418       0.51224620 </v>
    <v>       0.70723270       0.18417999       0.47482691 </v>
    <v>       0.18608776       0.45207685       0.66537673 </v>
    <v>       0.31369567       0.51967484       0.21964411 </v>
    <v>       0.69930012       0.49300882       0.22710322 </v>
    <v>       0.83041776       0.51989075       0.69790854 </v>
    <v>       0.48647594       0.21052140       0.70998701 </v>
    <v>       0.46378143       0.84322283       0.31405730 </v>
    <v>       0.51227356       0.20093714       0.28608930 </v>
    <v>       0.54343097       0.81519592       0.65751013 </v>
    <v>       0.50134532       0.50058626       0.51351676 </v>
    <v>       0.50620085       0.99678170       0.99782485 </v>
    <v>       0.99971806       0.49691598       0.00253488 </v>
    <v>       0.00564518       0.00449620       0.49137286 </v>
    <v>       0.13147058       0.88181116       0.61181117 </v>
    <v>       0.11783546       0.12612254       0.35860044 </v>
    <v>       0.87755431       0.89164143       0.36465451 </v>
    <v>       0.89392393       0.13223822       0.61955220 </v>
    <v>       0.87169887       0.63140317       0.10635552 </v>
    <v>       0.87290673       0.37296558       0.88573708 </v>
    <v>       0.13213403       0.59919589       0.87054802 </v>
    <v>       0.11974035       0.37991506       0.13211020 </v>
    <v>       0.63097223       0.12385378       0.88172860 </v>
    <v>       0.62844087       0.88170972       0.12608809 </v>
    <v>       0.36777894       0.11518450       0.10740148 </v>
    <v>       0.40429860       0.86526586       0.86554761 </v>
    <v>       0.60476551       0.64173461       0.39070398 </v>
    <v>       0.63928948       0.38056352       0.61987823 </v>
    <v>       0.38133206       0.61510890       0.64482355 </v>
    <v>       0.37082275       0.37356920       0.40219791 </v>
    <v>       0.76260080       0.74881861       0.74235501 </v>
    <v>       0.74361527       0.25916596       0.24913712 </v>
    <v>       0.25139118       0.75027938       0.24251734 </v>
    <v>       0.25431095       0.23797020       0.75054249 </v>
    <v>       0.00752093       0.99197690       0.96478883 </v>
    <v>       0.00078463       0.53325853       0.49179482 </v>
    <v>       0.50474617       0.02758475       0.49722843 </v>
    <v>       0.49623997       0.49882377       0.03466076 </v>
   </varray>
  </structure>
  <varray name="forces" >
   <v>      -0.00002951       0.00000927       0.00029893 </v>
   <v>      -0.00013922      -0.00017972       0.00014188 </v>
   <v>      -0.00023129      -0.00025825      -0.00015917 </v>
   <v>       0.00011533       0.00008584      -0.00034155 </v>
   <v>      -0.00061034       0.00020463      -0.00018215 </v>
   <v>       0.00047245       0.00049620       0.00030873 </v>
   <v>       0.00056636      -0.00025908      -0.00004896 </v>
   <v>      -0.00007057       0.00020068       0.00016919 </v>
   <v>       0.00035380       0.00016344       0.00034283 </v>
   <v>       0.00014801       0.00014321      -0.00031624 </v>
   <v>       0.00002451      -0.00005527       0.00017218 </v>
   <v>       0.00025663       0.00009049       0.00006865 </v>
   <v>      -0.00040408      -0.00018952      -0.00004855 </v>
   <v>       0.00060813       0.00167778      -0.00080079 </v>
   <v>       0.00070141       0.00033826       0.00034672 </v>
   <v>      -0.00007965       0.00000986       0.00014691 </v>
   <v>      -0.00095615       0.00046534       0.00099667 </v>
   <v>      -0.00031320      -0.00013995      -0.00035746 </v>
   <v>      -0.00100550      -0.00024416      -0.00039434 </v>
   <v>      -0.00088490      -0.00001400       0.00008803 </v>
   <v>      -0.00029343       0.00069145       0.00108812 </v>
   <v>       0.00018293      -0.00066246       0.00045282 </v>
   <v>       0.00046070      -0.00135446      -0.00037784 </v>
   <v>       0.00002126      -0.00033304      -0.00045731 </v>
   <v>      -0.00012678      -0.00022263      -0.00017295 </v>
   <v>      -0.00031891       0.00070712       0.00001965 </v>
   <v>       0.00000896      -0.00024673       0.00029221 </v>
   <v>       0.00019548       0.00026336      -0.00007348 </v>
   <v>      -0.00003849      -0.00040853       0.00024844 </v>
   <v>       0.00001555      -0.00016563       0.00057750 </v>
   <v>       0.00000934      -0.00034410      -0.00027976 </v>
   <v>      -0.00010683      -0.00026256      -0.00003240 </v>
   <v>      -0.00016535      -0.00027600       0.00029545 </v>
   <v>       0.00015160      -0.00001394      -0.00036767 </v>
   <v>       0.00045452       0.00055073       0.00036821 </v>
   <v>      -0.00035823       0.00008642      -0.00007498 </v>
   <v>       0.00017965      -0.00000689      -0.00000745 </v>
   <v>       0.00007320      -0.00014862       0.00047333 </v>
   <v>       0.00033394      -0.00028002      -0.00070123 </v>
   <v>      -0.00018716      -0.00022912      -0.00046186 </v>
   <v>       0.00074599      -0.00012203       0.00028133 </v>
   <v>      -0.00022810      -0.00023149       0.00014892 </v>
   <v>      -0.00038578      -0.00011548      -0.00020787 </v>
   <v>       0.00098113      -0.00019189      -0.00102285 </v>
   <v>      -0.00008651      -0.00006217       0.00005360 </v>
   <v>       0.00013729       0.00006477       0.00008495 </v>
   <v>       0.00014297      -0.00011311       0.00001976 </v>
   <v>      -0.00052731       0.00044302      -0.00023113 </v>
   <v>       0.00016738       0.00005923      -0.00023568 </v>
   <v>       0.00005419       0.00031048       0.00024965 </v>
   <v>      -0.00015795       0.00014947      -0.00045402 </v>
   <v>       0.00014250      -0.00008020       0.00007300 </v>
  </varray>
  <varray name="stress" >
   <v>      -1.48633439      -0.30152036       3.05515874 </v>
   <v>      -0.30152053      -0.11127705      -1.13958151 </v>
   <v>       3.05515901      -1.13958134       1.53251855 </v>
  </varray>
  <energy>
   <i name="e_fr_energy">   -272.36840320 </i>
   <i name="e_wo_entrp">   -272.36840320 </i>
   <i name="e_0_energy">   -272.36840320 </i>
  </energy>
  <time name="totalsc">    7.45    7.53</time>
 </calculation>
 <calculation>
  <scstep>
   <time name="dav">    2.39    2.40</time>
   <time name="total">    2.91    2.93</time>
   <energy>
    <i name="alphaZ">    301.20659102 </i>
    <i name="ewald">  -8828.02186901 </i>
    <i name="hartreedc">  -2200.35039683 </i>
    <i name="XCdc">    537.87729865 </i>
    <i name="pawpsdc">   9821.40930452 </i>
    <i name="pawaedc">  -9965.41276856 </i>
    <i name="eentropy">     -0.00000000 </i>
    <i name="bandstr">  -2628.63354213 </i>
    <i name="atom">  12703.13999606 </i>
    <i name="e_fr_energy">   -258.78538627 </i>
    <i name="e_wo_entrp">   -258.78538627 </i>
    <i name="e_0_energy">   -258.78538627 </i>
   </energy>
  </scstep>
  <scstep>
   <time name="diag">    0.36    0.36</time>
   <time name="diis">    0.86    0.86</time>
   <time name="orth">    0.07    0.07</time>
   <time name="total">    1.74    1.75</time>
   <energy>
    <i name="alphaZ">    301.20659102 </i>
    <i name="ewald">  -8828.02186901 </i>
    <i name="hartreedc">  -2200.35029538 </i>
    <i name="XCdc">    537.87727327 </i>
    <i name="pawpsdc">   9821.40741517 </i>
    <i name="pawaedc">  -9965.41084967 </i>
    <i name="eentropy">     -0.00000000 </i>
    <i name="bandstr">  -2628.63364799 </i>
    <i name="atom">  12703.13999606 </i>
    <i name="e_fr_energy">   -258.78538654 </i>
    <i name="e_wo_entrp">   -258.78538654 </i>
    <i name="e_0_energy">   -258.78538654 </i>
   </energy>
  </scstep>
  <structure>
   <crystal>
    <varray name="basis" >
     <v>       9.65930309       0.00000000       0.00000000 </v>
     <v>       0.00000000       9.65930309       0.00000000 </v>
     <v>       0.00000000       0.00000000       9.65930309 </v>
    </varray>
    <i name="volume">    901.23361099 </i>
    <varray name="rec_basis" >
     <v>       0.10352714       0.00000000       0.00000000 </v>
     <v>       0.00000000       0.10352714       0.00000000 </v>
     <v>       0.00000000       0.00000000       0.10352714 </v>
    </varray>
   </crystal>
   <varray name="positions" >
    <v>       0.96604467       0.32833631       0.33048367 </v>
    <v>       0.99129818       0.78664165       0.80833076 </v>
    <v>       0.02845996       0.20096631       0.82090509 </v>
    <v>       0.02087433       0.69994020       0.28261243 </v>
    <v>       0.31276212       0.32451002       0.96715094 </v>
    <v>       0.31349522       0.69480706       0.01383923 </v>
    <v>       0.67592981       0.31372750       0.02386445 </v>
    <v>       0.66586741       0.68862203       0.95610446 </v>
    <v>       0.17105165       0.96683409       0.16907769 </v>
    <v>       0.21840915       0.01004251       0.81043955 </v>
    <v>       0.80075564       0.97835252       0.79034465 </v>
    <v>       0.82362811       0.04520879       0.16283535 </v>
    <v>       0.22065978       0.69752408       0.47594592 </v>
    <v>       0.28978174       0.15755390       0.52582258 </v>
    <v>       0.81001523       0.71411557       0.51224723 </v>
    <v>       0.70723246       0.18418015       0.47482746 </v>
    <v>       0.18608486       0.45207848       0.66538004 </v>
    <v>       0.31369462       0.51967473       0.21964287 </v>
    <v>       0.69929698       0.49300833       0.22710206 </v>
    <v>       0.83041491       0.51989093       0.69790892 </v>
    <v>       0.48647520       0.21052353       0.70999039 </v>
    <v>       0.46378228       0.84322059       0.31405857 </v>
    <v>       0.51227524       0.20093307       0.28608839 </v>
    <v>       0.54343098       0.81519479       0.65750872 </v>
    <v>       0.50134551       0.50058657       0.51351637 </v>
    <v>       0.50620373       0.99677587       0.99782242 </v>
    <v>       0.99971816       0.49691793       0.00253202 </v>
    <v>       0.00564391       0.00449209       0.49137379 </v>
    <v>       0.13146956       0.88181145       0.61181106 </v>
    <v>       0.11783715       0.12612435       0.35860019 </v>
    <v>       0.87755570       0.89164197       0.36465435 </v>
    <v>       0.89392335       0.13223823       0.61955241 </v>
    <v>       0.87169852       0.63140193       0.10635652 </v>
    <v>       0.87290719       0.37296549       0.88573616 </v>
    <v>       0.13213413       0.59919634       0.87055123 </v>
    <v>       0.11974004       0.37991392       0.13211174 </v>
    <v>       0.63097311       0.12385476       0.88172861 </v>
    <v>       0.62843857       0.88171184       0.12608745 </v>
    <v>       0.36777632       0.11518645       0.10740168 </v>
    <v>       0.40429967       0.86526742       0.86554850 </v>
    <v>       0.60476796       0.64173383       0.39070548 </v>
    <v>       0.63928867       0.38056284       0.61987853 </v>
    <v>       0.38133075       0.61510848       0.64482328 </v>
    <v>       0.37082574       0.37356788       0.40219414 </v>
    <v>       0.76259984       0.74881828       0.74235537 </v>
    <v>       0.74361633       0.25916610       0.24913728 </v>
    <v>       0.25139179       0.75027958       0.24251713 </v>
    <v>       0.25430896       0.23797224       0.75054191 </v>
    <v>       0.00752116       0.99197712       0.96479109 </v>
    <v>       0.00078502       0.53325744       0.49179592 </v>
    <v>       0.50474581       0.02758291       0.49722656 </v>
    <v>       0.49624091       0.49882407       0.03465873 </v>
   </varray>
  </structure>
  <varray name="forces" >
   <v>       0.00004852      -0.00003823       0.00020294 </v>
   <v>      -0.00015490      -0.00006991       0.00013555 </v>
   <v>      -0.00014832      -0.00019870      -0.00006073 </v>
   <v>       0.00014953      -0.00000327      -0.00024778 </v>
   <v>      -0.00036708       0.00002047       0.00003977 </v>
   <v>       0.00032370       0.00024568       0.00031162 </v>
   <v>       0.00030529      -0.00014583       0.00005977 </v>
   <v>       0.00000026       0.00004260       0.00013346 </v>
   <v>       0.00030781       0.00028202       0.00025770 </v>
   <v>       0.00007160       0.00030536      -0.00012178 </v>
   <v>       0.00003364       0.00005432       0.00011615 </v>
   <v>       0.00025216       0.00019904       0.00001294 </v>
   <v>      -0.00026785      -0.00016559      -0.00003694 </v>
   <v>       0.00034479       0.00113521      -0.00055613 </v>
   <v>       0.00045304       0.00013822       0.00025898 </v>
   <v>      -0.00006935       0.00001369       0.00009198 </v>
   <v>      -0.00063558       0.00028670       0.00058743 </v>
   <v>      -0.00025417      -0.00017487      -0.00026324 </v>
   <v>      -0.00064757      -0.00023147      -0.00027263 </v>
   <v>      -0.00056793      -0.00006634       0.00003577 </v>
   <v>      -0.00025059       0.00047398       0.00071788 </v>
   <v>       0.00003124      -0.00036375       0.00033783 </v>
   <v>       0.00023235      -0.00092194      -0.00033171 </v>
   <v>       0.00001826      -0.00021322      -0.00034356 </v>
   <v>      -0.00030738      -0.00045064      -0.00013379 </v>
   <v>      -0.00145012       0.00311719       0.00077522 </v>
   <v>      -0.00003307      -0.00102528       0.00137899 </v>
   <v>       0.00073013       0.00179451      -0.00043316 </v>
   <v>       0.00028792      -0.00077291       0.00048070 </v>
   <v>      -0.00065525      -0.00090607       0.00111440 </v>
   <v>      -0.00045316      -0.00070606      -0.00050804 </v>
   <v>       0.00005140      -0.00045969      -0.00017769 </v>
   <v>      -0.00017306      -0.00007878       0.00011924 </v>
   <v>       0.00011820       0.00004779      -0.00030616 </v>
   <v>       0.00081995       0.00081997      -0.00041731 </v>
   <v>      -0.00063913       0.00057707      -0.00067217 </v>
   <v>       0.00000786      -0.00034804       0.00005102 </v>
   <v>       0.00092995      -0.00094897       0.00109279 </v>
   <v>       0.00150167      -0.00123405      -0.00139957 </v>
   <v>      -0.00063780      -0.00097405      -0.00113846 </v>
   <v>       0.00048542       0.00011218       0.00008541 </v>
   <v>      -0.00015657      -0.00009935       0.00015828 </v>
   <v>      -0.00018412      -0.00009755      -0.00024419 </v>
   <v>       0.00076393       0.00013064      -0.00049754 </v>
   <v>       0.00006316       0.00000053       0.00004232 </v>
   <v>       0.00000524       0.00001793       0.00006764 </v>
   <v>       0.00007905      -0.00014526       0.00008904 </v>
   <v>      -0.00023807       0.00016565      -0.00019426 </v>
   <v>       0.00010842       0.00002914      -0.00060286 </v>
   <v>      -0.00015260       0.00049446      -0.00003007 </v>
   <v>      -0.00009010       0.00041947      -0.00017865 </v>
   <v>       0.00000929      -0.00008401       0.00041361 </v>
  </varray>
  <varray name="stress" >
   <v>      -1.48639228      -0.29985303       3.05949114 </v>
   <v>      -0.29985324      -0.11122790      -1.14013470 </v>
   <v>       3.05949139      -1.14013445       1.53328714 </v>
  </varray>
  <energy>
   <i name="e_fr_energy">   -272.36840370 </i>
   <i name="e_wo_entrp">   -272.36840370 </i>
   <i name="e_0_energy">   -272.36840370 </i>
  </energy>
  <time name="totalsc">    7.70    7.78</time>
 </calculation>
 <calculation>
  <scstep>
   <time name="dav">    2.36    2.38</time>
   <time name="total">    2.88    2.90</time>
   <energy>
    <i name="alphaZ">    301.20659102 </i>
    <i name="ewald">  -8828.02184807 </i>
    <i name="hartreedc">  -2200.35018686 </i>
    <i name="XCdc">    537.87723428 </i>
    <i name="pawpsdc">   9821.40541384 </i>
    <i name="pawaedc">  -9965.40881666 </i>
    <i name="eentropy">     -0.00000000 </i>
    <i name="bandstr">  -2628.63377045 </i>
    <i name="atom">  12703.13999606 </i>
    <i name="e_fr_energy">   -258.78538683 </i>
    <i name="e_wo_entrp">   -258.78538683 </i>
    <i name="e_0_energy">   -258.78538683 </i>
   </energy>
  </scstep>
  <scstep>
   <time name="diag">    0.37    0.37</time>
   <time name="diis">    0.81    0.82</time>
   <time name="orth">    0.07    0.07</time>
   <time name="total">    1.70    1.71</time>
   <energy>
    <i name="alphaZ">    301.20659102 </i>
    <i name="ewald">  -8828.02184807 </i>
    <i name="hartreedc">  -2200.35009835 </i>
    <i name="XCdc">    537.87722728 </i>
    <i name="pawpsdc">   9821.40572682 </i>
    <i name="pawaedc">  -9965.40912949 </i>
    <i name="eentropy">     -0.00000000 </i>
    <i name="bandstr">  -2628.63385237 </i>
    <i name="atom">  12703.13999606 </i>
    <i name="e_fr_energy">   -258.78538710 </i>
    <i name="e_wo_entrp">   -258.78538710 </i>
    <i name="e_0_energy">   -258.78538710 </i>
   </energy>
  </scstep>
  <structure>
   <crystal>
    <varray name="basis" >
     <v>       9.65930309       0.00000000       0.00000000 </v>
     <v>       0.00000000       9.65930309       0.00000000 </v>
     <v>       0.00000000       0.00000000       9.65930309 </v>
    </varray>
    <i name="volume">    901.23361099 </i>
    <varray name="rec_basis" >
     <v>       0.10352714       0.00000000       0.00000000 </v>
     <v>       0.00000000       0.10352714       0.00000000 </v>
     <v>       0.00000000       0.00000000       0.10352714 </v>
    </varray>
   </crystal>
   <varray name="positions" >
    <v>       0.96604454       0.32833643       0.33048480 </v>
    <v>       0.99129768       0.78664094       0.80833128 </v>
    <v>       0.02845904       0.20096536       0.82090443 </v>
    <v>       0.02087473       0.69994066       0.28261110 </v>
    <v>       0.31275997       0.32451076       0.96715035 </v>
    <v>       0.31349688       0.69480886       0.01384032 </v>
    <v>       0.67593182       0.31372662       0.02386428 </v>
    <v>       0.66586714       0.68862297       0.95610518 </v>
    <v>       0.17105297       0.96683468       0.16907902 </v>
    <v>       0.21840980       0.01004297       0.81043818 </v>
    <v>       0.80075573       0.97835228       0.79034535 </v>
    <v>       0.82362900       0.04520905       0.16283567 </v>
    <v>       0.22065819       0.69752341       0.47594572 </v>
    <v>       0.28978386       0.15755978       0.52581985 </v>
    <v>       0.81001764       0.71411683       0.51224845 </v>
    <v>       0.70723216       0.18418030       0.47482803 </v>
    <v>       0.18608159       0.45208019       0.66538352 </v>
    <v>       0.31369339       0.51967433       0.21964148 </v>
    <v>       0.69929352       0.49300755       0.22710072 </v>
    <v>       0.83041180       0.51989093       0.69790926 </v>
    <v>       0.48647421       0.21052595       0.70999416 </v>
    <v>       0.46378295       0.84321830       0.31406011 </v>
    <v>       0.51227688       0.20092842       0.28608712 </v>
    <v>       0.54343102       0.81519358       0.65750707 </v>
    <v>       0.50134508       0.50058596       0.51351583 </v>
    <v>       0.50620312       0.99677745       0.99782210 </v>
    <v>       0.99971818       0.49691743       0.00253251 </v>
    <v>       0.00564435       0.00449245       0.49137366 </v>
    <v>       0.13146936       0.88181022       0.61181187 </v>
    <v>       0.11783716       0.12612397       0.35860208 </v>
    <v>       0.87755586       0.89164105       0.36465329 </v>
    <v>       0.89392303       0.13223739       0.61955223 </v>
    <v>       0.87169794       0.63140089       0.10635746 </v>
    <v>       0.87290775       0.37296552       0.88573494 </v>
    <v>       0.13213573       0.59919818       0.87055277 </v>
    <v>       0.11973863       0.37991417       0.13211160 </v>
    <v>       0.63097377       0.12385482       0.88172871 </v>
    <v>       0.62843863       0.88171162       0.12608901 </v>
    <v>       0.36777721       0.11518556       0.10739923 </v>
    <v>       0.40429926       0.86526675       0.86554702 </v>
    <v>       0.60477062       0.64173347       0.39070673 </v>
    <v>       0.63928780       0.38056216       0.61987904 </v>
    <v>       0.38132946       0.61510800       0.64482263 </v>
    <v>       0.37082930       0.37356717       0.40219050 </v>
    <v>       0.76259927       0.74881805       0.74235572 </v>
    <v>       0.74361710       0.25916623       0.24913753 </v>
    <v>       0.25139238       0.75027944       0.24251714 </v>
    <v>       0.25430709       0.23797402       0.75054113 </v>
    <v>       0.00752152       0.99197734       0.96479160 </v>
    <v>       0.00078501       0.53325757       0.49179666 </v>
    <v>       0.50474538       0.02758236       0.49722488 </v>
    <v>       0.49624161       0.49882414       0.03465804 </v>
   </varray>
  </structure>
  <varray name="forces" >
   <v>      -0.00001260      -0.00001390       0.00016511 </v>
   <v>      -0.00007272      -0.00008034       0.00007916 </v>
   <v>      -0.00011881      -0.00018347      -0.00007183 </v>
   <v>       0.00009606       0.00000461      -0.00019833 </v>
   <v>      -0.00039114       0.00011120      -0.00008622 </v>
   <v>       0.00032911       0.00026466       0.00019843 </v>
   <v>       0.00036282      -0.00015150       0.00002259 </v>
   <v>      -0.00001394       0.00005863       0.00012531 </v>
   <v>       0.00020318       0.00010805       0.00018437 </v>
   <v>       0.00010133       0.00016364      -0.00022459 </v>
   <v>       0.00004448      -0.00003404       0.00007277 </v>
   <v>       0.00015056       0.00005357       0.00000671 </v>
   <v>      -0.00021930      -0.00013623      -0.00002696 </v>
   <v>       0.00037074       0.00106339      -0.00045542 </v>
   <v>       0.00047594       0.00015230       0.00021317 </v>
   <v>      -0.00006327      -0.00001432       0.00003897 </v>
   <v>      -0.00062614       0.00032525       0.00058201 </v>
   <v>      -0.00018059      -0.00009956      -0.00022388 </v>
   <v>      -0.00065272      -0.00021090      -0.00028576 </v>
   <v>      -0.00056901      -0.00005691       0.00002100 </v>
[...]
       <r>     7.9610     9.4354   143.7533 </r>
       <r>     8.1537    13.3188   146.3197 </r>
       <r>     8.3464    16.3100   149.4624 </r>
       <r>     8.5391    13.8210   152.1290 </r>
       <r>     8.7318    15.0637   155.0336 </r>
       <r>     8.9245    14.9657   157.9192 </r>
       <r>     9.1171    18.8575   161.5533 </r>
       <r>     9.3098    21.7567   165.7475 </r>
       <r>     9.5025    14.7259   168.5857 </r>
       <r>     9.6952    18.0069   172.0561 </r>
       <r>     9.8879    15.4981   175.0424 </r>
       <r>    10.0806     4.9520   176.0000 </r>
       <r>    10.2733     0.0000   176.0000 </r>
       <r>    10.4659     0.0000   176.0000 </r>
       <r>    10.6586     0.0000   176.0000 </r>
       <r>    10.8513     0.0000   176.0000 </r>
       <r>    11.0440     0.0000   176.0000 </r>
       <r>    11.2367     0.0000   176.0000 </r>
       <r>    11.4294     0.0000   176.0000 </r>
       <r>    11.6221     0.0000   176.0000 </r>
       <r>    11.8147     0.0000   176.0000 </r>
       <r>    12.0074     0.0000   176.0000 </r>
       <r>    12.2001     0.0000   176.0000 </r>
       <r>    12.3928     0.0000   176.0000 </r>
       <r>    12.5855     0.0000   176.0000 </r>
      </set>
      <set comment="spin 2">
       <r>   -45.2202     0.0000     0.0000 </r>
       <r>   -45.0275     0.0000     0.0000 </r>
       <r>   -44.8348     0.0000     0.0000 </r>
       <r>   -44.6421     0.0000     0.0000 </r>
       <r>   -44.4494     0.0000     0.0000 </r>
       <r>   -44.2567     0.0000     0.0000 </r>
       <r>   -44.0641     0.0000     0.0000 </r>
       <r>   -43.8714     0.0000     0.0000 </r>
       <r>   -43.6787     0.0000     0.0000 </r>
       <r>   -43.4860     0.0000     0.0000 </r>
       <r>   -43.2933     0.0000     0.0000 </r>
       <r>   -43.1006     0.0000     0.0000 </r>
       <r>   -42.9079     0.0000     0.0000 </r>
       <r>   -42.7153     0.0000     0.0000 </r>
       <r>   -42.5226    14.3010     2.7556 </r>
       <r>   -42.3299    56.9708    13.7392 </r>
       <r>   -42.1372    53.2339    24.0000 </r>
       <r>   -41.9445     0.0000    24.0000 </r>
       <r>   -41.7518     0.0000    24.0000 </r>
       <r>   -41.5591     0.0000    24.0000 </r>
       <r>   -41.3665     0.0000    24.0000 </r>
       <r>   -41.1738     0.0000    24.0000 </r>
       <r>   -40.9811     0.0000    24.0000 </r>
       <r>   -40.7884     0.0000    24.0000 </r>
       <r>   -40.5957     0.0000    24.0000 </r>
       <r>   -40.4030     0.0000    24.0000 </r>
       <r>   -40.2103     0.0000    24.0000 </r>
       <r>   -40.0177     0.0000    24.0000 </r>
       <r>   -39.8250     0.0000    24.0000 </r>
       <r>   -39.6323     0.0000    24.0000 </r>
       <r>   -39.4396     0.0000    24.0000 </r>
       <r>   -39.2469     0.0000    24.0000 </r>
       <r>   -39.0542     0.0000    24.0000 </r>
       <r>   -38.8615     0.0000    24.0000 </r>
       <r>   -38.6689     0.0000    24.0000 </r>
       <r>   -38.4762     0.0000    24.0000 </r>
       <r>   -38.2835     0.0000    24.0000 </r>
       <r>   -38.0908     0.0000    24.0000 </r>
       <r>   -37.8981     0.0000    24.0000 </r>
       <r>   -37.7054     0.0000    24.0000 </r>
       <r>   -37.5128     0.0000    24.0000 </r>
       <r>   -37.3201     0.0000    24.0000 </r>
       <r>   -37.1274     0.0000    24.0000 </r>
       <r>   -36.9347     0.0000    24.0000 </r>
       <r>   -36.7420     0.0000    24.0000 </r>
       <r>   -36.5493     0.0000    24.0000 </r>
       <r>   -36.3566     0.0000    24.0000 </r>
       <r>   -36.1640     0.0000    24.0000 </r>
       <r>   -35.9713     0.0000    24.0000 </r>
       <r>   -35.7786     0.0000    24.0000 </r>
       <r>   -35.5859     0.0000    24.0000 </r>
       <r>   -35.3932     0.0000    24.0000 </r>
       <r>   -35.2005     0.0000    24.0000 </r>
       <r>   -35.0078     0.0000    24.0000 </r>
       <r>   -34.8152     0.0000    24.0000 </r>
       <r>   -34.6225     0.0000    24.0000 </r>
       <r>   -34.4298     0.0000    24.0000 </r>
       <r>   -34.2371     0.0000    24.0000 </r>
       <r>   -34.0444     0.0000    24.0000 </r>
       <r>   -33.8517     0.0000    24.0000 </r>
       <r>   -33.6590     0.0000    24.0000 </r>
       <r>   -33.4664     0.0000    24.0000 </r>
       <r>   -33.2737     0.0000    24.0000 </r>
       <r>   -33.0810     0.0000    24.0000 </r>
       <r>   -32.8883     0.0000    24.0000 </r>
       <r>   -32.6956     0.0000    24.0000 </r>
       <r>   -32.5029     0.0000    24.0000 </r>
       <r>   -32.3102     0.0000    24.0000 </r>
       <r>   -32.1176     0.0000    24.0000 </r>
       <r>   -31.9249     0.0000    24.0000 </r>
       <r>   -31.7322     0.0000    24.0000 </r>
       <r>   -31.5395     0.0000    24.0000 </r>
       <r>   -31.3468     0.0000    24.0000 </r>
       <r>   -31.1541     0.0000    24.0000 </r>
       <r>   -30.9614     0.0000    24.0000 </r>
       <r>   -30.7688     0.0000    24.0000 </r>
       <r>   -30.5761     0.0000    24.0000 </r>
       <r>   -30.3834     0.0000    24.0000 </r>
       <r>   -30.1907     0.0000    24.0000 </r>
       <r>   -29.9980     0.0000    24.0000 </r>
       <r>   -29.8053     0.0000    24.0000 </r>
       <r>   -29.6126     0.0000    24.0000 </r>
       <r>   -29.4200     0.0000    24.0000 </r>
       <r>   -29.2273     0.0000    24.0000 </r>
       <r>   -29.0346     0.0000    24.0000 </r>
       <r>   -28.8419     0.0000    24.0000 </r>
       <r>   -28.6492     0.0000    24.0000 </r>
       <r>   -28.4565     0.0000    24.0000 </r>
       <r>   -28.2638     0.0000    24.0000 </r>
       <r>   -28.0712     0.0000    24.0000 </r>
       <r>   -27.8785     0.0000    24.0000 </r>
       <r>   -27.6858     0.0000    24.0000 </r>
       <r>   -27.4931     0.0000    24.0000 </r>
       <r>   -27.3004     0.0000    24.0000 </r>
       <r>   -27.1077     0.0000    24.0000 </r>
       <r>   -26.9150     0.0000    24.0000 </r>
       <r>   -26.7224     0.0000    24.0000 </r>
       <r>   -26.5297     0.0000    24.0000 </r>
       <r>   -26.3370     0.0000    24.0000 </r>
       <r>   -26.1443     0.0000    24.0000 </r>
       <r>   -25.9516     0.0000    24.0000 </r>
       <r>   -25.7589     0.0000    24.0000 </r>
       <r>   -25.5662     0.0000    24.0000 </r>
       <r>   -25.3736     0.0000    24.0000 </r>
       <r>   -25.1809     0.0000    24.0000 </r>
       <r>   -24.9882     0.0000    24.0000 </r>
       <r>   -24.7955     0.0000    24.0000 </r>
       <r>   -24.6028     0.0000    24.0000 </r>
       <r>   -24.4101     0.0000    24.0000 </r>
       <r>   -24.2175     0.0000    24.0000 </r>
       <r>   -24.0248     0.0000    24.0000 </r>
       <r>   -23.8321     0.0000    24.0000 </r>
       <r>   -23.6394     0.0000    24.0000 </r>
       <r>   -23.4467     0.0000    24.0000 </r>
       <r>   -23.2540     0.0000    24.0000 </r>
       <r>   -23.0613     0.0000    24.0000 </r>
       <r>   -22.8687     0.0000    24.0000 </r>
       <r>   -22.6760     0.0000    24.0000 </r>
       <r>   -22.4833     0.0000    24.0000 </r>
       <r>   -22.2906     0.0000    24.0000 </r>
       <r>   -22.0979     0.0000    24.0000 </r>
       <r>   -21.9052     0.0000    24.0000 </r>
       <r>   -21.7125     0.0000    24.0000 </r>
       <r>   -21.5199     0.0000    24.0000 </r>
       <r>   -21.3272     0.0000    24.0000 </r>
       <r>   -21.1345     0.0000    24.0000 </r>
       <r>   -20.9418     0.0000    24.0000 </r>
       <r>   -20.7491     0.0000    24.0000 </r>
       <r>   -20.5564     0.0000    24.0000 </r>
       <r>   -20.3637     0.0000    24.0000 </r>
       <r>   -20.1711     0.0000    24.0000 </r>
       <r>   -19.9784     0.0000    24.0000 </r>
       <r>   -19.7857     0.0000    24.0000 </r>
       <r>   -19.5930     0.0000    24.0000 </r>
       <r>   -19.4003     0.0000    24.0000 </r>
       <r>   -19.2076     0.0000    24.0000 </r>
       <r>   -19.0149     0.0000    24.0000 </r>
       <r>   -18.8223     0.0000    24.0000 </r>
       <r>   -18.6296     0.0000    24.0000 </r>
       <r>   -18.4369     0.0000    24.0000 </r>
       <r>   -18.2442     0.0000    24.0000 </r>
       <r>   -18.0515     0.0000    24.0000 </r>
       <r>   -17.8588     0.0000    24.0000 </r>
       <r>   -17.6661     0.0000    24.0000 </r>
       <r>   -17.4735     0.0000    24.0000 </r>
       <r>   -17.2808     0.0000    24.0000 </r>
       <r>   -17.0881     0.0000    24.0000 </r>
       <r>   -16.8954     0.0000    24.0000 </r>
       <r>   -16.7027     0.0000    24.0000 </r>
       <r>   -16.5100     0.0000    24.0000 </r>
       <r>   -16.3173     0.0000    24.0000 </r>
       <r>   -16.1247     0.0000    24.0000 </r>
       <r>   -15.9320     0.0000    24.0000 </r>
       <r>   -15.7393     0.0000    24.0000 </r>
       <r>   -15.5466     0.0000    24.0000 </r>
       <r>   -15.3539     0.0000    24.0000 </r>
       <r>   -15.1612     0.0000    24.0000 </r>
       <r>   -14.9685     0.0000    24.0000 </r>
       <r>   -14.7759     0.0000    24.0000 </r>
       <r>   -14.5832     0.0000    24.0000 </r>
       <r>   -14.3905     0.0000    24.0000 </r>
       <r>   -14.1978     0.0000    24.0000 </r>
       <r>   -14.0051     0.0000    24.0000 </r>
       <r>   -13.8124     0.0000    24.0000 </r>
       <r>   -13.6197     0.0000    24.0000 </r>
       <r>   -13.4271     0.0000    24.0000 </r>
       <r>   -13.2344     0.0000    24.0000 </r>
       <r>   -13.0417     4.8591    24.9363 </r>
       <r>   -12.8490    15.9001    28.0000 </r>
       <r>   -12.6563     2.6723    28.5149 </r>
       <r>   -12.4636    18.0869    32.0000 </r>
       <r>   -12.2709     0.0000    32.0000 </r>
       <r>   -12.0783     0.0000    32.0000 </r>
       <r>   -11.8856     0.0000    32.0000 </r>
       <r>   -11.6929     0.0000    32.0000 </r>
       <r>   -11.5002     0.0000    32.0000 </r>
       <r>   -11.3075     0.0000    32.0000 </r>
       <r>   -11.1148     0.0000    32.0000 </r>
       <r>   -10.9221     0.0000    32.0000 </r>
       <r>   -10.7295     0.0000    32.0000 </r>
       <r>   -10.5368     0.0000    32.0000 </r>
       <r>   -10.3441     0.0285    32.0055 </r>
       <r>   -10.1514    15.8731    35.0640 </r>
       <r>    -9.9587    24.0109    39.6907 </r>
       <r>    -9.7660    22.3225    43.9983 </r>
       <r>    -9.5734     0.0000    44.0000 </r>
       <r>    -9.3807     0.0000    44.0000 </r>
       <r>    -9.1880     0.0000    44.0000 </r>
       <r>    -8.9953     0.0000    44.0000 </r>
       <r>    -8.8026     0.0000    44.0000 </r>
       <r>    -8.6099     0.0000    44.0000 </r>
       <r>    -8.4172     0.0003    44.0001 </r>
       <r>    -8.2246    20.6265    47.9745 </r>
       <r>    -8.0319     0.1189    48.0000 </r>
       <r>    -7.8392     0.0000    48.0000 </r>
       <r>    -7.6465     0.0000    48.0000 </r>
       <r>    -7.4538     0.0000    48.0000 </r>
       <r>    -7.2611     0.0000    48.0000 </r>
       <r>    -7.0684     0.0000    48.0000 </r>
       <r>    -6.8758     0.0000    48.0000 </r>
       <r>    -6.6831     0.0000    48.0000 </r>
       <r>    -6.4904     0.0000    48.0000 </r>
       <r>    -6.2977     0.0000    48.0000 </r>
       <r>    -6.1050     4.0965    48.7893 </r>
       <r>    -5.9123     1.0933    49.0000 </r>
       <r>    -5.7196     2.0078    49.3869 </r>
       <r>    -5.5270    13.5346    51.9948 </r>
       <r>    -5.3343     0.0227    52.0000 </r>
       <r>    -5.1416     0.0000    52.0000 </r>
       <r>    -4.9489     0.0000    52.0000 </r>
       <r>    -4.7562     0.0000    52.0000 </r>
       <r>    -4.5635     0.0000    52.0000 </r>
       <r>    -4.3708     0.0000    52.0000 </r>
       <r>    -4.1782     0.0000    52.0000 </r>
       <r>    -3.9855     0.0000    52.0000 </r>
       <r>    -3.7928     0.0000    52.0000 </r>
       <r>    -3.6001     0.0000    52.0000 </r>
       <r>    -3.4074     0.0000    52.0000 </r>
       <r>    -3.2147     4.7552    52.9163 </r>
       <r>    -3.0220    10.8142    55.0000 </r>
       <r>    -2.8294     3.5998    55.6936 </r>
       <r>    -2.6367    11.5578    57.9207 </r>
       <r>    -2.4440    11.9191    60.2177 </r>
       <r>    -2.2513    16.1276    63.3264 </r>
       <r>    -2.0586     3.4951    64.0000 </r>
       <r>    -1.8659     0.0000    64.0000 </r>
       <r>    -1.6732     0.0000    64.0000 </r>
       <r>    -1.4806    15.4762    66.9820 </r>
       <r>    -1.2879    18.4564    70.5417 </r>
       <r>    -1.0952    21.1995    74.6269 </r>
       <r>    -0.9025     7.1261    76.0000 </r>
       <r>    -0.7098     0.0000    76.0000 </r>
       <r>    -0.5171     9.5122    77.8329 </r>
       <r>    -0.3244    11.4002    80.0301 </r>
       <r>    -0.1318    10.6041    82.0734 </r>
       <r>     0.0609    28.2577    87.5182 </r>
       <r>     0.2536    24.5763    92.2549 </r>
       <r>     0.4463    15.3661    95.2162 </r>
       <r>     0.6390     4.0466    96.0000 </r>
       <r>     0.8317     9.1987    97.7725 </r>
       <r>     1.0244    21.2280   101.8661 </r>
       <r>     1.2170    23.1646   106.3342 </r>
       <r>     1.4097    28.5150   111.8287 </r>
       <r>     1.6024    28.7922   117.3784 </r>
       <r>     1.7951    13.4908   119.9826 </r>
       <r>     1.9878     0.0747   120.0000 </r>
       <r>     2.1805     0.0000   120.0000 </r>
       <r>     2.3732     0.0000   120.0000 </r>
       <r>     2.5658     0.0000   120.0000 </r>
       <r>     2.7585     0.0000   120.0000 </r>
       <r>     2.9512     0.0000   120.0000 </r>
       <r>     3.1439     0.0000   120.0000 </r>
       <r>     3.3366     0.0000   120.0000 </r>
       <r>     3.5293     0.0000   120.0000 </r>
       <r>     3.7219     0.0000   120.0000 </r>
       <r>     3.9146     0.0000   120.0000 </r>
       <r>     4.1073     0.0000   120.0000 </r>
       <r>     4.3000     0.0000   120.0000 </r>
       <r>     4.4927     5.1487   120.9921 </r>
       <r>     4.6854     0.0227   121.0000 </r>
       <r>     4.8781     0.0000   121.0000 </r>
       <r>     5.0707     0.0000   121.0000 </r>
       <r>     5.2634     3.9942   121.7696 </r>
       <r>     5.4561    11.5520   123.9955 </r>
       <r>     5.6488     0.0224   124.0000 </r>
       <r>     5.8415     0.0017   124.0003 </r>
       <r>     6.0342    10.5451   126.0322 </r>
       <r>     6.2269    15.8754   129.0928 </r>
       <r>     6.4195     4.6981   130.0000 </r>
       <r>     6.6122     9.9826   131.9235 </r>
       <r>     6.8049     7.9915   133.4634 </r>
       <r>     6.9976    13.1504   136.0000 </r>
       <r>     7.1903     5.1652   136.9953 </r>
       <r>     7.3830     0.3071   137.0555 </r>
       <r>     7.5757    13.1783   139.5947 </r>
       <r>     7.7683    12.1234   141.9309 </r>
       <r>     7.9610     9.4354   143.7533 </r>
       <r>     8.1537    13.3188   146.3197 </r>
       <r>     8.3464    16.3100   149.4624 </r>
       <r>     8.5391    13.8210   152.1290 </r>
       <r>     8.7318    15.0637   155.0336 </r>
       <r>     8.9245    14.9656   157.9192 </r>
       <r>     9.1171    18.8575   161.5533 </r>
       <r>     9.3098    21.7558   165.7473 </r>
       <r>     9.5025    14.7402   168.5883 </r>
       <r>     9.6952    18.0206   172.0613 </r>
       <r>     9.8879    15.2808   175.0057 </r>
       <r>    10.0806     5.1569   176.0000 </r>
       <r>    10.2733     0.0000   176.0000 </r>
       <r>    10.4659     0.0000   176.0000 </r>
       <r>    10.6586     0.0000   176.0000 </r>
       <r>    10.8513     0.0000   176.0000 </r>
       <r>    11.0440     0.0000   176.0000 </r>
       <r>    11.2367     0.0000   176.0000 </r>
       <r>    11.4294     0.0000   176.0000 </r>
       <r>    11.6221     0.0000   176.0000 </r>
       <r>    11.8147     0.0000   176.0000 </r>
       <r>    12.0074     0.0000   176.0000 </r>
       <r>    12.2001     0.0000   176.0000 </r>
       <r>    12.3928     0.0000   176.0000 </r>
       <r>    12.5855     0.0000   176.0000 </r>
      </set>
     </set>
    </array>
   </total>
  </dos>
 </calculation>
 <structure name="finalpos" >
  <crystal>
   <varray name="basis" >
    <v>       9.65930309       0.00000000       0.00000000 </v>
    <v>       0.00000000       9.65930309       0.00000000 </v>
    <v>       0.00000000       0.00000000       9.65930309 </v>
   </varray>
   <i name="volume">    901.23361099 </i>
   <varray name="rec_basis" >
    <v>       0.10352714       0.00000000       0.00000000 </v>
    <v>       0.00000000       0.10352714       0.00000000 </v>
    <v>       0.00000000       0.00000000       0.10352714 </v>
   </varray>
  </crystal>
  <varray name="positions" >
   <v>       0.96604415       0.32833678       0.33048817 </v>
   <v>       0.99129616       0.78663884       0.80833285 </v>
   <v>       0.02845630       0.20096252       0.82090244 </v>
   <v>       0.02087593       0.69994202       0.28260712 </v>
   <v>       0.31275355       0.32451296       0.96714855 </v>
   <v>       0.31350184       0.69481427       0.01384361 </v>
   <v>       0.67593786       0.31372396       0.02386376 </v>
   <v>       0.66586634       0.68862579       0.95610733 </v>
   <v>       0.17105693       0.96683645       0.16908302 </v>
   <v>       0.21841175       0.01004435       0.81043407 </v>
   <v>       0.80075599       0.97835156       0.79034743 </v>
   <v>       0.82363167       0.04520985       0.16283664 </v>
   <v>       0.22065341       0.69752141       0.47594512 </v>
   <v>       0.28979020       0.15757743       0.52581166 </v>
   <v>       0.81002489       0.71412060       0.51225212 </v>
   <v>       0.70723126       0.18418073       0.47482973 </v>
   <v>       0.18607178       0.45208530       0.66539395 </v>
   <v>       0.31368970       0.51967311       0.21963733 </v>
   <v>       0.69928313       0.49300521       0.22709669 </v>
   <v>       0.83040247       0.51989094       0.69791027 </v>
   <v>       0.48647123       0.21053320       0.71000547 </v>
   <v>       0.46378495       0.84321144       0.31406475 </v>
   <v>       0.51228182       0.20091449       0.28608330 </v>
   <v>       0.54343114       0.81518996       0.65750213 </v>
   <v>       0.50134378       0.50058413       0.51351424 </v>
   <v>       0.50620129       0.99678217       0.99782114 </v>
   <v>       0.99971822       0.49691594       0.00253398 </v>
   <v>       0.00564566       0.00449354       0.49137326 </v>
   <v>       0.13146874       0.88180656       0.61181431 </v>
   <v>       0.11783718       0.12612284       0.35860773 </v>
   <v>       0.87755636       0.89163829       0.36465010 </v>
   <v>       0.89392206       0.13223488       0.61955169 </v>
   <v>       0.87169620       0.63139777       0.10636028 </v>
   <v>       0.87290942       0.37296559       0.88573126 </v>
   <v>       0.13214051       0.59920371       0.87055740 </v>
   <v>       0.11973442       0.37991492       0.13211118 </v>
   <v>       0.63097573       0.12385500       0.88172902 </v>
   <v>       0.62843882       0.88171094       0.12609368 </v>
   <v>       0.36777988       0.11518291       0.10739187 </v>
   <v>       0.40429802       0.86526471       0.86554260 </v>
   <v>       0.60477861       0.64173241       0.39071047 </v>
   <v>       0.63928518       0.38056013       0.61988058 </v>
   <v>       0.38132560       0.61510655       0.64482068 </v>
   <v>       0.37084000       0.37356504       0.40217957 </v>
   <v>       0.76259754       0.74881734       0.74235675 </v>
   <v>       0.74361942       0.25916663       0.24913826 </v>
   <v>       0.25139414       0.75027905       0.24251716 </v>
   <v>       0.25430147       0.23797936       0.75053880 </v>
   <v>       0.00752262       0.99197798       0.96479314 </v>
   <v>       0.00078501       0.53325797       0.49179887 </v>
   <v>       0.50474409       0.02758070       0.49721985 </v>
   <v>       0.49624370       0.49882433       0.03465595 </v>
  </varray>
 </structure>
</modeling>
