unknown system                          
           1
     9.659303    0.000000    0.000000
     0.000000    9.659303    0.000000
     0.000000    0.000000    9.659303
   Li   P    S    Cl
    24     4    20     4
Direct configuration=     1
   0.96604536  0.32833571  0.33048130
   0.99129887  0.78664347  0.80832989
   0.02846199  0.20096815  0.82090684
   0.02087394  0.69993874  0.28261519
   0.31276676  0.32450781  0.96715308
   0.31349187  0.69480278  0.01383758
   0.67592521  0.31372947  0.02386535
   0.66586826  0.68861930  0.95610297
   0.17104927  0.96683388  0.16907497
   0.21840751  0.01004284  0.81044318
   0.80075556  0.97835360  0.79034313
   0.82362677  0.04520911  0.16283440
   0.22066327  0.69752523  0.47594633
   0.28977705  0.15754189  0.52582798
   0.81001022  0.71411238  0.51224487
   0.70723301  0.18417977  0.47482620
   0.18609151  0.45207475  0.66537245
   0.31369703  0.51967499  0.21964571
   0.69930417  0.49300945  0.22710472
   0.83042144  0.51989053  0.69790805
   0.48647688  0.21051864  0.70998264
   0.46378034  0.84322572  0.31405565
   0.51227138  0.20094240  0.28609047
   0.54343096  0.81519737  0.65751194
   0.50134508  0.50058586  0.51351727
   0.50619714  0.99678922  0.99782800
   0.99971793  0.49691348  0.00253858
   0.00564682  0.00450151  0.49137166
   0.13147190  0.88181078  0.61181131
   0.11783327  0.12612021  0.35860077
   0.87755251  0.89164074  0.36465473
   0.89392467  0.13223819  0.61955193
   0.87169934  0.63140478  0.10635424
   0.87290613  0.37296570  0.88573825
   0.13213390  0.59919531  0.87054387
   0.11974074  0.37991653  0.13210822
   0.63097108  0.12385252  0.88172858
   0.62844384  0.88170697  0.12608893
   0.36778232  0.11518199  0.10740123
   0.40429723  0.86526385  0.86554648
   0.60476235  0.64173561  0.39070203
   0.63929053  0.38056440  0.61987784
   0.38133376  0.61510945  0.64482391
   0.37081890  0.37357090  0.40220278
   0.76260204  0.74881904  0.74235453
   0.74361391  0.25916578  0.24913690
   0.25139039  0.75027913  0.24251762
   0.25431351  0.23796757  0.75054323
   0.00752064  0.99197662  0.96478592
   0.00078412  0.53325993  0.49179340
   0.50474664  0.02758714  0.49723084
   0.49623875  0.49882337  0.03466338
Direct configuration=     2
   0.96604512  0.32833592  0.33048212
   0.99129863  0.78664284  0.80833019
   0.02846129  0.20096752  0.82090623
   0.02087407  0.69993924  0.28261424
   0.31276516  0.32450858  0.96715234
   0.31349303  0.69480426  0.01383815
   0.67592680  0.31372879  0.02386504
   0.66586797  0.68862024  0.95610349
   0.17105009  0.96683395  0.16907590
   0.21840808  0.01004273  0.81044192
   0.80075559  0.97835323  0.79034366
   0.82362723  0.04520900  0.16283472
   0.22066206  0.69752483  0.47594619
   0.28977867  0.15754603  0.52582612
   0.81001195  0.71411348  0.51224568
   0.70723282  0.18417990  0.47482664
   0.18608922  0.45207603  0.66537507
   0.31369620  0.51967490  0.21964473
   0.69930169  0.49300906  0.22710380
   0.83041919  0.51989067  0.69790835
   0.48647630  0.21052033  0.70998531
   0.46378101  0.84322395  0.31405666
   0.51227271  0.20093918  0.28608975
   0.54343097  0.81519648  0.65751083
   0.50134523  0.50058611  0.51351696
   0.50619941  0.99678461  0.99782607
   0.99971801  0.49691501  0.00253632
   0.00564582  0.00449826  0.49137240
   0.13147109  0.88181101  0.61181122
   0.11783461  0.12612164  0.35860057
   0.87755361  0.89164116  0.36465460
   0.89392422  0.13223821  0.61955210
   0.87169905  0.63140379  0.10635503
   0.87290649  0.37296563  0.88573753
   0.13213398  0.59919567  0.87054641
   0.11974050  0.37991563  0.13210944
   0.63097178  0.12385329  0.88172859
   0.62844202  0.88170865  0.12608842
   0.36778025  0.11518353  0.10740138
   0.40429807  0.86526508  0.86554717
   0.60476429  0.64173500  0.39070322
   0.63928989  0.38056386  0.61987808
   0.38133272  0.61510911  0.64482369
   0.37082126  0.37356986  0.40219980
   0.76260128  0.74881878  0.74235482
   0.74361474  0.25916589  0.24913703
   0.25139087  0.75027929  0.24251745
   0.25431194  0.23796918  0.75054278
   0.00752082  0.99197679  0.96478770
   0.00078443  0.53325907  0.49179427
   0.50474635  0.02758568  0.49722937
   0.49623950  0.49882361  0.03466177
Direct configuration=     3
   0.96604497  0.32833605  0.33048264
   0.99129848  0.78664244  0.80833038
   0.02846084  0.20096712  0.82090585
   0.02087416  0.69993956  0.28261363
   0.31276414  0.32450906  0.96715188
   0.31349376  0.69480519  0.01383851
   0.67592780  0.31372836  0.02386484
   0.66586778  0.68862084  0.95610381
   0.17105061  0.96683400  0.16907650
   0.21840844  0.01004265  0.81044113
   0.80075561  0.97835299  0.79034399
   0.82362752  0.04520893  0.16283493
   0.22066130  0.69752458  0.47594610
   0.28977969  0.15754866  0.52582494
   0.81001304  0.71411418  0.51224620
   0.70723270  0.18417999  0.47482691
   0.18608776  0.45207685  0.66537673
   0.31369567  0.51967484  0.21964411
   0.69930012  0.49300882  0.22710322
   0.83041776  0.51989075  0.69790854
   0.48647594  0.21052140  0.70998701
   0.46378143  0.84322283  0.31405730
   0.51227356  0.20093714  0.28608930
   0.54343097  0.81519592  0.65751013
   0.50134532  0.50058626  0.51351676
   0.50620085  0.99678170  0.99782485
   0.99971806  0.49691598  0.00253488
   0.00564518  0.00449620  0.49137286
   0.13147058  0.88181116  0.61181117
   0.11783546  0.12612254  0.35860044
   0.87755431  0.89164143  0.36465451
   0.89392393  0.13223822  0.61955220
   0.87169887  0.63140317  0.10635552
   0.87290673  0.37296558  0.88573708
   0.13213403  0.59919589  0.87054802
   0.11974035  0.37991506  0.13211020
   0.63097223  0.12385378  0.88172860
   0.62844087  0.88170972  0.12608809
   0.36777894  0.11518450  0.10740148
   0.40429860  0.86526586  0.86554761
   0.60476551  0.64173461  0.39070398
   0.63928948  0.38056352  0.61987823
   0.38133206  0.61510890  0.64482355
   0.37082275  0.37356920  0.40219791
   0.76260080  0.74881861  0.74235501
   0.74361527  0.25916596  0.24913712
   0.25139118  0.75027938  0.24251734
   0.25431095  0.23797020  0.75054249
   0.00752093  0.99197690  0.96478883
   0.00078463  0.53325853  0.49179482
   0.50474617  0.02758475  0.49722843
   0.49623997  0.49882377  0.03466076
Direct configuration=     4
   0.96604467  0.32833631  0.33048367
   0.99129818  0.78664165  0.80833076
   0.02845996  0.20096631  0.82090509
   0.02087433  0.69994020  0.28261243
   0.31276212  0.32451002  0.96715094
   0.31349522  0.69480706  0.01383923
   0.67592981  0.31372750  0.02386445
   0.66586741  0.68862203  0.95610446
   0.17105165  0.96683409  0.16907769
   0.21840915  0.01004251  0.81043955
   0.80075564  0.97835252  0.79034465
   0.82362811  0.04520879  0.16283535
   0.22065978  0.69752408  0.47594592
   0.28978174  0.15755390  0.52582258
   0.81001523  0.71411557  0.51224723
   0.70723246  0.18418015  0.47482746
   0.18608486  0.45207848  0.66538004
   0.31369462  0.51967473  0.21964287
   0.69929698  0.49300833  0.22710206
   0.83041491  0.51989093  0.69790892
   0.48647520  0.21052353  0.70999039
   0.46378228  0.84322059  0.31405857
   0.51227524  0.20093307  0.28608839
   0.54343098  0.81519479  0.65750872
   0.50134551  0.50058657  0.51351637
   0.50620373  0.99677587  0.99782242
   0.99971816  0.49691793  0.00253202
   0.00564391  0.00449209  0.49137379
   0.13146956  0.88181145  0.61181106
   0.11783715  0.12612435  0.35860019
   0.87755570  0.89164197  0.36465435
   0.89392335  0.13223823  0.61955241
   0.87169852  0.63140193  0.10635652
   0.87290719  0.37296549  0.88573616
   0.13213413  0.59919634  0.87055123
   0.11974004  0.37991392  0.13211174
   0.63097311  0.12385476  0.88172861
   0.62843857  0.88171184  0.12608745
   0.36777632  0.11518645  0.10740168
   0.40429967  0.86526742  0.86554850
   0.60476796  0.64173383  0.39070548
   0.63928867  0.38056284  0.61987853
   0.38133075  0.61510848  0.64482328
   0.37082574  0.37356788  0.40219414
   0.76259984  0.74881828  0.74235537
   0.74361633  0.25916610  0.24913728
   0.25139179  0.75027958  0.24251713
   0.25430896  0.23797224  0.75054191
   0.00752116  0.99197712  0.96479109
   0.00078502  0.53325744  0.49179592
   0.50474581  0.02758291  0.49722656
   0.49624091  0.49882407  0.03465873
Direct configuration=     5
   0.96604454  0.32833643  0.33048480
   0.99129768  0.78664094  0.80833128
   0.02845904  0.20096536  0.82090443
   0.02087473  0.69994066  0.28261110
   0.31275997  0.32451076  0.96715035
   0.31349688  0.69480886  0.01384032
   0.67593182  0.31372662  0.02386428
   0.66586714  0.68862297  0.95610518
   0.17105297  0.96683468  0.16907902
   0.21840980  0.01004297  0.81043818
   0.80075573  0.97835228  0.79034535
   0.82362900  0.04520905  0.16283567
   0.22065819  0.69752341  0.47594572
   0.28978386  0.15755978  0.52581985
   0.81001764  0.71411683  0.51224845
   0.70723216  0.18418030  0.47482803
   0.18608159  0.45208019  0.66538352
   0.31369339  0.51967433  0.21964148
   0.69929352  0.49300755  0.22710072
   0.83041180  0.51989093  0.69790926
   0.48647421  0.21052595  0.70999416
   0.46378295  0.84321830  0.31406011
   0.51227688  0.20092842  0.28608712
   0.54343102  0.81519358  0.65750707
   0.50134508  0.50058596  0.51351583
   0.50620312  0.99677745  0.99782210
   0.99971818  0.49691743  0.00253251
   0.00564435  0.00449245  0.49137366
   0.13146936  0.88181022  0.61181187
   0.11783716  0.12612397  0.35860208
   0.87755586  0.89164105  0.36465329
   0.89392303  0.13223739  0.61955223
   0.87169794  0.63140089  0.10635746
   0.87290775  0.37296552  0.88573494
   0.13213573  0.59919818  0.87055277
   0.11973863  0.37991417  0.13211160
   0.63097377  0.12385482  0.88172871
   0.62843863  0.88171162  0.12608901
   0.36777721  0.11518556  0.10739923
   0.40429926  0.86526675  0.86554702
   0.60477062  0.64173347  0.39070673
   0.63928780  0.38056216  0.61987904
   0.38132946  0.61510800  0.64482263
   0.37082930  0.37356717  0.40219050
   0.76259927  0.74881805  0.74235572
   0.74361710  0.25916623  0.24913753
   0.25139238  0.75027944  0.24251714
   0.25430709  0.23797402  0.75054113
   0.00752152  0.99197734  0.96479160
   0.00078501  0.53325757  0.49179666
   0.50474538  0.02758236  0.49722488
   0.49624161  0.49882414  0.03465804
Direct configuration=     6
   0.96604415  0.32833678  0.33048817
   0.99129616  0.78663884  0.80833285
   0.02845630  0.20096252  0.82090244
   0.02087593  0.69994202  0.28260712
   0.31275355  0.32451296  0.96714855
   0.31350184  0.69481427  0.01384361
   0.67593786  0.31372396  0.02386376
   0.66586634  0.68862579  0.95610733
   0.17105693  0.96683645  0.16908302
   0.21841175  0.01004435  0.81043407
   0.80075599  0.97835156  0.79034743
   0.82363167  0.04520985  0.16283664
   0.22065341  0.69752141  0.47594512
   0.28979020  0.15757743  0.52581166
   0.81002489  0.71412060  0.51225212
   0.70723126  0.18418073  0.47482973
   0.18607178  0.45208530  0.66539395
   0.31368970  0.51967311  0.21963733
   0.69928313  0.49300521  0.22709669
   0.83040247  0.51989094  0.69791027
   0.48647123  0.21053320  0.71000547
   0.46378495  0.84321144  0.31406475
   0.51228182  0.20091449  0.28608330
   0.54343114  0.81518996  0.65750213
   0.50134378  0.50058413  0.51351424
   0.50620129  0.99678217  0.99782114
   0.99971822  0.49691594  0.00253398
   0.00564566  0.00449354  0.49137326
   0.13146874  0.88180656  0.61181431
   0.11783718  0.12612284  0.35860773
   0.87755636  0.89163829  0.36465010
   0.89392206  0.13223488  0.61955169
   0.87169620  0.63139777  0.10636028
   0.87290942  0.37296559  0.88573126
   0.13214051  0.59920371  0.87055740
   0.11973442  0.37991492  0.13211118
   0.63097573  0.12385500  0.88172902
   0.62843882  0.88171094  0.12609368
   0.36777988  0.11518291  0.10739187
   0.40429802  0.86526471  0.86554260
   0.60477861  0.64173241  0.39071047
   0.63928518  0.38056013  0.61988058
   0.38132560  0.61510655  0.64482068
   0.37084000  0.37356504  0.40217957
   0.76259754  0.74881734  0.74235675
   0.74361942  0.25916663  0.24913826
   0.25139414  0.75027905  0.24251716
   0.25430147  0.23797936  0.75053880
   0.00752262  0.99197798  0.96479314
   0.00078501  0.53325797  0.49179887
   0.50474409  0.02758070  0.49721985
   0.49624370  0.49882433  0.03465595
