  52  52   0   4
  0.1752257E+02  0.9694686E-09  0.9694686E-09  0.9694686E-09  0.2000000E-15
  1.000000000000000E-004
  CAR 
 unknown system                          
     12.47986875    -45.35339690  301      1.92529777      1.00000000
    -45.353  0.0000E+00  0.0000E+00  0.0000E+00  0.0000E+00
    -45.161  0.0000E+00  0.0000E+00  0.0000E+00  0.0000E+00
    -44.968  0.0000E+00  0.0000E+00  0.0000E+00  0.0000E+00
    -44.775  0.0000E+00  0.0000E+00  0.0000E+00  0.0000E+00
    -44.582  0.0000E+00  0.0000E+00  0.0000E+00  0.0000E+00
    -44.390  0.0000E+00  0.0000E+00  0.0000E+00  0.0000E+00
    -44.197  0.0000E+00  0.0000E+00  0.0000E+00  0.0000E+00
    -44.004  0.0000E+00  0.0000E+00  0.0000E+00  0.0000E+00
    -43.811  0.0000E+00  0.0000E+00  0.0000E+00  0.0000E+00
    -43.618  0.0000E+00  0.0000E+00  0.0000E+00  0.0000E+00
    -43.426  0.0000E+00  0.0000E+00  0.0000E+00  0.0000E+00
    -43.233  0.0000E+00  0.0000E+00  0.0000E+00  0.0000E+00
    -43.040  0.0000E+00  0.0000E+00  0.0000E+00  0.0000E+00
    -42.847  0.1903E-10  0.1903E-10  0.3668E-11  0.3668E-11
    -42.655  0.1165E-01  0.1165E-01  0.2245E-02  0.2245E-02
    -42.462  0.4850E-01  0.4850E-01  0.1159E-01  0.1159E-01
    -42.269  0.6410E-01  0.6410E-01  0.2396E-01  0.2396E-01
    -42.076  0.1993E-03  0.1993E-03  0.2400E-01  0.2400E-01
    -41.883  0.0000E+00  0.0000E+00  0.2400E-01  0.2400E-01
    -41.691  0.0000E+00  0.0000E+00  0.2400E-01  0.2400E-01
    -41.498  0.0000E+00  0.0000E+00  0.2400E-01  0.2400E-01
    -41.305  0.0000E+00  0.0000E+00  0.2400E-01  0.2400E-01
    -41.112  0.0000E+00  0.0000E+00  0.2400E-01  0.2400E-01
    -40.920  0.0000E+00  0.0000E+00  0.2400E-01  0.2400E-01
    -40.727  0.0000E+00  0.0000E+00  0.2400E-01  0.2400E-01
    -40.534  0.0000E+00  0.0000E+00  0.2400E-01  0.2400E-01
    -40.341  0.0000E+00  0.0000E+00  0.2400E-01  0.2400E-01
    -40.148  0.0000E+00  0.0000E+00  0.2400E-01  0.2400E-01
    -39.956  0.0000E+00  0.0000E+00  0.2400E-01  0.2400E-01
    -39.763  0.0000E+00  0.0000E+00  0.2400E-01  0.2400E-01
    -39.570  0.0000E+00  0.0000E+00  0.2400E-01  0.2400E-01
    -39.377  0.0000E+00  0.0000E+00  0.2400E-01  0.2400E-01
    -39.185  0.0000E+00  0.0000E+00  0.2400E-01  0.2400E-01
    -38.992  0.0000E+00  0.0000E+00  0.2400E-01  0.2400E-01
    -38.799  0.0000E+00  0.0000E+00  0.2400E-01  0.2400E-01
    -38.606  0.0000E+00  0.0000E+00  0.2400E-01  0.2400E-01
    -38.413  0.0000E+00  0.0000E+00  0.2400E-01  0.2400E-01
    -38.221  0.0000E+00  0.0000E+00  0.2400E-01  0.2400E-01
    -38.028  0.0000E+00  0.0000E+00  0.2400E-01  0.2400E-01
    -37.835  0.0000E+00  0.0000E+00  0.2400E-01  0.2400E-01
    -37.642  0.0000E+00  0.0000E+00  0.2400E-01  0.2400E-01
    -37.450  0.0000E+00  0.0000E+00  0.2400E-01  0.2400E-01
    -37.257  0.0000E+00  0.0000E+00  0.2400E-01  0.2400E-01
    -37.064  0.0000E+00  0.0000E+00  0.2400E-01  0.2400E-01
    -36.871  0.0000E+00  0.0000E+00  0.2400E-01  0.2400E-01
    -36.678  0.0000E+00  0.0000E+00  0.2400E-01  0.2400E-01
    -36.486  0.0000E+00  0.0000E+00  0.2400E-01  0.2400E-01
    -36.293  0.0000E+00  0.0000E+00  0.2400E-01  0.2400E-01
    -36.100  0.0000E+00  0.0000E+00  0.2400E-01  0.2400E-01
    -35.907  0.0000E+00  0.0000E+00  0.2400E-01  0.2400E-01
    -35.715  0.0000E+00  0.0000E+00  0.2400E-01  0.2400E-01
    -35.522  0.0000E+00  0.0000E+00  0.2400E-01  0.2400E-01
    -35.329  0.0000E+00  0.0000E+00  0.2400E-01  0.2400E-01
    -35.136  0.0000E+00  0.0000E+00  0.2400E-01  0.2400E-01
    -34.943  0.0000E+00  0.0000E+00  0.2400E-01  0.2400E-01
    -34.751  0.0000E+00  0.0000E+00  0.2400E-01  0.2400E-01
    -34.558  0.0000E+00  0.0000E+00  0.2400E-01  0.2400E-01
    -34.365  0.0000E+00  0.0000E+00  0.2400E-01  0.2400E-01
    -34.172  0.0000E+00  0.0000E+00  0.2400E-01  0.2400E-01
    -33.980  0.0000E+00  0.0000E+00  0.2400E-01  0.2400E-01
    -33.787  0.0000E+00  0.0000E+00  0.2400E-01  0.2400E-01
    -33.594  0.0000E+00  0.0000E+00  0.2400E-01  0.2400E-01
    -33.401  0.0000E+00  0.0000E+00  0.2400E-01  0.2400E-01
    -33.208  0.0000E+00  0.0000E+00  0.2400E-01  0.2400E-01
    -33.016  0.0000E+00  0.0000E+00  0.2400E-01  0.2400E-01
    -32.823  0.0000E+00  0.0000E+00  0.2400E-01  0.2400E-01
    -32.630  0.0000E+00  0.0000E+00  0.2400E-01  0.2400E-01
    -32.437  0.0000E+00  0.0000E+00  0.2400E-01  0.2400E-01
    -32.245  0.0000E+00  0.0000E+00  0.2400E-01  0.2400E-01
    -32.052  0.0000E+00  0.0000E+00  0.2400E-01  0.2400E-01
    -31.859  0.0000E+00  0.0000E+00  0.2400E-01  0.2400E-01
    -31.666  0.0000E+00  0.0000E+00  0.2400E-01  0.2400E-01
    -31.473  0.0000E+00  0.0000E+00  0.2400E-01  0.2400E-01
    -31.281  0.0000E+00  0.0000E+00  0.2400E-01  0.2400E-01
    -31.088  0.0000E+00  0.0000E+00  0.2400E-01  0.2400E-01
    -30.895  0.0000E+00  0.0000E+00  0.2400E-01  0.2400E-01
    -30.702  0.0000E+00  0.0000E+00  0.2400E-01  0.2400E-01
    -30.510  0.0000E+00  0.0000E+00  0.2400E-01  0.2400E-01
    -30.317  0.0000E+00  0.0000E+00  0.2400E-01  0.2400E-01
    -30.124  0.0000E+00  0.0000E+00  0.2400E-01  0.2400E-01
    -29.931  0.0000E+00  0.0000E+00  0.2400E-01  0.2400E-01
    -29.738  0.0000E+00  0.0000E+00  0.2400E-01  0.2400E-01
    -29.546  0.0000E+00  0.0000E+00  0.2400E-01  0.2400E-01
    -29.353  0.0000E+00  0.0000E+00  0.2400E-01  0.2400E-01
    -29.160  0.0000E+00  0.0000E+00  0.2400E-01  0.2400E-01
    -28.967  0.0000E+00  0.0000E+00  0.2400E-01  0.2400E-01
    -28.775  0.0000E+00  0.0000E+00  0.2400E-01  0.2400E-01
    -28.582  0.0000E+00  0.0000E+00  0.2400E-01  0.2400E-01
    -28.389  0.0000E+00  0.0000E+00  0.2400E-01  0.2400E-01
    -28.196  0.0000E+00  0.0000E+00  0.2400E-01  0.2400E-01
    -28.003  0.0000E+00  0.0000E+00  0.2400E-01  0.2400E-01
    -27.811  0.0000E+00  0.0000E+00  0.2400E-01  0.2400E-01
    -27.618  0.0000E+00  0.0000E+00  0.2400E-01  0.2400E-01
    -27.425  0.0000E+00  0.0000E+00  0.2400E-01  0.2400E-01
    -27.232  0.0000E+00  0.0000E+00  0.2400E-01  0.2400E-01
    -27.040  0.0000E+00  0.0000E+00  0.2400E-01  0.2400E-01
    -26.847  0.0000E+00  0.0000E+00  0.2400E-01  0.2400E-01
    -26.654  0.0000E+00  0.0000E+00  0.2400E-01  0.2400E-01
    -26.461  0.0000E+00  0.0000E+00  0.2400E-01  0.2400E-01
    -26.268  0.0000E+00  0.0000E+00  0.2400E-01  0.2400E-01
    -26.076  0.0000E+00  0.0000E+00  0.2400E-01  0.2400E-01
    -25.883  0.0000E+00  0.0000E+00  0.2400E-01  0.2400E-01
    -25.690  0.0000E+00  0.0000E+00  0.2400E-01  0.2400E-01
    -25.497  0.0000E+00  0.0000E+00  0.2400E-01  0.2400E-01
    -25.305  0.0000E+00  0.0000E+00  0.2400E-01  0.2400E-01
    -25.112  0.0000E+00  0.0000E+00  0.2400E-01  0.2400E-01
    -24.919  0.0000E+00  0.0000E+00  0.2400E-01  0.2400E-01
    -24.726  0.0000E+00  0.0000E+00  0.2400E-01  0.2400E-01
    -24.533  0.0000E+00  0.0000E+00  0.2400E-01  0.2400E-01
    -24.341  0.0000E+00  0.0000E+00  0.2400E-01  0.2400E-01
    -24.148  0.0000E+00  0.0000E+00  0.2400E-01  0.2400E-01
    -23.955  0.0000E+00  0.0000E+00  0.2400E-01  0.2400E-01
    -23.762  0.0000E+00  0.0000E+00  0.2400E-01  0.2400E-01
    -23.570  0.0000E+00  0.0000E+00  0.2400E-01  0.2400E-01
    -23.377  0.0000E+00  0.0000E+00  0.2400E-01  0.2400E-01
    -23.184  0.0000E+00  0.0000E+00  0.2400E-01  0.2400E-01
    -22.991  0.0000E+00  0.0000E+00  0.2400E-01  0.2400E-01
    -22.798  0.0000E+00  0.0000E+00  0.2400E-01  0.2400E-01
    -22.606  0.0000E+00  0.0000E+00  0.2400E-01  0.2400E-01
    -22.413  0.0000E+00  0.0000E+00  0.2400E-01  0.2400E-01
    -22.220  0.0000E+00  0.0000E+00  0.2400E-01  0.2400E-01
    -22.027  0.0000E+00  0.0000E+00  0.2400E-01  0.2400E-01
    -21.835  0.0000E+00  0.0000E+00  0.2400E-01  0.2400E-01
    -21.642  0.0000E+00  0.0000E+00  0.2400E-01  0.2400E-01
    -21.449  0.0000E+00  0.0000E+00  0.2400E-01  0.2400E-01
    -21.256  0.0000E+00  0.0000E+00  0.2400E-01  0.2400E-01
    -21.063  0.0000E+00  0.0000E+00  0.2400E-01  0.2400E-01
    -20.871  0.0000E+00  0.0000E+00  0.2400E-01  0.2400E-01
    -20.678  0.0000E+00  0.0000E+00  0.2400E-01  0.2400E-01
    -20.485  0.0000E+00  0.0000E+00  0.2400E-01  0.2400E-01
    -20.292  0.0000E+00  0.0000E+00  0.2400E-01  0.2400E-01
    -20.100  0.0000E+00  0.0000E+00  0.2400E-01  0.2400E-01
    -19.907  0.0000E+00  0.0000E+00  0.2400E-01  0.2400E-01
    -19.714  0.0000E+00  0.0000E+00  0.2400E-01  0.2400E-01
    -19.521  0.0000E+00  0.0000E+00  0.2400E-01  0.2400E-01
    -19.328  0.0000E+00  0.0000E+00  0.2400E-01  0.2400E-01
    -19.136  0.0000E+00  0.0000E+00  0.2400E-01  0.2400E-01
    -18.943  0.0000E+00  0.0000E+00  0.2400E-01  0.2400E-01
    -18.750  0.0000E+00  0.0000E+00  0.2400E-01  0.2400E-01
    -18.557  0.0000E+00  0.0000E+00  0.2400E-01  0.2400E-01
    -18.365  0.0000E+00  0.0000E+00  0.2400E-01  0.2400E-01
    -18.172  0.0000E+00  0.0000E+00  0.2400E-01  0.2400E-01
    -17.979  0.0000E+00  0.0000E+00  0.2400E-01  0.2400E-01
    -17.786  0.0000E+00  0.0000E+00  0.2400E-01  0.2400E-01
    -17.593  0.0000E+00  0.0000E+00  0.2400E-01  0.2400E-01
    -17.401  0.0000E+00  0.0000E+00  0.2400E-01  0.2400E-01
    -17.208  0.0000E+00  0.0000E+00  0.2400E-01  0.2400E-01
    -17.015  0.0000E+00  0.0000E+00  0.2400E-01  0.2400E-01
    -16.822  0.0000E+00  0.0000E+00  0.2400E-01  0.2400E-01
    -16.630  0.0000E+00  0.0000E+00  0.2400E-01  0.2400E-01
    -16.437  0.0000E+00  0.0000E+00  0.2400E-01  0.2400E-01
    -16.244  0.0000E+00  0.0000E+00  0.2400E-01  0.2400E-01
    -16.051  0.0000E+00  0.0000E+00  0.2400E-01  0.2400E-01
    -15.858  0.0000E+00  0.0000E+00  0.2400E-01  0.2400E-01
    -15.666  0.0000E+00  0.0000E+00  0.2400E-01  0.2400E-01
    -15.473  0.0000E+00  0.0000E+00  0.2400E-01  0.2400E-01
    -15.280  0.0000E+00  0.0000E+00  0.2400E-01  0.2400E-01
    -15.087  0.0000E+00  0.0000E+00  0.2400E-01  0.2400E-01
    -14.895  0.0000E+00  0.0000E+00  0.2400E-01  0.2400E-01
    -14.702  0.0000E+00  0.0000E+00  0.2400E-01  0.2400E-01
    -14.509  0.0000E+00  0.0000E+00  0.2400E-01  0.2400E-01
    -14.316  0.0000E+00  0.0000E+00  0.2400E-01  0.2400E-01
    -14.123  0.0000E+00  0.0000E+00  0.2400E-01  0.2400E-01
    -13.931  0.0000E+00  0.0000E+00  0.2400E-01  0.2400E-01
    -13.738  0.0000E+00  0.0000E+00  0.2400E-01  0.2400E-01
    -13.545  0.0000E+00  0.0000E+00  0.2400E-01  0.2400E-01
    -13.352  0.0000E+00  0.0000E+00  0.2400E-01  0.2400E-01
    -13.160  0.1193E-03  0.1193E-03  0.2402E-01  0.2402E-01
    -12.967  0.2063E-01  0.2063E-01  0.2800E-01  0.2800E-01
    -12.774  0.4470E-03  0.4470E-03  0.2809E-01  0.2809E-01
    -12.581  0.9755E-02  0.9755E-02  0.2997E-01  0.2997E-01
    -12.388  0.1052E-01  0.1052E-01  0.3200E-01  0.3200E-01
    -12.196  0.0000E+00  0.0000E+00  0.3200E-01  0.3200E-01
    -12.003  0.0000E+00  0.0000E+00  0.3200E-01  0.3200E-01
    -11.810  0.0000E+00  0.0000E+00  0.3200E-01  0.3200E-01
    -11.617  0.0000E+00  0.0000E+00  0.3200E-01  0.3200E-01
    -11.425  0.0000E+00  0.0000E+00  0.3200E-01  0.3200E-01
    -11.232  0.0000E+00  0.0000E+00  0.3200E-01  0.3200E-01
    -11.039  0.0000E+00  0.0000E+00  0.3200E-01  0.3200E-01
    -10.846  0.0000E+00  0.0000E+00  0.3200E-01  0.3200E-01
    -10.653  0.0000E+00  0.0000E+00  0.3200E-01  0.3200E-01
    -10.461  0.4202E-07  0.4201E-07  0.3200E-01  0.3200E-01
    -10.268  0.1540E-01  0.1540E-01  0.3497E-01  0.3497E-01
    -10.075  0.2147E-01  0.2147E-01  0.3912E-01  0.3912E-01
     -9.882  0.2531E-01  0.2531E-01  0.4400E-01  0.4400E-01
     -9.690  0.0000E+00  0.0000E+00  0.4400E-01  0.4400E-01
     -9.497  0.0000E+00  0.0000E+00  0.4400E-01  0.4400E-01
     -9.304  0.0000E+00  0.0000E+00  0.4400E-01  0.4400E-01
     -9.111  0.0000E+00  0.0000E+00  0.4400E-01  0.4400E-01
     -8.918  0.0000E+00  0.0000E+00  0.4400E-01  0.4400E-01
     -8.726  0.0000E+00  0.0000E+00  0.4400E-01  0.4400E-01
     -8.533  0.1238E-05  0.1238E-05  0.4400E-01  0.4400E-01
     -8.340  0.2075E-01  0.2075E-01  0.4800E-01  0.4800E-01
     -8.147  0.0000E+00  0.0000E+00  0.4800E-01  0.4800E-01
     -7.955  0.0000E+00  0.0000E+00  0.4800E-01  0.4800E-01
     -7.762  0.0000E+00  0.0000E+00  0.4800E-01  0.4800E-01
     -7.569  0.0000E+00  0.0000E+00  0.4800E-01  0.4800E-01
     -7.376  0.0000E+00  0.0000E+00  0.4800E-01  0.4800E-01
     -7.183  0.0000E+00  0.0000E+00  0.4800E-01  0.4800E-01
     -6.991  0.0000E+00  0.0000E+00  0.4800E-01  0.4800E-01
     -6.798  0.0000E+00  0.0000E+00  0.4800E-01  0.4800E-01
     -6.605  0.0000E+00  0.0000E+00  0.4800E-01  0.4800E-01
     -6.412  0.0000E+00  0.0000E+00  0.4800E-01  0.4800E-01
     -6.220  0.1094E-02  0.1094E-02  0.4821E-01  0.4821E-01
     -6.027  0.4093E-02  0.4093E-02  0.4900E-01  0.4900E-01
     -5.834  0.2538E-03  0.2538E-03  0.4905E-01  0.4905E-01
     -5.641  0.1530E-01  0.1530E-01  0.5200E-01  0.5200E-01
     -5.448  0.0000E+00  0.0000E+00  0.5200E-01  0.5200E-01
     -5.256  0.0000E+00  0.0000E+00  0.5200E-01  0.5200E-01
     -5.063  0.0000E+00  0.0000E+00  0.5200E-01  0.5200E-01
     -4.870  0.0000E+00  0.0000E+00  0.5200E-01  0.5200E-01
     -4.677  0.0000E+00  0.0000E+00  0.5200E-01  0.5200E-01
     -4.485  0.0000E+00  0.0000E+00  0.5200E-01  0.5200E-01
     -4.292  0.0000E+00  0.0000E+00  0.5200E-01  0.5200E-01
     -4.099  0.0000E+00  0.0000E+00  0.5200E-01  0.5200E-01
     -3.906  0.0000E+00  0.0000E+00  0.5200E-01  0.5200E-01
     -3.713  0.0000E+00  0.0000E+00  0.5200E-01  0.5200E-01
     -3.521  0.0000E+00  0.0000E+00  0.5200E-01  0.5200E-01
     -3.328  0.6239E-03  0.6239E-03  0.5212E-01  0.5212E-01
     -3.135  0.1494E-01  0.1494E-01  0.5500E-01  0.5500E-01
     -2.942  0.1259E-02  0.1259E-02  0.5524E-01  0.5524E-01
     -2.750  0.1060E-01  0.1060E-01  0.5729E-01  0.5729E-01
     -2.557  0.1257E-01  0.1257E-01  0.5971E-01  0.5971E-01
     -2.364  0.2165E-01  0.2165E-01  0.6389E-01  0.6389E-01
     -2.171  0.5649E-03  0.5649E-03  0.6400E-01  0.6400E-01
     -1.978  0.0000E+00  0.0000E+00  0.6400E-01  0.6400E-01
     -1.786  0.9044E-08  0.9044E-08  0.6400E-01  0.6400E-01
     -1.593  0.5287E-02  0.5287E-02  0.6502E-01  0.6502E-01
     -1.400  0.1265E-01  0.1265E-01  0.6746E-01  0.6746E-01
     -1.207  0.2443E-01  0.2443E-01  0.7217E-01  0.7217E-01
     -1.015  0.1380E-01  0.1380E-01  0.7483E-01  0.7483E-01
     -0.822  0.6054E-02  0.6054E-02  0.7600E-01  0.7600E-01
     -0.629  0.1878E-02  0.1878E-02  0.7636E-01  0.7636E-01
     -0.436  0.1378E-01  0.1378E-01  0.7902E-01  0.7902E-01
     -0.243  0.1098E-01  0.1098E-01  0.8113E-01  0.8113E-01
     -0.051  0.2875E-01  0.2875E-01  0.8668E-01  0.8668E-01
      0.142  0.2562E-01  0.2562E-01  0.9162E-01  0.9162E-01
      0.335  0.1741E-01  0.1741E-01  0.9498E-01  0.9498E-01
      0.528  0.5291E-02  0.5291E-02  0.9600E-01  0.9600E-01
      0.720  0.6571E-02  0.6571E-02  0.9727E-01  0.9727E-01
      0.913  0.2424E-01  0.2424E-01  0.1019E+00  0.1019E+00
      1.106  0.2305E-01  0.2305E-01  0.1064E+00  0.1064E+00
      1.299  0.3157E-01  0.3157E-01  0.1125E+00  0.1125E+00
      1.492  0.3019E-01  0.3019E-01  0.1183E+00  0.1183E+00
      1.684  0.8592E-02  0.8592E-02  0.1200E+00  0.1200E+00
      1.877  0.2482E-03  0.2482E-03  0.1200E+00  0.1200E+00
      2.070  0.0000E+00  0.0000E+00  0.1200E+00  0.1200E+00
      2.263  0.0000E+00  0.0000E+00  0.1200E+00  0.1200E+00
      2.455  0.0000E+00  0.0000E+00  0.1200E+00  0.1200E+00
      2.648  0.0000E+00  0.0000E+00  0.1200E+00  0.1200E+00
      2.841  0.0000E+00  0.0000E+00  0.1200E+00  0.1200E+00
      3.034  0.0000E+00  0.0000E+00  0.1200E+00  0.1200E+00
      3.227  0.0000E+00  0.0000E+00  0.1200E+00  0.1200E+00
      3.419  0.0000E+00  0.0000E+00  0.1200E+00  0.1200E+00
      3.612  0.0000E+00  0.0000E+00  0.1200E+00  0.1200E+00
      3.805  0.0000E+00  0.0000E+00  0.1200E+00  0.1200E+00
      3.998  0.0000E+00  0.0000E+00  0.1200E+00  0.1200E+00
      4.190  0.1159E-10  0.1159E-10  0.1200E+00  0.1200E+00
      4.383  0.5111E-02  0.5111E-02  0.1210E+00  0.1210E+00
      4.576  0.7462E-04  0.7462E-04  0.1210E+00  0.1210E+00
      4.769  0.0000E+00  0.0000E+00  0.1210E+00  0.1210E+00
      4.962  0.0000E+00  0.0000E+00  0.1210E+00  0.1210E+00
      5.154  0.2629E-02  0.2629E-02  0.1215E+00  0.1215E+00
      5.347  0.1293E-01  0.1293E-01  0.1240E+00  0.1240E+00
      5.540  0.0000E+00  0.0000E+00  0.1240E+00  0.1240E+00
      5.733  0.1409E-04  0.1409E-04  0.1240E+00  0.1240E+00
      5.925  0.9737E-02  0.9737E-02  0.1259E+00  0.1259E+00
      6.118  0.1653E-01  0.1653E-01  0.1291E+00  0.1291E+00
      6.311  0.4845E-02  0.4845E-02  0.1300E+00  0.1300E+00
      6.504  0.1015E-01  0.1015E-01  0.1320E+00  0.1320E+00
      6.697  0.7686E-02  0.7686E-02  0.1334E+00  0.1334E+00
      6.889  0.1327E-01  0.1327E-01  0.1360E+00  0.1360E+00
      7.082  0.5117E-02  0.5117E-02  0.1370E+00  0.1370E+00
      7.275  0.2019E-02  0.2019E-02  0.1374E+00  0.1374E+00
      7.468  0.1232E-01  0.1232E-01  0.1398E+00  0.1398E+00
      7.660  0.1105E-01  0.1105E-01  0.1419E+00  0.1419E+00
      7.853  0.8875E-02  0.8875E-02  0.1436E+00  0.1436E+00
      8.046  0.1448E-01  0.1448E-01  0.1464E+00  0.1464E+00
      8.239  0.1495E-01  0.1495E-01  0.1493E+00  0.1493E+00
      8.432  0.1515E-01  0.1515E-01  0.1522E+00  0.1522E+00
      8.624  0.1405E-01  0.1405E-01  0.1549E+00  0.1549E+00
      8.817  0.1755E-01  0.1755E-01  0.1583E+00  0.1583E+00
      9.010  0.1610E-01  0.1610E-01  0.1614E+00  0.1614E+00
      9.203  0.2053E-01  0.2053E-01  0.1654E+00  0.1654E+00
      9.395  0.1786E-01  0.1786E-01  0.1688E+00  0.1688E+00
      9.588  0.1875E-01  0.1907E-01  0.1724E+00  0.1725E+00
      9.781  0.1464E-01  0.1440E-01  0.1752E+00  0.1753E+00
      9.974  0.3976E-02  0.3887E-02  0.1760E+00  0.1760E+00
     10.167  0.0000E+00  0.0000E+00  0.1760E+00  0.1760E+00
     10.359  0.0000E+00  0.0000E+00  0.1760E+00  0.1760E+00
     10.552  0.0000E+00  0.0000E+00  0.1760E+00  0.1760E+00
     10.745  0.0000E+00  0.0000E+00  0.1760E+00  0.1760E+00
     10.938  0.0000E+00  0.0000E+00  0.1760E+00  0.1760E+00
     11.130  0.0000E+00  0.0000E+00  0.1760E+00  0.1760E+00
     11.323  0.0000E+00  0.0000E+00  0.1760E+00  0.1760E+00
     11.516  0.0000E+00  0.0000E+00  0.1760E+00  0.1760E+00
     11.709  0.0000E+00  0.0000E+00  0.1760E+00  0.1760E+00
     11.902  0.0000E+00  0.0000E+00  0.1760E+00  0.1760E+00
     12.094  0.0000E+00  0.0000E+00  0.1760E+00  0.1760E+00
     12.287  0.0000E+00  0.0000E+00  0.1760E+00  0.1760E+00
     12.480  0.0000E+00  0.0000E+00  0.1760E+00  0.1760E+00
