       N       E                     dE             d eps       ncg     rms          rms(c)
DAV:   1     0.158574272845E+04    0.15857E+04   -0.11354E+05  2336   0.126E+03
DAV:   2    -0.574174823108E+02   -0.16432E+04   -0.15423E+04  2904   0.359E+02
DAV:   3    -0.228590707830E+03   -0.17117E+03   -0.16910E+03  2808   0.116E+02
DAV:   4    -0.242038195918E+03   -0.13447E+02   -0.13424E+02  3576   0.331E+01
DAV:   5    -0.242253462397E+03   -0.21527E+00   -0.21517E+00  3312   0.441E+00
DAV:   6    -0.242264509749E+03   -0.11047E-01   -0.11046E-01  3488   0.110E+00
DAV:   7    -0.242264879070E+03   -0.36932E-03   -0.36930E-03  3400   0.210E-01
DAV:   8    -0.242264901449E+03   -0.22378E-04   -0.22378E-04  3424   0.611E-02
DAV:   9    -0.242264902821E+03   -0.13723E-05   -0.13723E-05  3344   0.131E-02
DAV:  10    -0.242264902880E+03   -0.58872E-07   -0.59225E-07  1968   0.417E-03    0.648E+01
RMM:  11    -0.235243972439E+03    0.70209E+01   -0.49131E+01  2112   0.196E+01    0.332E+01
RMM:  12    -0.255900272400E+03   -0.20656E+02   -0.23356E+01  2215   0.137E+01    0.206E+01
RMM:  13    -0.258392869943E+03   -0.24926E+01   -0.90309E+00  2183   0.541E+00    0.703E+00
RMM:  14    -0.258592309751E+03   -0.19944E+00   -0.20658E+00  2797   0.340E+00    0.325E+00
RMM:  15    -0.258556780639E+03    0.35529E-01   -0.34833E-01  2283   0.167E+00    0.687E-01
RMM:  16    -0.258576715396E+03   -0.19935E-01   -0.11140E-01  2299   0.918E-01    0.309E-01
RMM:  17    -0.258583056913E+03   -0.63415E-02   -0.29166E-02  2614   0.480E-01    0.177E-01
RMM:  18    -0.258584261931E+03   -0.12050E-02   -0.70744E-03  2561   0.211E-01    0.920E-02
RMM:  19    -0.258584781266E+03   -0.51934E-03   -0.19496E-03  2884   0.110E-01    0.453E-02
RMM:  20    -0.258584881459E+03   -0.10019E-03   -0.50440E-04  2878   0.503E-02    0.248E-02
RMM:  21    -0.258584900443E+03   -0.18984E-04   -0.15475E-04  2573   0.281E-02    0.102E-02
RMM:  22    -0.258584907142E+03   -0.66993E-05   -0.52062E-05  2812   0.157E-02    0.599E-03
RMM:  23    -0.258584906935E+03    0.20668E-06   -0.14082E-05  2238   0.833E-03    0.284E-03
RMM:  24    -0.258584906305E+03    0.63066E-06   -0.51847E-06  1703   0.616E-03
   1 F= -.27200571E+03 E0= -.27200571E+03  d E =-.272006E+03  mag=    -0.0004
       N       E                     dE             d eps       ncg     rms          rms(c)
DAV:   1    -0.258584907684E+03   -0.74834E-06   -0.62932E-05  2424   0.152E-02    0.202E-03
RMM:   2    -0.258584907975E+03   -0.29134E-06   -0.22522E-06  1466   0.554E-03
   2 F= -.27200571E+03 E0= -.27200571E+03  d E =-.145215E-05  mag=    -0.0001
       N       E                     dE             d eps       ncg     rms          rms(c)
DAV:   1    -0.258584908733E+03   -0.10495E-05   -0.34918E-05  2320   0.114E-02    0.955E-04
RMM:   2    -0.258584908831E+03   -0.98180E-07   -0.13650E-06  1407   0.454E-03
   3 F= -.27200571E+03 E0= -.27200571E+03  d E =-.214514E-05  mag=    -0.0000
       N       E                     dE             d eps       ncg     rms          rms(c)
DAV:   1    -0.258584909846E+03   -0.11128E-05   -0.12686E-04  2528   0.204E-02    0.166E-03
RMM:   2    -0.258584910252E+03   -0.40622E-06   -0.45196E-06  1593   0.783E-03
   4 F= -.27200572E+03 E0= -.27200572E+03  d E =-.325349E-05  mag=    -0.0000
       N       E                     dE             d eps       ncg     rms          rms(c)
DAV:   1    -0.258584910898E+03   -0.10518E-05   -0.31066E-05  2552   0.107E-02    0.821E-04
RMM:   2    -0.258584910992E+03   -0.94287E-07   -0.12116E-06  1299   0.452E-03
   5 F= -.27200572E+03 E0= -.27200572E+03  d E =-.384926E-05  mag=    -0.0000
       N       E                     dE             d eps       ncg     rms          rms(c)
DAV:   1    -0.258584911803E+03   -0.90555E-06   -0.10648E-04  2384   0.187E-02    0.148E-03
RMM:   2    -0.258584912127E+03   -0.32389E-06   -0.35664E-06  1469   0.716E-03
   6 F= -.27200572E+03 E0= -.27200572E+03  d E =-.469612E-05  mag=    -0.0000
       N       E                     dE             d eps       ncg     rms          rms(c)
DAV:   1    -0.258584912855E+03   -0.10520E-05   -0.15362E-04  2432   0.235E-02    0.182E-03
RMM:   2    -0.258584913382E+03   -0.52612E-06   -0.61777E-06  1864   0.870E-03
   7 F= -.27200572E+03 E0= -.27200572E+03  d E =-.199567E-05  mag=    -0.0000
