 vasp.6.4.1 05Apr23 (build Jun 07 2023 15:38:11) complex                        
  
 executed on             LinuxIFC date 2023.10.23  19:13:26
 running  128 mpi-ranks, with    1 threads/rank, on    1 nodes
 distrk:  each k-point on  128 cores,    1 groups
 distr:  one band on NCORE=  32 cores,    4 groups


--------------------------------------------------------------------------------------------------------


 INCAR:
   GGA = PE
   PREC = Accu
   EDIFF = 1.e-6
   EDIFFG = -1.e-3
   ENCUT = 520.
   NELM = 100
   NELMDL = -10
   LASPH = .TRUE.
   LREAL = Auto
   LMAXMIX = 4
   ISPIN = 2
   LDIAG = .TRUE.
   LPLANE = .TRUE.
   IVDW = 12
   SIGMA = 0.03
   ISMEAR = 0
   NSW = 1000    number of steps for IOM
   IBRION = 2    ionic relax: 0-MD 1-quasi-New 2-CG
   ISIF = 2    ionic relaxation + stress tensor calcn.
   LCHARG = .FALSE.
   LWAVE = .FALSE.
   ALGO = F
   KPAR = 1
   NPAR = 4
   POTIM = 0.2

 POTCAR:    PAW_PBE Li_sv_GW 25Mar2010            
 POTCAR:    PAW_PBE P_GW 19Mar2012                
 POTCAR:    PAW_PBE S_GW 19Mar2012                
 POTCAR:    PAW_PBE Cl_GW 19Mar2012               
 -----------------------------------------------------------------------------
|                                                                             |
|           W    W    AA    RRRRR   N    N  II  N    N   GGGG   !!!           |
|           W    W   A  A   R    R  NN   N  II  NN   N  G    G  !!!           |
|           W    W  A    A  R    R  N N  N  II  N N  N  G       !!!           |
|           W WW W  AAAAAA  RRRRR   N  N N  II  N  N N  G  GGG   !            |
|           WW  WW  A    A  R   R   N   NN  II  N   NN  G    G                |
|           W    W  A    A  R    R  N    N  II  N    N   GGGG   !!!           |
|                                                                             |
|     You use a magnetic or noncollinear calculation, but did not specify     |
|     the initial magnetic moment with the MAGMOM tag. Note that a            |
|     default of 1 will be used for all atoms. This ferromagnetic setup       |
|     may break the symmetry of the crystal, in particular it may rule        |
|     out finding an antiferromagnetic solution. Thence, we recommend         |
|     setting the initial magnetic moment manually or verifying carefully     |
|     that this magnetic setup is desired.                                    |
|                                                                             |
 -----------------------------------------------------------------------------

 POTCAR:    PAW_PBE Li_sv_GW 25Mar2010            
   SHA256 =  24a6ace15a582615486b36ce4dc781b048409f4015b7684ed1273ae395fa2fdc Li_sv_GW/POTCAR       
   COPYR  = (c) Copyright 25Mar2010 Georg Kresse                                                    
   COPYR  = This file is part of the software VASP. Any use, copying, and all other rights are regul
   COPYR  = If you do not have a valid VASP license, you may not use, copy or distribute this file. 
   VRHFIN =Li: 1s2s                                                                                 
   LEXCH  = PE                                                                                      
   EATOM  =   200.9989 eV,   14.7730 Ry                                                             
                                                                                                    
   TITEL  = PAW_PBE Li_sv_GW 25Mar2010                                                              
   LULTRA =        F    use ultrasoft PP ?                                                          
   IUNSCR =        0    unscreen: 0-lin 1-nonlin 2-no                                               
   RPACOR =    0.000    partial core radius                                                         
   POMASS =    7.010; ZVAL   =    3.000    mass and valenz                                          
   RCORE  =    1.500    outmost cutoff radius                                                       
   RWIGS  =    1.600; RWIGS  =    0.847    wigner-seitz radius (au A)                               
   ENMAX  =  433.699; ENMIN  =  325.274 eV                                                          
   RCLOC  =    1.003    cutoff for local pot                                                        
   LCOR   =        T    correct aug charges                                                         
   LPAW   =        T    paw PP                                                                      
   EAUG   = 1041.699                                                                                
   RMAX   =    1.536    core radius for proj-oper                                                   
   RAUG   =    1.300    factor for augmentation sphere                                              
   RDEP   =    1.520    radius for radial grids                                                     
   RDEPT  =    1.300    core radius for aug-charge                                                  
                                                                                                    
   Atomic configuration                                                                             
    4 entries                                                                                       
     n  l   j            E        occ.                                                              
     1  0  0.50       -53.3604   2.0000                                                             
     1  0  0.50       -52.0001   0.0000                                                             
     2  1  0.50        -1.5636   1.0000                                                             
     3  2  1.50        -1.3606   0.0000                                                             
   Description                                                                                      
     l       E           TYP  RCUT    TYP  RCUT                                                     
     0    -53.3603633     23  1.200                                                                 
     0    -52.0001064     23  1.200                                                                 
     0    176.8757380     23  1.300                                                                 
     1     -1.5635925     23  1.500                                                                 
     1    108.8466080     23  1.500                                                                 
     2     81.6349560     23  1.500                                                                 
  local pseudopotential read in
  kinetic energy density of atom read in
  atomic valenz-charges read in
  non local Contribution for L=           0  read in
    real space projection operators read in
  non local Contribution for L=           0  read in
    real space projection operators read in
  non local Contribution for L=           0  read in
    real space projection operators read in
  non local Contribution for L=           1  read in
    real space projection operators read in
  non local Contribution for L=           1  read in
    real space projection operators read in
  non local Contribution for L=           2  read in
    real space projection operators read in
    PAW grid and wavefunctions read in
 
   number of l-projection  operators is LMAX  =           6
   number of lm-projection operators is LMMAX =          14
 
 POTCAR:    PAW_PBE P_GW 19Mar2012                
   SHA256 =  715c28f2291d37b61637ce89646c59f66f71c8b8d8bfba631e5feb9f7b42defe P_GW/POTCAR           
   COPYR  = (c) Copyright 19Mar2012 Georg Kresse                                                    
   COPYR  = This file is part of the software VASP. Any use, copying, and all other rights are regul
   COPYR  = If you do not have a valid VASP license, you may not use, copy or distribute this file. 
   VRHFIN =P : s2p3                                                                                 
   LEXCH  = PE                                                                                      
   EATOM  =   176.0430 eV,   12.9388 Ry                                                             
                                                                                                    
   TITEL  = PAW_PBE P_GW 19Mar2012                                                                  
   LULTRA =        F    use ultrasoft PP ?                                                          
   IUNSCR =        1    unscreen: 0-lin 1-nonlin 2-no                                               
   RPACOR =    1.400    partial core radius                                                         
   POMASS =   30.974; ZVAL   =    5.000    mass and valenz                                          
   RCORE  =    2.000    outmost cutoff radius                                                       
   RWIGS  =    1.900; RWIGS  =    1.005    wigner-seitz radius (au A)                               
   ENMAX  =  255.040; ENMIN  =  191.280 eV                                                          
   ICORE  =        3    local potential                                                             
   LCOR   =        T    correct aug charges                                                         
   LPAW   =        T    paw PP                                                                      
   EAUG   =  499.732                                                                                
   DEXC   =    0.000                                                                                
   RMAX   =    2.047    core radius for proj-oper                                                   
   RAUG   =    1.300    factor for augmentation sphere                                              
   RDEP   =    2.059    radius for radial grids                                                     
   RDEPT  =    1.900    core radius for aug-charge                                                  
                                                                                                    
   Atomic configuration                                                                             
    7 entries                                                                                       
     n  l   j            E        occ.                                                              
     1  0  0.50     -2084.0982   2.0000                                                             
     2  0  0.50      -173.9859   2.0000                                                             
     2  1  1.50      -124.4865   6.0000                                                             
     3  0  0.50       -13.9692   2.0000                                                             
     3  1  0.50        -5.5067   3.0000                                                             
     3  2  1.50        -6.8029   0.0000                                                             
     4  3  2.50        -1.3606   0.0000                                                             
   Description                                                                                      
     l       E           TYP  RCUT    TYP  RCUT                                                     
     0    -13.9691528     23  1.900                                                                 
     0    102.0436950     23  1.900                                                                 
     1     -5.5066939     23  1.900                                                                 
     1    102.0436950     23  1.900                                                                 
     2     -8.1634956     23  2.000                                                                 
     2     81.6349560     23  2.000                                                                 
     3     27.2116520     23  2.000                                                                 
  local pseudopotential read in
  partial core-charges read in
  partial kinetic energy density read in
  kinetic energy density of atom read in
  atomic valenz-charges read in
  non local Contribution for L=           0  read in
    real space projection operators read in
  non local Contribution for L=           0  read in
    real space projection operators read in
  non local Contribution for L=           1  read in
    real space projection operators read in
  non local Contribution for L=           1  read in
    real space projection operators read in
  non local Contribution for L=           2  read in
    real space projection operators read in
  non local Contribution for L=           2  read in
    real space projection operators read in
    PAW grid and wavefunctions read in
 
   number of l-projection  operators is LMAX  =           6
   number of lm-projection operators is LMMAX =          18
 
 POTCAR:    PAW_PBE S_GW 19Mar2012                
   SHA256 =  357db9cfb0783579b2eebe03197c2d807131fea8ea663b1fcfb6ce2fa75af011 S_GW/POTCAR           
   COPYR  = (c) Copyright 19Mar2012 Georg Kresse                                                    
   COPYR  = This file is part of the software VASP. Any use, copying, and all other rights are regul
   COPYR  = If you do not have a valid VASP license, you may not use, copy or distribute this file. 
   VRHFIN =S : s2p4                                                                                 
   LEXCH  = PE                                                                                      
   EATOM  =   276.8230 eV,   20.3459 Ry                                                             
                                                                                                    
   TITEL  = PAW_PBE S_GW 19Mar2012                                                                  
   LULTRA =        F    use ultrasoft PP ?                                                          
   IUNSCR =        1    unscreen: 0-lin 1-nonlin 2-no                                               
   RPACOR =    1.400    partial core radius                                                         
   POMASS =   32.066; ZVAL   =    6.000    mass and valenz                                          
   RCORE  =    1.900    outmost cutoff radius                                                       
   RWIGS  =    1.900; RWIGS  =    1.005    wigner-seitz radius (au A)                               
   ENMAX  =  258.689; ENMIN  =  194.016 eV                                                          
   ICORE  =        3    local potential                                                             
   LCOR   =        T    correct aug charges                                                         
   LPAW   =        T    paw PP                                                                      
   EAUG   =  488.319                                                                                
   DEXC   =    0.000                                                                                
   RMAX   =    1.942    core radius for proj-oper                                                   
   RAUG   =    1.300    factor for augmentation sphere                                              
   RDEP   =    1.954    radius for radial grids                                                     
   RDEPT  =    1.900    core radius for aug-charge                                                  
                                                                                                    
   Atomic configuration                                                                             
    7 entries                                                                                       
     n  l   j            E        occ.                                                              
     1  0  0.50     -2405.8406   2.0000                                                             
     2  0  0.50      -211.7007   2.0000                                                             
     2  1  1.50      -156.4958   6.0000                                                             
     3  0  0.50       -17.2562   2.0000                                                             
     3  1  0.50        -7.0085   4.0000                                                             
     3  2  1.50        -8.1635   0.0000                                                             
     4  3  2.50        -1.3606   0.0000                                                             
   Description                                                                                      
     l       E           TYP  RCUT    TYP  RCUT                                                     
     0    -17.2561639     23  1.700                                                                 
     0     88.4378690     23  1.900                                                                 
     1     -7.0085399     23  1.900                                                                 
     1     88.4378690     23  1.900                                                                 
     2    -10.8846608     23  1.900                                                                 
     2     54.4233040     23  1.900                                                                 
     3     27.2116520     23  1.800                                                                 
  local pseudopotential read in
  partial core-charges read in
  partial kinetic energy density read in
  kinetic energy density of atom read in
  atomic valenz-charges read in
  non local Contribution for L=           0  read in
    real space projection operators read in
  non local Contribution for L=           0  read in
    real space projection operators read in
  non local Contribution for L=           1  read in
    real space projection operators read in
  non local Contribution for L=           1  read in
    real space projection operators read in
  non local Contribution for L=           2  read in
    real space projection operators read in
  non local Contribution for L=           2  read in
    real space projection operators read in
    PAW grid and wavefunctions read in
 
   number of l-projection  operators is LMAX  =           6
   number of lm-projection operators is LMMAX =          18
 
 POTCAR:    PAW_PBE Cl_GW 19Mar2012               
   SHA256 =  3ef3b3169d6a9a89979f58b4cf17d927a58518fc660d8883d88cacaee8175441 Cl_GW/POTCAR          
   COPYR  = (c) Copyright 19Mar2012 Georg Kresse                                                    
   COPYR  = This file is part of the software VASP. Any use, copying, and all other rights are regul
   COPYR  = If you do not have a valid VASP license, you may not use, copy or distribute this file. 
   VRHFIN =Cl: s2p5                                                                                 
   LEXCH  = PE                                                                                      
   EATOM  =   409.7259 eV,   30.1140 Ry                                                             
                                                                                                    
   TITEL  = PAW_PBE Cl_GW 19Mar2012                                                                 
   LULTRA =        F    use ultrasoft PP ?                                                          
   IUNSCR =        1    unscreen: 0-lin 1-nonlin 2-no                                               
   RPACOR =    1.400    partial core radius                                                         
   POMASS =   35.453; ZVAL   =    7.000    mass and valenz                                          
   RCORE  =    1.900    outmost cutoff radius                                                       
   RWIGS  =    1.900; RWIGS  =    1.005    wigner-seitz radius (au A)                               
   ENMAX  =  262.472; ENMIN  =  196.854 eV                                                          
   ICORE  =        3    local potential                                                             
   LCOR   =        T    correct aug charges                                                         
   LPAW   =        T    paw PP                                                                      
   EAUG   =  456.703                                                                                
   DEXC   =    0.000                                                                                
   RMAX   =    1.945    core radius for proj-oper                                                   
   RAUG   =    1.300    factor for augmentation sphere                                              
   RDEP   =    2.020    radius for radial grids                                                     
   RDEPT  =    1.900    core radius for aug-charge                                                  
                                                                                                    
   Atomic configuration                                                                             
    7 entries                                                                                       
     n  l   j            E        occ.                                                              
     1  0  0.50     -2751.1850   2.0000                                                             
     2  0  0.50      -252.6861   2.0000                                                             
     2  1  1.50      -191.6157   6.0000                                                             
     3  0  0.50       -20.6916   2.0000                                                             
     3  1  0.50        -8.5949   5.0000                                                             
     3  2  1.50        -9.5241   0.0000                                                             
     4  3  2.50        -9.5241   0.0000                                                             
   Description                                                                                      
     l       E           TYP  RCUT    TYP  RCUT                                                     
     0    -20.6915657     23  1.700                                                                 
     0     95.2407820     23  1.800                                                                 
     1     -8.5948577     23  1.900                                                                 
     1     95.2407820     23  1.900                                                                 
     2    -10.8846608     23  1.900                                                                 
     2     54.4233040     23  1.900                                                                 
     3     27.2116520     23  1.900                                                                 
  local pseudopotential read in
  partial core-charges read in
  partial kinetic energy density read in
  kinetic energy density of atom read in
  atomic valenz-charges read in
  non local Contribution for L=           0  read in
    real space projection operators read in
  non local Contribution for L=           0  read in
    real space projection operators read in
  non local Contribution for L=           1  read in
    real space projection operators read in
  non local Contribution for L=           1  read in
    real space projection operators read in
  non local Contribution for L=           2  read in
    real space projection operators read in
  non local Contribution for L=           2  read in
    real space projection operators read in
    PAW grid and wavefunctions read in
 
   number of l-projection  operators is LMAX  =           6
   number of lm-projection operators is LMMAX =          18
 
 Optimization of the real space projectors (new method)

 maximal supplied QI-value         = 25.13
 optimisation between [QCUT,QGAM] = [ 11.56, 23.12] = [ 37.43,149.72] Ry 
 Optimized for a Real-space Cutoff    1.28 Angstroem

   l    n(q)    QCUT    max X(q) W(low)/X(q) W(high)/X(q)  e(spline) 
   0      9    11.561    87.733    0.11E-03    0.32E-04    0.56E-06
   0      9    11.561    82.800    0.11E-03    0.35E-04    0.56E-06
   0      9    11.561     2.509    0.22E-03    0.42E-04    0.79E-06
   1      8    11.561    12.580    0.94E-04    0.26E-03    0.21E-06
   1      8    11.561     1.319    0.33E-04    0.15E-03    0.19E-06
   2      8    11.561     1.993    0.36E-04    0.89E-04    0.26E-06
 Optimization of the real space projectors (new method)

 maximal supplied QI-value         = 18.90
 optimisation between [QCUT,QGAM] = [ 11.53, 23.24] = [ 37.21,151.29] Ry 
 Optimized for a Real-space Cutoff    1.21 Angstroem

   l    n(q)    QCUT    max X(q) W(low)/X(q) W(high)/X(q)  e(spline) 
   0      8    11.527     8.355    0.73E-04    0.70E-04    0.26E-07
   0      8    11.527     1.401    0.17E-03    0.17E-03    0.63E-07
   1      8    11.527     4.747    0.13E-03    0.17E-03    0.11E-06
   1      8    11.527     2.025    0.16E-03    0.18E-03    0.12E-06
   2      7    11.527     3.169    0.51E-04    0.25E-03    0.60E-07
   2      7    11.527     3.441    0.82E-04    0.22E-03    0.14E-06
 Optimization of the real space projectors (new method)

 maximal supplied QI-value         = 19.84
 optimisation between [QCUT,QGAM] = [ 11.51, 23.22] = [ 37.09,150.92] Ry 
 Optimized for a Real-space Cutoff    1.49 Angstroem

   l    n(q)    QCUT    max X(q) W(low)/X(q) W(high)/X(q)  e(spline) 
   0     10    11.508     7.541    0.34E-04    0.13E-04    0.69E-07
   0     10    11.508     1.809    0.49E-04    0.27E-04    0.14E-06
   1     10    11.508     4.107    0.27E-05    0.41E-05    0.14E-06
   1     10    11.508     2.196    0.26E-05    0.25E-05    0.22E-06
   2      9    11.508     4.265    0.18E-03    0.11E-03    0.81E-06
   2      9    11.508     1.925    0.97E-04    0.76E-04    0.47E-06
 Optimization of the real space projectors (new method)

 maximal supplied QI-value         = 19.84
 optimisation between [QCUT,QGAM] = [ 11.51, 23.22] = [ 37.09,150.92] Ry 
 Optimized for a Real-space Cutoff    1.21 Angstroem

   l    n(q)    QCUT    max X(q) W(low)/X(q) W(high)/X(q)  e(spline) 
   0      8    11.508     6.761    0.57E-04    0.57E-04    0.35E-07
   0      8    11.508     1.642    0.14E-03    0.14E-03    0.91E-07
   1      8    11.508     3.519    0.20E-04    0.72E-04    0.47E-07
   1      8    11.508     2.150    0.27E-04    0.11E-03    0.89E-07
   2      7    11.508     2.976    0.19E-03    0.33E-03    0.16E-06
   2      7    11.508     1.494    0.14E-03    0.29E-03    0.14E-06
  PAW_PBE Li_sv_GW 25Mar2010            :
 energy of atom  1       EATOM= -200.9989
 kinetic energy error for atom=    0.0127 (will be added to EATOM!!)
  PAW_PBE P_GW 19Mar2012                :
 energy of atom  2       EATOM= -176.0430
 kinetic energy error for atom=    0.0011 (will be added to EATOM!!)
  PAW_PBE S_GW 19Mar2012                :
 energy of atom  3       EATOM= -276.8230
 kinetic energy error for atom=    0.0024 (will be added to EATOM!!)
  PAW_PBE Cl_GW 19Mar2012               :
 energy of atom  4       EATOM= -409.7259
 kinetic energy error for atom=    0.0030 (will be added to EATOM!!)
 
 
 POSCAR: Li24 P4 S20 Cl4
  positions in direct lattice
  velocities in cartesian coordinates
 exchange correlation table for  LEXCH =        8
   RHO(1)=    0.500       N(1)  =     2000
   RHO(2)=  100.500       N(2)  =     4000

 VTST: version 4.1, (05/19/21)

 CHAIN: initializing optimizer
 
 OPT: Using VASP Conjugate-Gradient optimizer
 CHAIN: Read ICHAIN            0
 
 POSCAR: Li24 P4 S20 Cl4
  positions in direct lattice
  velocities in cartesian coordinates
 


--------------------------------------------------------------------------------------------------------


 ion  position               nearest neighbor table
   1  0.978  0.273  0.227-  46 2.22
   2  0.967  0.744  0.756-
   3  0.018  0.201  0.811-
   4  0.018  0.689  0.299-
   5  0.332  0.320  0.956-
   6  0.172  0.816  0.037-
   7  0.698  0.292  0.018-
   8  0.672  0.710  0.984-
   9  0.266  0.984  0.294-
  10  0.210  0.015  0.806-
  11  0.800  0.968  0.817-
  12  0.824  0.025  0.184-
  13  0.210  0.694  0.485-
  14  0.266  0.206  0.516-
  15  0.800  0.683  0.532-
  16  0.824  0.316  0.475-
  17  0.172  0.463  0.684-
  18  0.332  0.544  0.180-
  19  0.698  0.482  0.208-
  20  0.672  0.516  0.790-
  21  0.474  0.176  0.689-
  22  0.474  0.811  0.324-
  23  0.532  0.183  0.317-
  24  0.515  0.822  0.678-
  25  0.493  0.492  0.501-  44 2.05  43 2.05  42 2.05  41 2.06
  26  0.493  0.999  0.008-  39 2.05  40 2.05  38 2.05  37 2.06
  27  0.003  0.508  0.992-  35 2.05  36 2.05  34 2.06  33 2.06
  28  0.983  0.997  0.503-  31 2.04  32 2.04  29 2.06  30 2.07
  29  0.117  0.881  0.619-  28 2.06
  30  0.093  0.126  0.374-  28 2.07
  31  0.865  0.872  0.382-  28 2.04
  32  0.865  0.119  0.628-  28 2.04
  33  0.878  0.630  0.112-  27 2.06
  34  0.878  0.388  0.870-  27 2.06
  35  0.133  0.626  0.875-  27 2.05
  36  0.138  0.392  0.108-  27 2.05
  37  0.614  0.115  0.877-  26 2.06
  38  0.620  0.891  0.139-  26 2.05
  39  0.371  0.129  0.121-  26 2.05
  40  0.379  0.863  0.893-  26 2.05
  41  0.614  0.623  0.386-  25 2.06
  42  0.620  0.361  0.609-  25 2.05
  43  0.379  0.607  0.637-  25 2.05
  44  0.371  0.379  0.371-  25 2.05
  45  0.732  0.746  0.754-
  46  0.751  0.252  0.248-   1 2.22
  47  0.248  0.753  0.257-
  48  0.248  0.243  0.747-
  49  0.999  1.000  0.972-
  50  0.999  0.528  0.500-
  51  0.455  0.011  0.489-
  52  0.531  0.490  0.011-
 
  LATTYP: Found a simple cubic cell.
 ALAT       =     9.6946854437
  
  Lattice vectors:
  
 A1 = (   9.6946854437,   0.0000000000,   0.0000000000)
 A2 = (   0.0000000000,   9.6946854437,   0.0000000000)
 A3 = (   0.0000000000,   0.0000000000,   9.6946854437)


Analysis of symmetry for initial positions (statically):
=====================================================================
 Subroutine PRICEL returns:
 Original cell was already a primitive cell.
 

 Routine SETGRP: Setting up the symmetry group for a 
 simple cubic supercell.


 Subroutine GETGRP returns: Found  2 space group operations
 (whereof  1 operations were pure point group operations)
 out of a pool of 48 trial point group operations.


The static configuration has the point symmetry C_1 .
 The point group associated with its full space group is C_1h.


Analysis of symmetry for dynamics (positions and initial velocities):
=====================================================================
 Subroutine PRICEL returns:
 Original cell was already a primitive cell.
 

 Routine SETGRP: Setting up the symmetry group for a 
 simple cubic supercell.


 Subroutine GETGRP returns: Found  2 space group operations
 (whereof  1 operations were pure point group operations)
 out of a pool of 48 trial point group operations.


The dynamic configuration has the point symmetry C_1 .
 The point group associated with its full space group is C_1h.


Analysis of structural, dynamic, and magnetic symmetry:
=====================================================================
 Subroutine PRICEL returns:
 Original cell was already a primitive cell.
 

 Routine SETGRP: Setting up the symmetry group for a 
 simple cubic supercell.


 Subroutine GETGRP returns: Found  2 space group operations
 (whereof  1 operations were pure point group operations)
 out of a pool of 48 trial point group operations.


The overall configuration has the point symmetry C_1 .
 The point group associated with its full space group is C_1h.


 Subroutine INISYM returns: Found  2 space group operations
 (whereof  1 operations are pure point group operations),
 and found     1 'primitive' translations


----------------------------------------------------------------------------------------

                                     Primitive cell                                     

  volume of cell :     911.1737

  direct lattice vectors                    reciprocal lattice vectors
     9.694685444  0.000000000  0.000000000     0.103149298  0.000000000  0.000000000
     0.000000000  9.694685444  0.000000000     0.000000000  0.103149298  0.000000000
     0.000000000  0.000000000  9.694685444     0.000000000  0.000000000  0.103149298

  length of vectors
     9.694685444  9.694685444  9.694685444     0.103149298  0.103149298  0.103149298

  position of ions in fractional coordinates (direct lattice)
     0.977576482  0.273105739  0.227028667
     0.966695565  0.744278167  0.755856239
     0.018277876  0.200756169  0.811028932
     0.018277876  0.689105474  0.299378237
     0.331970542  0.320284596  0.956215542
     0.171509654  0.816460605  0.037011024
     0.698159114  0.291787084  0.018279513
     0.671522880  0.709875380  0.984045063
     0.265822463  0.984415175  0.293673079
     0.209996289  0.015206555  0.805727000
     0.799766315  0.967737409  0.816976927
     0.824338221  0.024864120  0.183876604
     0.209996289  0.694407406  0.484927851
     0.265822463  0.206461327  0.515719231
     0.799766315  0.683157479  0.532396997
     0.824338221  0.316257802  0.475270286
     0.171509654  0.463123382  0.683673801
     0.331970542  0.543918864  0.179849810
     0.698159114  0.481854893  0.208347322
     0.671522880  0.516089343  0.790259026
     0.474278271  0.175806304  0.689088662
     0.474278271  0.811045744  0.324328102
     0.532421458  0.183375555  0.316758851
     0.515177324  0.821663096  0.678471310
     0.493083670  0.491729735  0.500788502
     0.493083670  0.999345904  0.008404671
     0.002960159  0.507964196  0.992170210
     0.983018480  0.997469067  0.502665339
     0.116680170  0.881038241  0.619096165
     0.093322926  0.126430606  0.373703800
     0.864501318  0.872479757  0.381549102
     0.864501318  0.118585304  0.627654649
     0.877893564  0.630315151  0.112168231
     0.877893564  0.387966175  0.869819255
     0.132780243  0.625612006  0.874522400
     0.137664070  0.392330563  0.107803843
     0.614308667  0.114626473  0.877375396
     0.619526719  0.890711379  0.138947835
     0.370538068  0.129111927  0.120894603
     0.379230502  0.863262460  0.893075522
     0.614308667  0.622759010  0.385507933
     0.619526719  0.361186572  0.609423027
     0.379230502  0.607058884  0.636871946
     0.370538068  0.379239803  0.371022479
     0.732267840  0.746259539  0.753874867
     0.750537196  0.252324329  0.247810077
     0.247824628  0.753296981  0.257166008
     0.247824628  0.242968398  0.746837425
     0.998954469  0.999759485  0.971877979
     0.998954469  0.528256427  0.500374921
     0.455218366  0.010747968  0.489386438
     0.531072349  0.489625501  0.010508905

  ion indices of the primitive-cell ions
   primitive index   ion index
                 1           1
                 2           2
                 3           3
                 4           4
                 5           5
                 6           6
                 7           7
                 8           8
                 9           9
                10          10
                11          11
                12          12
                13          13
                14          14
                15          15
                16          16
                17          17
                18          18
                19          19
                20          20
                21          21
                22          22
                23          23
                24          24
                25          25
                26          26
                27          27
                28          28
                29          29
                30          30
                31          31
                32          32
                33          33
                34          34
                35          35
                36          36
                37          37
                38          38
                39          39
                40          40
                41          41
                42          42
                43          43
                44          44
                45          45
                46          46
                47          47
                48          48
                49          49
                50          50
                51          51
                52          52

----------------------------------------------------------------------------------------

 
 
 KPOINTS: Automatic mesh                          

Automatic generation of k-mesh.
 Grid dimensions read from file:
 generate k-points for:    2    2    2

 Generating k-lattice:

  Cartesian coordinates                     Fractional coordinates (reciprocal lattice)
     0.051574649  0.000000000  0.000000000     0.500000000  0.000000000  0.000000000
     0.000000000  0.051574649  0.000000000     0.000000000  0.500000000  0.000000000
     0.000000000  0.000000000  0.051574649     0.000000000  0.000000000  0.500000000

  Length of vectors
     0.051574649  0.051574649  0.051574649

  Shift w.r.t. Gamma in fractional coordinates (k-lattice)
     0.500000000  0.500000000  0.500000000

 
 Subroutine IBZKPT returns following result:
 ===========================================
 
 Found      3 irreducible k-points:
 
 Following reciprocal coordinates:
            Coordinates               Weight
  0.250000  0.250000  0.250000      4.000000
 -0.250000 -0.250000  0.250000      2.000000
  0.250000 -0.250000  0.250000      2.000000
 
 Following cartesian coordinates:
            Coordinates               Weight
  0.025787  0.025787  0.025787      4.000000
 -0.025787 -0.025787  0.025787      2.000000
  0.025787 -0.025787  0.025787      2.000000
 


--------------------------------------------------------------------------------------------------------




 Dimension of arrays:
   k-points           NKPTS =      3   k-points in BZ     NKDIM =      3   number of bands    NBANDS=    176
   number of dos      NEDOS =    301   number of ions     NIONS =     52
   non local maximal  LDIM  =      6   non local SUM 2l+1 LMDIM =     18
   total plane-waves  NPLWV = 373248
   max r-space proj   IRMAX =   5716   max aug-charges    IRDMAX=  17486
   dimension x,y,z NGX =    72 NGY =   72 NGZ =   72
   dimension x,y,z NGXF=   144 NGYF=  144 NGZF=  144
   support grid    NGXF=   144 NGYF=  144 NGZF=  144
   ions per type =              24   4  20   4
   NGX,Y,Z   is equivalent  to a cutoff of  12.35, 12.35, 12.35 a.u.
   NGXF,Y,Z  is equivalent  to a cutoff of  24.69, 24.69, 24.69 a.u.

 SYSTEM =  unknown system                          
 POSCAR =  Li24 P4 S20 Cl4                         

 Startparameter for this run:
   NWRITE =      2    write-flag & timer
   PREC   = accu      normal or accurate (medium, high low for compatibility)
   ISTART =      0    job   : 0-new  1-cont  2-samecut
   ICHARG =      2    charge: 1-file 2-atom 10-const
   ISPIN  =      2    spin polarized calculation?
   LNONCOLLINEAR =      F non collinear calculations
   LSORBIT =      F    spin-orbit coupling
   INIWAV =      1    electr: 0-lowe 1-rand  2-diag
   LASPH  =      T    aspherical Exc in radial PAW
 Electronic Relaxation 1
   ENCUT  =  520.0 eV  38.22 Ry    6.18 a.u.  18.03 18.03 18.03*2*pi/ulx,y,z
   ENINI  =  520.0     initial cutoff
   ENAUG  = 1041.7 eV  augmentation charge cutoff
   NELM   =    100;   NELMIN=  2; NELMDL=-10     # of ELM steps 
   EDIFF  = 0.1E-05   stopping-criterion for ELM
   LREAL  =      T    real-space projection
   NLSPLINE    = F    spline interpolate recip. space projectors
   LCOMPAT=      F    compatible to vasp.4.4
   GGA_COMPAT  = T    GGA compatible to vasp.4.4-vasp.4.6
   LMAXPAW     = -100 max onsite density
   LMAXMIX     =    4 max onsite mixed and CHGCAR
   VOSKOWN=      0    Vosko Wilk Nusair interpolation
   ROPT   =   -0.00025  -0.00025  -0.00025  -0.00025
 Ionic relaxation
   EDIFFG = -.1E-02   stopping-criterion for IOM
   NSW    =   1000    number of steps for IOM
   NBLOCK =      1;   KBLOCK =   1000    inner block; outer block 
   IBRION =      2    ionic relax: 0-MD 1-quasi-New 2-CG
   NFREE  =      1    steps in history (QN), initial steepest desc. (CG)
   ISIF   =      2    stress and relaxation
   IWAVPR =     11    prediction:  0-non 1-charg 2-wave 3-comb
   ISYM   =      2    0-nonsym 1-usesym 2-fastsym
   LCORR  =      T    Harris-Foulkes like correction to forces

   POTIM  = 0.2000    time-step for ionic-motion
   TEIN   =    0.0    initial temperature
   TEBEG  =    0.0;   TEEND  =   0.0 temperature during run
   SMASS  =  -3.00    Nose mass-parameter (am)
   estimated Nose-frequenzy (Omega)   =  0.10E-29 period in steps = 0.31E+47 mass=  -0.215E-26a.u.
   SCALEE = 1.0000    scale energy and forces
   NPACO  =    256;   APACO  = 10.0  distance and # of slots for P.C.
   PSTRESS=    0.0 pullay stress

  Mass of Ions in am
   POMASS =   7.01 30.97 32.07 35.45
  Ionic Valenz
   ZVAL   =   3.00  5.00  6.00  7.00
  Atomic Wigner-Seitz radii
   RWIGS  =  -1.00 -1.00 -1.00 -1.00
  virtual crystal weights 
   VCA    =   1.00  1.00  1.00  1.00
   NELECT =     240.0000    total number of electrons
   NUPDOWN=      -1.0000    fix difference up-down

 DOS related values:
   EMIN   =  10.00;   EMAX   =-10.00  energy-range for DOS
   EFERMI =   0.00;   METHOD = LEGACY      
   ISMEAR =     0;   SIGMA  =   0.03  broadening in eV -4-tet -1-fermi 0-gaus

 Electronic relaxation 2 (details)
   IALGO  =     68    algorithm
   LDIAG  =      T    sub-space diagonalisation (order eigenvalues)
   LSUBROT=      F    optimize rotation matrix (better conditioning)
   TURBO    =      0    0=normal 1=particle mesh
   IRESTART =      0    0=no restart 2=restart with 2 vectors
   NREBOOT  =      0    no. of reboots
   NMIN     =      0    reboot dimension
   EREF     =   0.00    reference energy to select bands
   IMIX   =      4    mixing-type and parameters
     AMIX     =   0.40;   BMIX     =  1.00
     AMIX_MAG =   1.60;   BMIX_MAG =  1.00
     AMIN     =   0.10
     WC   =   100.;   INIMIX=   1;  MIXPRE=   1;  MAXMIX= -45

 Intra band minimization:
   WEIMIN = 0.0010     energy-eigenvalue tresh-hold
   EBREAK =  0.14E-08  absolut break condition
   DEPER  =   0.30     relativ break condition  

   TIME   =   0.40     timestep for ELM

  volume/ion in A,a.u.               =      17.52       118.25
  Fermi-wavevector in a.u.,A,eV,Ry     =   1.049409  1.983096 14.983547  1.101260
  Thomas-Fermi vector in A             =   2.184371
 
 Write flags
   LWAVE        =      F    write WAVECAR
   LDOWNSAMPLE  =      F    k-point downsampling of WAVECAR
   LCHARG       =      F    write CHGCAR
   LVTOT        =      F    write LOCPOT, total local potential
   LVHAR        =      F    write LOCPOT, Hartree potential only
   LELF         =      F    write electronic localiz. function (ELF)
   LORBIT       =      0    0 simple, 1 ext, 2 COOP (PROOUT), +10 PAW based schemes


 Dipole corrections
   LMONO  =      F    monopole corrections only (constant potential shift)
   LDIPOL =      F    correct potential (dipole corrections)
   IDIPOL =      0    1-x, 2-y, 3-z, 4-all directions 
   EPSILON=  1.0000000 bulk dielectric constant

 Exchange correlation treatment:
   GGA     =    PE    GGA type
   LEXCH   =     8    internal setting for exchange type
   LIBXC   =     F    Libxc                    
   VOSKOWN =     0    Vosko Wilk Nusair interpolation
   LHFCALC =     F    Hartree Fock is set to
   LHFONE  =     F    Hartree Fock one center treatment
   AEXX    =    0.0000 exact exchange contribution

 Linear response parameters
   LEPSILON=     F    determine dielectric tensor
   LRPA    =     F    only Hartree local field effects (RPA)
   LNABLA  =     F    use nabla operator in PAW spheres
   LVEL    =     F    velocity operator in full k-point grid
   CSHIFT  =0.1000    complex shift for real part using Kramers Kronig
   OMEGAMAX=  -1.0    maximum frequency
   DEG_THRESHOLD= 0.2000000E-02 threshold for treating states as degnerate
   RTIME   =   -0.100 relaxation time in fs
  (WPLASMAI=    0.000 imaginary part of plasma frequency in eV, 0.658/RTIME)
   DFIELD  = 0.0000000 0.0000000 0.0000000 field for delta impulse in time
 
  Optional k-point grid parameters
   LKPOINTS_OPT  =     F    use optional k-point grid
   KPOINTS_OPT_MODE=     1    mode for optional k-point grid
 
 Orbital magnetization related:
   ORBITALMAG=     F  switch on orbital magnetization
   LCHIMAG   =     F  perturbation theory with respect to B field
   DQ        =  0.001000  dq finite difference perturbation B field
   LLRAUG    =     F  two centre corrections for induced B field
   LBONE     =     F  B-component reconstruction in AE one-centre
   LVGVCALC  =     T  calculate vGv susceptibility
   LVGVAPPL  =     F  apply vGv susceptibility instead of pGv for G=0

 Random number generation:
   RANDOM_GENERATOR = DEFAULT
   PCG_SEED         = not used


--------------------------------------------------------------------------------------------------------


 conjugate gradient relaxation of ions
 charge density and potential will be updated during run
 spin polarized calculation
 RMM-DIIS sequential band-by-band and
  variant of blocked Davidson during initial phase
 perform sub-space diagonalisation
    before iterative eigenvector-optimisation
 modified Broyden-mixing scheme, WC =      100.0
 initial mixing is a Kerker type mixing with AMIX =  0.4000 and BMIX =      1.0000
 Hartree-type preconditioning will be used
 using additional bands           56
 real space projection scheme for non local part
 use partial core corrections
 calculate Harris-corrections to forces 
   (improved forces if not selfconsistent)
 use gradient corrections 
 use of overlap-Matrix (Vanderbilt PP)
 Gauss-broadening in eV      SIGMA  =   0.03


--------------------------------------------------------------------------------------------------------


  energy-cutoff  :      520.00
  volume of cell :      911.17
      direct lattice vectors                 reciprocal lattice vectors
     9.694685444  0.000000000  0.000000000     0.103149298  0.000000000  0.000000000
     0.000000000  9.694685444  0.000000000     0.000000000  0.103149298  0.000000000
     0.000000000  0.000000000  9.694685444     0.000000000  0.000000000  0.103149298

  length of vectors
     9.694685444  9.694685444  9.694685444     0.103149298  0.103149298  0.103149298


 
 k-points in units of 2pi/SCALE and weight: Automatic mesh                          
   0.02578732  0.02578732  0.02578732       0.500
  -0.02578732 -0.02578732  0.02578732       0.250
   0.02578732 -0.02578732  0.02578732       0.250
 
 k-points in reciprocal lattice and weights: Automatic mesh                          
   0.25000000  0.25000000  0.25000000       0.500
  -0.25000000 -0.25000000  0.25000000       0.250
   0.25000000 -0.25000000  0.25000000       0.250
 
 position of ions in fractional coordinates (direct lattice) 
   0.97757648  0.27310574  0.22702867
   0.96669557  0.74427817  0.75585624
   0.01827788  0.20075617  0.81102893
   0.01827788  0.68910547  0.29937824
   0.33197054  0.32028460  0.95621554
   0.17150965  0.81646061  0.03701102
   0.69815911  0.29178708  0.01827951
   0.67152288  0.70987538  0.98404506
   0.26582246  0.98441517  0.29367308
   0.20999629  0.01520655  0.80572700
   0.79976631  0.96773741  0.81697693
   0.82433822  0.02486412  0.18387660
   0.20999629  0.69440741  0.48492785
   0.26582246  0.20646133  0.51571923
   0.79976631  0.68315748  0.53239700
   0.82433822  0.31625780  0.47527029
   0.17150965  0.46312338  0.68367380
   0.33197054  0.54391886  0.17984981
   0.69815911  0.48185489  0.20834732
   0.67152288  0.51608934  0.79025903
   0.47427827  0.17580630  0.68908866
   0.47427827  0.81104574  0.32432810
   0.53242146  0.18337555  0.31675885
   0.51517732  0.82166310  0.67847131
   0.49308367  0.49172974  0.50078850
   0.49308367  0.99934590  0.00840467
   0.00296016  0.50796420  0.99217021
   0.98301848  0.99746907  0.50266534
   0.11668017  0.88103824  0.61909616
   0.09332293  0.12643061  0.37370380
   0.86450132  0.87247976  0.38154910
   0.86450132  0.11858530  0.62765465
   0.87789356  0.63031515  0.11216823
   0.87789356  0.38796617  0.86981926
   0.13278024  0.62561201  0.87452240
   0.13766407  0.39233056  0.10780384
   0.61430867  0.11462647  0.87737540
   0.61952672  0.89071138  0.13894783
   0.37053807  0.12911193  0.12089460
   0.37923050  0.86326246  0.89307552
   0.61430867  0.62275901  0.38550793
   0.61952672  0.36118657  0.60942303
   0.37923050  0.60705888  0.63687195
   0.37053807  0.37923980  0.37102248
   0.73226784  0.74625954  0.75387487
   0.75053720  0.25232433  0.24781008
   0.24782463  0.75329698  0.25716601
   0.24782463  0.24296840  0.74683742
   0.99895447  0.99975949  0.97187798
   0.99895447  0.52825643  0.50037492
   0.45521837  0.01074797  0.48938644
   0.53107235  0.48962550  0.01050891
 
 position of ions in cartesian coordinates  (Angst):
   9.47729649  2.64767423  2.20097152
   9.37180942  7.21554271  7.32778848
   0.17719826  1.94626791  7.86267039
   0.17719826  6.68066080  2.90237783
   3.21834998  3.10505842  9.27020890
   1.66273215  7.91532875  0.35881024
   6.76843300  2.82878399  0.17721413
   6.51020309  6.88201851  9.54000735
   2.57706516  9.54359547  2.84706813
   2.03584797  0.14742277  7.81126982
   7.75348285  9.38190978  7.92033433
   7.99169976  0.24104983  1.78262583
   2.03584797  6.73206137  4.70122298
   2.57706516  2.00157762  4.99973573
   7.75348285  6.62299686  5.16142141
   7.99169976  3.06601991  4.60759592
   1.66273215  4.48983551  6.62800244
   3.21834998  5.27312229  1.74358733
   6.76843300  4.67143161  2.01986175
   6.51020309  5.00332384  7.66131268
   4.59797865  1.70438681  6.68049782
   4.59797865  7.86283337  3.14425893
   5.16165856  1.77776832  3.07087742
   4.99448210  7.96576525  6.57756594
   4.78029108  4.76716511  4.85498701
   4.78029108  9.68834419  0.08148064
   0.02869781  4.92455309  9.61877810
   9.53005495  9.67014885  4.87318234
   1.13117755  8.54138861  6.00194258
   0.90473642  1.22570495  3.62294079
   8.38106834  8.45841680  3.69899852
   8.38106834  1.14964722  6.08491439
   8.51090195  6.11070712  1.08743572
   8.51090195  3.76121003  8.43262407
   1.28726269  6.06511161  8.47821958
   1.33460985  3.80352140  1.04512435
   5.95552929  1.11126760  8.50587848
   6.00611667  8.63516664  1.34705555
   3.59225001  1.25169952  1.17203515
   3.67652043  8.36905801  8.65808627
   5.95552929  6.03745271  3.73737815
   6.00611667  3.50159020  5.90816455
   3.67652043  5.88524492  6.17427318
   3.59225001  3.67661060  3.59694623
   7.09910637  7.23475149  7.30857970
   7.27622203  2.44620500  2.40244075
   2.40258181  7.30297728  2.49314356
   2.40258181  2.35550219  7.24035391
   9.68454935  9.69235373  9.42205129
   9.68454935  5.12127990  4.85097746
   4.41319886  0.10419817  4.74444757
   5.14857937  4.74676522  0.10188053
 


--------------------------------------------------------------------------------------------------------


 k-point   1 :   0.2500 0.2500 0.2500  plane waves:   24516
 k-point   2 :  -0.2500-0.2500 0.2500  plane waves:   24516
 k-point   3 :   0.2500-0.2500 0.2500  plane waves:   24516

 maximum and minimum number of plane-waves per node :       782      747

 maximum number of plane-waves:     24516
 maximum index in each direction: 
   IXMAX=   18   IYMAX=   18   IZMAX=   17
   IXMIN=  -18   IYMIN=  -18   IZMIN=  -18


 real space projection operators:
  total allocation   :      28072.12 KBytes
  max/ min on nodes  :       1175.84        737.19


 parallel 3D FFT for wavefunctions:
    minimum data exchange during FFTs selected (reduces bandwidth)
 parallel 3D FFT for charge:
    minimum data exchange during FFTs selected (reduces bandwidth)


 total amount of memory used by VASP MPI-rank0    46980. kBytes
=======================================================================

   base      :      30000. kBytes
   nonlr-proj:       6464. kBytes
   fftplans  :       1747. kBytes
   grid      :       5278. kBytes
   one-center:         62. kBytes
   wavefun   :       3429. kBytes
 
     INWAV:  cpu time      0.0000: real time      0.0000
 Broyden mixing: mesh for mixing (old mesh)
   NGX = 37   NGY = 37   NGZ = 37
  (NGX  =144   NGY  =144   NGZ  =144)
  gives a total of  50653 points

 initial charge density was supplied:
 charge density of overlapping atoms calculated
 number of electron     240.0000000 magnetization      52.0000000
 keeping initial charge density in first step


--------------------------------------------------------------------------------------------------------


 Maximum index for non-local projection operator          505
 Maximum index for augmentation-charges          857 (set IRDMAX)


--------------------------------------------------------------------------------------------------------


 First call to EWALD:  gamma=   0.183
 Maximum number of real-space cells 3x 3x 3
 Maximum number of reciprocal cells 3x 3x 3

    FEWALD:  cpu time      0.0029: real time      0.0035


--------------------------------------- Ionic step        1  -------------------------------------------




--------------------------------------- Iteration      1(   1)  ---------------------------------------


    POTLOK:  cpu time      0.0594: real time      0.0684
    SETDIJ:  cpu time      0.4034: real time      0.4124
     EDDAV:  cpu time      1.7022: real time      2.0031
       DOS:  cpu time      0.0026: real time      0.0041
    --------------------------------------------
      LOOP:  cpu time      2.1676: real time      2.4879

 eigenvalue-minimisations  :  2336
 total energy-change (2. order) : 0.1585743E+04  (-0.1135372E+05)
 number of electron     240.0000000 magnetization      52.0000000
 augmentation part      240.0000000 magnetization      52.0000000

 Free energy of the ion-electron system (eV)
  ---------------------------------------------------
  alpha Z        PSCENC =       297.92070277
  Ewald energy   TEWEN  =     -8756.67475724
  -Hartree energ DENC   =     -2144.41937884
  -exchange      EXHF   =         0.00000000
  -V(xc)+E(xc)   XCENC  =       533.81583244
  PAW double counting   =      8141.38806575    -8271.61346273
  entropy T*S    EENTRO =        -0.00628114
  eigenvalues    EBANDS =      -917.80798861
  atomic energy  EATOM  =     12703.13999606
  Solvation  Ediel_sol  =         0.00000000
  ---------------------------------------------------
  free energy    TOTEN  =      1585.74272845 eV

  energy without entropy =     1585.74900959  energy(sigma->0) =     1585.74586902


--------------------------------------------------------------------------------------------------------




--------------------------------------- Iteration      1(   2)  ---------------------------------------


     EDDAV:  cpu time      1.9585: real time      1.9785
       DOS:  cpu time      0.0003: real time      0.0003
    --------------------------------------------
      LOOP:  cpu time      1.9588: real time      1.9789

 eigenvalue-minimisations  :  2904
 total energy-change (2. order) :-0.1643160E+04  (-0.1542294E+04)
 number of electron     240.0000000 magnetization      52.0000000
 augmentation part      240.0000000 magnetization      52.0000000

 Free energy of the ion-electron system (eV)
  ---------------------------------------------------
  alpha Z        PSCENC =       297.92070277
  Ewald energy   TEWEN  =     -8756.67475724
  -Hartree energ DENC   =     -2144.41937884
  -exchange      EXHF   =         0.00000000
  -V(xc)+E(xc)   XCENC  =       533.81583244
  PAW double counting   =      8141.38806575    -8271.61346273
  entropy T*S    EENTRO =        -0.00000000
  eigenvalues    EBANDS =     -2560.97448052
  atomic energy  EATOM  =     12703.13999606
  Solvation  Ediel_sol  =         0.00000000
  ---------------------------------------------------
  free energy    TOTEN  =       -57.41748231 eV

  energy without entropy =      -57.41748231  energy(sigma->0) =      -57.41748231


--------------------------------------------------------------------------------------------------------




--------------------------------------- Iteration      1(   3)  ---------------------------------------


     EDDAV:  cpu time      1.9239: real time      1.9412
       DOS:  cpu time      0.0004: real time      0.0004
    --------------------------------------------
      LOOP:  cpu time      1.9242: real time      1.9415

 eigenvalue-minimisations  :  2808
 total energy-change (2. order) :-0.1711732E+03  (-0.1690995E+03)
 number of electron     240.0000000 magnetization      52.0000000
 augmentation part      240.0000000 magnetization      52.0000000

 Free energy of the ion-electron system (eV)
  ---------------------------------------------------
  alpha Z        PSCENC =       297.92070277
  Ewald energy   TEWEN  =     -8756.67475724
  -Hartree energ DENC   =     -2144.41937884
  -exchange      EXHF   =         0.00000000
  -V(xc)+E(xc)   XCENC  =       533.81583244
  PAW double counting   =      8141.38806575    -8271.61346273
  entropy T*S    EENTRO =        -0.00000000
  eigenvalues    EBANDS =     -2732.14770604
  atomic energy  EATOM  =     12703.13999606
  Solvation  Ediel_sol  =         0.00000000
  ---------------------------------------------------
  free energy    TOTEN  =      -228.59070783 eV

  energy without entropy =     -228.59070783  energy(sigma->0) =     -228.59070783


--------------------------------------------------------------------------------------------------------




--------------------------------------- Iteration      1(   4)  ---------------------------------------


     EDDAV:  cpu time      2.4402: real time      2.4744
       DOS:  cpu time      0.0003: real time      0.0003
    --------------------------------------------
      LOOP:  cpu time      2.4405: real time      2.4748

 eigenvalue-minimisations  :  3576
 total energy-change (2. order) :-0.1344749E+02  (-0.1342403E+02)
 number of electron     240.0000000 magnetization      52.0000000
 augmentation part      240.0000000 magnetization      52.0000000

 Free energy of the ion-electron system (eV)
  ---------------------------------------------------
  alpha Z        PSCENC =       297.92070277
  Ewald energy   TEWEN  =     -8756.67475724
  -Hartree energ DENC   =     -2144.41937884
  -exchange      EXHF   =         0.00000000
  -V(xc)+E(xc)   XCENC  =       533.81583244
  PAW double counting   =      8141.38806575    -8271.61346273
  entropy T*S    EENTRO =        -0.00000000
  eigenvalues    EBANDS =     -2745.59519413
  atomic energy  EATOM  =     12703.13999606
  Solvation  Ediel_sol  =         0.00000000
  ---------------------------------------------------
  free energy    TOTEN  =      -242.03819592 eV

  energy without entropy =     -242.03819592  energy(sigma->0) =     -242.03819592


--------------------------------------------------------------------------------------------------------




--------------------------------------- Iteration      1(   5)  ---------------------------------------


     EDDAV:  cpu time      2.1833: real time      2.2024
       DOS:  cpu time      0.0003: real time      0.0004
    --------------------------------------------
      LOOP:  cpu time      2.1836: real time      2.2028

 eigenvalue-minimisations  :  3312
 total energy-change (2. order) :-0.2152665E+00  (-0.2151696E+00)
 number of electron     240.0000000 magnetization      52.0000000
 augmentation part      240.0000000 magnetization      52.0000000

 Free energy of the ion-electron system (eV)
  ---------------------------------------------------
  alpha Z        PSCENC =       297.92070277
  Ewald energy   TEWEN  =     -8756.67475724
  -Hartree energ DENC   =     -2144.41937884
  -exchange      EXHF   =         0.00000000
  -V(xc)+E(xc)   XCENC  =       533.81583244
  PAW double counting   =      8141.38806575    -8271.61346273
  entropy T*S    EENTRO =        -0.00000000
  eigenvalues    EBANDS =     -2745.81046061
  atomic energy  EATOM  =     12703.13999606
  Solvation  Ediel_sol  =         0.00000000
  ---------------------------------------------------
  free energy    TOTEN  =      -242.25346240 eV

  energy without entropy =     -242.25346240  energy(sigma->0) =     -242.25346240


--------------------------------------------------------------------------------------------------------




--------------------------------------- Iteration      1(   6)  ---------------------------------------


     EDDAV:  cpu time      2.3077: real time      2.3273
       DOS:  cpu time      0.0003: real time      0.0003
    --------------------------------------------
      LOOP:  cpu time      2.3080: real time      2.3276

 eigenvalue-minimisations  :  3488
 total energy-change (2. order) :-0.1104735E-01  (-0.1104609E-01)
 number of electron     240.0000000 magnetization      52.0000000
 augmentation part      240.0000000 magnetization      52.0000000

 Free energy of the ion-electron system (eV)
  ---------------------------------------------------
  alpha Z        PSCENC =       297.92070277
  Ewald energy   TEWEN  =     -8756.67475724
  -Hartree energ DENC   =     -2144.41937884
  -exchange      EXHF   =         0.00000000
  -V(xc)+E(xc)   XCENC  =       533.81583244
  PAW double counting   =      8141.38806575    -8271.61346273
  entropy T*S    EENTRO =        -0.00000000
  eigenvalues    EBANDS =     -2745.82150796
  atomic energy  EATOM  =     12703.13999606
  Solvation  Ediel_sol  =         0.00000000
  ---------------------------------------------------
  free energy    TOTEN  =      -242.26450975 eV

  energy without entropy =     -242.26450975  energy(sigma->0) =     -242.26450975


--------------------------------------------------------------------------------------------------------




--------------------------------------- Iteration      1(   7)  ---------------------------------------


     EDDAV:  cpu time      2.2257: real time      2.2457
       DOS:  cpu time      0.0003: real time      0.0003
    --------------------------------------------
      LOOP:  cpu time      2.2261: real time      2.2460

 eigenvalue-minimisations  :  3400
 total energy-change (2. order) :-0.3693214E-03  (-0.3693001E-03)
 number of electron     240.0000000 magnetization      52.0000000
 augmentation part      240.0000000 magnetization      52.0000000

 Free energy of the ion-electron system (eV)
  ---------------------------------------------------
  alpha Z        PSCENC =       297.92070277
  Ewald energy   TEWEN  =     -8756.67475724
  -Hartree energ DENC   =     -2144.41937884
  -exchange      EXHF   =         0.00000000
  -V(xc)+E(xc)   XCENC  =       533.81583244
  PAW double counting   =      8141.38806575    -8271.61346273
  entropy T*S    EENTRO =        -0.00000000
  eigenvalues    EBANDS =     -2745.82187728
  atomic energy  EATOM  =     12703.13999606
  Solvation  Ediel_sol  =         0.00000000
  ---------------------------------------------------
  free energy    TOTEN  =      -242.26487907 eV

  energy without entropy =     -242.26487907  energy(sigma->0) =     -242.26487907


--------------------------------------------------------------------------------------------------------




--------------------------------------- Iteration      1(   8)  ---------------------------------------


     EDDAV:  cpu time      2.2415: real time      2.2613
       DOS:  cpu time      0.0003: real time      0.0003
    --------------------------------------------
      LOOP:  cpu time      2.2418: real time      2.2617

 eigenvalue-minimisations  :  3424
 total energy-change (2. order) :-0.2237833E-04  (-0.2237768E-04)
 number of electron     240.0000000 magnetization      52.0000000
 augmentation part      240.0000000 magnetization      52.0000000

 Free energy of the ion-electron system (eV)
  ---------------------------------------------------
  alpha Z        PSCENC =       297.92070277
  Ewald energy   TEWEN  =     -8756.67475724
  -Hartree energ DENC   =     -2144.41937884
  -exchange      EXHF   =         0.00000000
  -V(xc)+E(xc)   XCENC  =       533.81583244
  PAW double counting   =      8141.38806575    -8271.61346273
  entropy T*S    EENTRO =        -0.00000000
  eigenvalues    EBANDS =     -2745.82189966
  atomic energy  EATOM  =     12703.13999606
  Solvation  Ediel_sol  =         0.00000000
  ---------------------------------------------------
  free energy    TOTEN  =      -242.26490145 eV

  energy without entropy =     -242.26490145  energy(sigma->0) =     -242.26490145


--------------------------------------------------------------------------------------------------------




--------------------------------------- Iteration      1(   9)  ---------------------------------------


     EDDAV:  cpu time      2.1924: real time      2.2105
       DOS:  cpu time      0.0003: real time      0.0003
    --------------------------------------------
      LOOP:  cpu time      2.1927: real time      2.2108

 eigenvalue-minimisations  :  3344
 total energy-change (2. order) :-0.1372307E-05  (-0.1372337E-05)
 number of electron     240.0000000 magnetization      52.0000000
 augmentation part      240.0000000 magnetization      52.0000000

 Free energy of the ion-electron system (eV)
  ---------------------------------------------------
  alpha Z        PSCENC =       297.92070277
  Ewald energy   TEWEN  =     -8756.67475724
  -Hartree energ DENC   =     -2144.41937884
  -exchange      EXHF   =         0.00000000
  -V(xc)+E(xc)   XCENC  =       533.81583244
  PAW double counting   =      8141.38806575    -8271.61346273
  entropy T*S    EENTRO =        -0.00000000
  eigenvalues    EBANDS =     -2745.82190103
  atomic energy  EATOM  =     12703.13999606
  Solvation  Ediel_sol  =         0.00000000
  ---------------------------------------------------
  free energy    TOTEN  =      -242.26490282 eV

  energy without entropy =     -242.26490282  energy(sigma->0) =     -242.26490282


--------------------------------------------------------------------------------------------------------




--------------------------------------- Iteration      1(  10)  ---------------------------------------


     EDDAV:  cpu time      1.4689: real time      1.4895
       DOS:  cpu time      0.0004: real time      0.0004
    CHARGE:  cpu time      0.2340: real time      0.5029
    MIXING:  cpu time      0.0016: real time      0.0038
    --------------------------------------------
      LOOP:  cpu time      1.7048: real time      1.9965

 eigenvalue-minimisations  :  1968
 total energy-change (2. order) :-0.5887159E-07  (-0.5922519E-07)
 number of electron     240.0000007 magnetization      27.3898333
 augmentation part        1.4925182 magnetization      27.8312422

 Broyden mixing:
  rms(total) = 0.64785E+01    rms(broyden)= 0.64782E+01
  rms(prec ) = 0.67245E+01
  weight for this iteration     100.00

 Free energy of the ion-electron system (eV)
  ---------------------------------------------------
  alpha Z        PSCENC =       297.92070277
  Ewald energy   TEWEN  =     -8756.67475724
  -Hartree energ DENC   =     -2144.41937884
  -exchange      EXHF   =         0.00000000
  -V(xc)+E(xc)   XCENC  =       533.81583244
  PAW double counting   =      8141.38806575    -8271.61346273
  entropy T*S    EENTRO =        -0.00000000
  eigenvalues    EBANDS =     -2745.82190109
  atomic energy  EATOM  =     12703.13999606
  Solvation  Ediel_sol  =         0.00000000
  ---------------------------------------------------
  free energy    TOTEN  =      -242.26490288 eV

  energy without entropy =     -242.26490288  energy(sigma->0) =     -242.26490288


--------------------------------------------------------------------------------------------------------




--------------------------------------- Iteration      1(  11)  ---------------------------------------


    POTLOK:  cpu time      0.0555: real time      0.0598
    SETDIJ:  cpu time      0.3994: real time      0.4125
    EDDIAG:  cpu time      0.2677: real time      0.2698
  RMM-DIIS:  cpu time      0.8631: real time      0.8711
    ORTHCH:  cpu time      0.0514: real time      0.0522
       DOS:  cpu time      0.0004: real time      0.0004
    CHARGE:  cpu time      0.1910: real time      0.4886
    MIXING:  cpu time      0.0011: real time      0.0026
    --------------------------------------------
      LOOP:  cpu time      1.8296: real time      2.1570

 eigenvalue-minimisations  :  2112
 total energy-change (2. order) : 0.7020930E+01  (-0.4913064E+01)
 number of electron     240.0000007 magnetization      16.3958267
 augmentation part        1.7012363 magnetization      16.5819576

 Broyden mixing:
  rms(total) = 0.33212E+01    rms(broyden)= 0.33211E+01
  rms(prec ) = 0.34396E+01
  weight for this iteration     100.00

 eigenvalues of (default mixing * dielectric matrix)
  average eigenvalue GAMMA=   0.7267
  0.7267

 Free energy of the ion-electron system (eV)
  ---------------------------------------------------
  alpha Z        PSCENC =       297.92070277
  Ewald energy   TEWEN  =     -8756.67475724
  -Hartree energ DENC   =     -2194.49784430
  -exchange      EXHF   =         0.00000000
  -V(xc)+E(xc)   XCENC  =       542.46543748
  PAW double counting   =      8935.86339823    -9072.22650352
  entropy T*S    EENTRO =        -0.00000000
  eigenvalues    EBANDS =     -2691.23440191
  atomic energy  EATOM  =     12703.13999606
  Solvation  Ediel_sol  =         0.00000000
  ---------------------------------------------------
  free energy    TOTEN  =      -235.24397244 eV

  energy without entropy =     -235.24397244  energy(sigma->0) =     -235.24397244


--------------------------------------------------------------------------------------------------------




--------------------------------------- Iteration      1(  12)  ---------------------------------------


    POTLOK:  cpu time      0.0533: real time      0.0544
    SETDIJ:  cpu time      0.3829: real time      0.4064
    EDDIAG:  cpu time      0.2678: real time      0.2693
  RMM-DIIS:  cpu time      0.9059: real time      0.9145
    ORTHCH:  cpu time      0.0506: real time      0.0511
       DOS:  cpu time      0.0004: real time      0.0004
    CHARGE:  cpu time      0.1191: real time      0.1568
    MIXING:  cpu time      0.0012: real time      0.0012
    --------------------------------------------
      LOOP:  cpu time      1.7812: real time      1.8541

 eigenvalue-minimisations  :  2215
 total energy-change (2. order) :-0.2065630E+02  (-0.2335604E+01)
 number of electron     240.0000007 magnetization       0.8715848
 augmentation part        1.8057720 magnetization       1.2162483

 Broyden mixing:
  rms(total) = 0.20560E+01    rms(broyden)= 0.20560E+01
  rms(prec ) = 0.21170E+01
  weight for this iteration     100.00

 eigenvalues of (default mixing * dielectric matrix)
  average eigenvalue GAMMA=   1.1303
  1.5916  0.6689

 Free energy of the ion-electron system (eV)
  ---------------------------------------------------
  alpha Z        PSCENC =       297.92070277
  Ewald energy   TEWEN  =     -8756.67475724
  -Hartree energ DENC   =     -2220.28523632
  -exchange      EXHF   =         0.00000000
  -V(xc)+E(xc)   XCENC  =       536.03754004
  PAW double counting   =      9295.62079014    -9435.64848922
  entropy T*S    EENTRO =        -0.00000000
  eigenvalues    EBANDS =     -2676.01081862
  atomic energy  EATOM  =     12703.13999606
  Solvation  Ediel_sol  =         0.00000000
  ---------------------------------------------------
  free energy    TOTEN  =      -255.90027240 eV

  energy without entropy =     -255.90027240  energy(sigma->0) =     -255.90027240


--------------------------------------------------------------------------------------------------------




--------------------------------------- Iteration      1(  13)  ---------------------------------------


    POTLOK:  cpu time      0.0524: real time      0.0533
    SETDIJ:  cpu time      0.4037: real time      0.4053
    EDDIAG:  cpu time      0.2711: real time      0.2733
  RMM-DIIS:  cpu time      0.8999: real time      0.9082
    ORTHCH:  cpu time      0.0504: real time      0.0511
       DOS:  cpu time      0.0004: real time      0.0004
    CHARGE:  cpu time      0.1174: real time      0.1522
    MIXING:  cpu time      0.0012: real time      0.0013
    --------------------------------------------
      LOOP:  cpu time      1.7965: real time      1.8451

 eigenvalue-minimisations  :  2183
 total energy-change (2. order) :-0.2492598E+01  (-0.9030905E+00)
 number of electron     240.0000007 magnetization      -1.8214023
 augmentation part        1.9075565 magnetization      -1.7117384

 Broyden mixing:
  rms(total) = 0.70326E+00    rms(broyden)= 0.70326E+00
  rms(prec ) = 0.73584E+00
  weight for this iteration     100.00

 eigenvalues of (default mixing * dielectric matrix)
  average eigenvalue GAMMA=   1.3015
  2.5090  0.7438  0.6516

 Free energy of the ion-electron system (eV)
  ---------------------------------------------------
  alpha Z        PSCENC =       297.92070277
  Ewald energy   TEWEN  =     -8756.67475724
  -Hartree energ DENC   =     -2248.74015007
  -exchange      EXHF   =         0.00000000
  -V(xc)+E(xc)   XCENC  =       537.50578497
  PAW double counting   =      9789.98615342    -9933.88401914
  entropy T*S    EENTRO =        -0.00000000
  eigenvalues    EBANDS =     -2647.64658070
  atomic energy  EATOM  =     12703.13999606
  Solvation  Ediel_sol  =         0.00000000
  ---------------------------------------------------
  free energy    TOTEN  =      -258.39286994 eV

  energy without entropy =     -258.39286994  energy(sigma->0) =     -258.39286994


--------------------------------------------------------------------------------------------------------




--------------------------------------- Iteration      1(  14)  ---------------------------------------


    POTLOK:  cpu time      0.0514: real time      0.0539
    SETDIJ:  cpu time      0.4043: real time      0.4062
    EDDIAG:  cpu time      0.2652: real time      0.2669
  RMM-DIIS:  cpu time      1.1587: real time      1.1696
    ORTHCH:  cpu time      0.0504: real time      0.0518
       DOS:  cpu time      0.0004: real time      0.0004
    CHARGE:  cpu time      0.1077: real time      0.1406
    MIXING:  cpu time      0.0011: real time      0.0012
    --------------------------------------------
      LOOP:  cpu time      2.0393: real time      2.0906

 eigenvalue-minimisations  :  2797
 total energy-change (2. order) :-0.1994398E+00  (-0.2065824E+00)
 number of electron     240.0000007 magnetization      -0.8418564
 augmentation part        1.8810122 magnetization      -0.8151480

 Broyden mixing:
  rms(total) = 0.32458E+00    rms(broyden)= 0.32458E+00
  rms(prec ) = 0.36141E+00
  weight for this iteration     100.00

 eigenvalues of (default mixing * dielectric matrix)
  average eigenvalue GAMMA=   1.2702
  2.6170  1.1774  0.6911  0.5954

 Free energy of the ion-electron system (eV)
  ---------------------------------------------------
  alpha Z        PSCENC =       297.92070277
  Ewald energy   TEWEN  =     -8756.67475724
  -Hartree energ DENC   =     -2251.02589555
  -exchange      EXHF   =         0.00000000
  -V(xc)+E(xc)   XCENC  =       538.02565529
  PAW double counting   =      9874.83195236   -10019.58102687
  entropy T*S    EENTRO =        -0.00000000
  eigenvalues    EBANDS =     -2645.22893657
  atomic energy  EATOM  =     12703.13999606
  Solvation  Ediel_sol  =         0.00000000
  ---------------------------------------------------
  free energy    TOTEN  =      -258.59230975 eV

  energy without entropy =     -258.59230975  energy(sigma->0) =     -258.59230975


--------------------------------------------------------------------------------------------------------




--------------------------------------- Iteration      1(  15)  ---------------------------------------


    POTLOK:  cpu time      0.0514: real time      0.0538
    SETDIJ:  cpu time      0.4044: real time      0.4058
    EDDIAG:  cpu time      0.2654: real time      0.2671
  RMM-DIIS:  cpu time      0.9494: real time      0.9583
    ORTHCH:  cpu time      0.0509: real time      0.0523
       DOS:  cpu time      0.0004: real time      0.0004
    CHARGE:  cpu time      0.1097: real time      0.1329
    MIXING:  cpu time      0.0012: real time      0.0013
    --------------------------------------------
      LOOP:  cpu time      1.8329: real time      1.8721

 eigenvalue-minimisations  :  2283
 total energy-change (2. order) : 0.3552911E-01  (-0.3483311E-01)
 number of electron     240.0000007 magnetization      -0.2235867
 augmentation part        1.8320420 magnetization      -0.1973112

 Broyden mixing:
  rms(total) = 0.68662E-01    rms(broyden)= 0.68660E-01
  rms(prec ) = 0.81962E-01
  weight for this iteration     100.00

 eigenvalues of (default mixing * dielectric matrix)
  average eigenvalue GAMMA=   1.2744
  2.5295  1.5942  0.9580  0.6863  0.6038

 Free energy of the ion-electron system (eV)
  ---------------------------------------------------
  alpha Z        PSCENC =       297.92070277
  Ewald energy   TEWEN  =     -8756.67475724
  -Hartree energ DENC   =     -2246.38440933
  -exchange      EXHF   =         0.00000000
  -V(xc)+E(xc)   XCENC  =       537.66379044
  PAW double counting   =      9844.32356036    -9988.87181749
  entropy T*S    EENTRO =        -0.00000000
  eigenvalues    EBANDS =     -2649.67384621
  atomic energy  EATOM  =     12703.13999606
  Solvation  Ediel_sol  =         0.00000000
  ---------------------------------------------------
  free energy    TOTEN  =      -258.55678064 eV

  energy without entropy =     -258.55678064  energy(sigma->0) =     -258.55678064


--------------------------------------------------------------------------------------------------------




--------------------------------------- Iteration      1(  16)  ---------------------------------------


    POTLOK:  cpu time      0.0510: real time      0.0532
    SETDIJ:  cpu time      0.4044: real time      0.4056
    EDDIAG:  cpu time      0.2686: real time      0.2704
  RMM-DIIS:  cpu time      0.9444: real time      0.9529
    ORTHCH:  cpu time      0.0514: real time      0.0525
       DOS:  cpu time      0.0004: real time      0.0004
    CHARGE:  cpu time      0.1110: real time      0.1292
    MIXING:  cpu time      0.0013: real time      0.0013
    --------------------------------------------
      LOOP:  cpu time      1.8324: real time      1.8657

 eigenvalue-minimisations  :  2299
 total energy-change (2. order) :-0.1993476E-01  (-0.1113991E-01)
 number of electron     240.0000007 magnetization      -0.1048299
 augmentation part        1.8099032 magnetization      -0.0902158

 Broyden mixing:
  rms(total) = 0.30945E-01    rms(broyden)= 0.30944E-01
  rms(prec ) = 0.37750E-01
  weight for this iteration     100.00

 eigenvalues of (default mixing * dielectric matrix)
  average eigenvalue GAMMA=   1.2499
  2.4437  1.9475  1.0421  0.6212  0.6995  0.7452

 Free energy of the ion-electron system (eV)
  ---------------------------------------------------
  alpha Z        PSCENC =       297.92070277
  Ewald energy   TEWEN  =     -8756.67475724
  -Hartree energ DENC   =     -2245.84338120
  -exchange      EXHF   =         0.00000000
  -V(xc)+E(xc)   XCENC  =       537.58450264
  PAW double counting   =      9832.38078961    -9976.69341763
  entropy T*S    EENTRO =        -0.00000000
  eigenvalues    EBANDS =     -2650.39115041
  atomic energy  EATOM  =     12703.13999606
  Solvation  Ediel_sol  =         0.00000000
[...]
  0.001  -0.001  -0.000  -0.003   0.004  -0.001  -0.000   0.000  -0.000  -0.000  -0.000   0.000   0.000  -0.000
 -0.002   0.002   0.000   0.001  -0.001   0.009   0.000  -0.000   0.000   0.000  -0.000   0.000  -0.000  -0.000
  0.018  -0.018  -0.000   0.006  -0.007   0.000   0.000  -0.000   0.000   0.000  -0.000  -0.000  -0.000   0.000
 -0.038   0.039   0.000   0.002  -0.002  -0.008   0.000  -0.000  -0.000  -0.000   0.000  -0.000   0.000   0.000
 -0.023   0.023   0.000  -0.001   0.002   0.007  -0.000   0.000   0.000  -0.000  -0.000   0.000   0.000  -0.000
 -0.018   0.018   0.000  -0.007   0.006  -0.000  -0.000   0.000  -0.000  -0.000   0.000   0.000   0.000  -0.000
  0.040  -0.040  -0.000   0.002  -0.002  -0.011   0.000  -0.000  -0.000   0.000   0.000  -0.000  -0.000   0.000
 total augmentation occupancy for first ion, spin component:           2
  0.000  -0.000   0.000   0.000  -0.000   0.000  -0.000   0.000  -0.000   0.000  -0.000  -0.000  -0.000   0.000
 -0.000   0.000  -0.000  -0.000   0.000  -0.000   0.000  -0.000   0.000  -0.000   0.000   0.000   0.000  -0.000
  0.000  -0.000  -0.000  -0.000   0.000   0.000   0.000  -0.000   0.000  -0.000  -0.000   0.000   0.000  -0.000
  0.000  -0.000  -0.000  -0.000  -0.000   0.000  -0.000   0.000  -0.000   0.000   0.000  -0.000  -0.000   0.000
 -0.000   0.000   0.000  -0.000  -0.000  -0.000   0.000  -0.000   0.000  -0.000  -0.000   0.000   0.000  -0.000
  0.000  -0.000   0.000   0.000  -0.000   0.000  -0.000   0.000  -0.000  -0.000  -0.000   0.000   0.000  -0.000
 -0.000   0.000   0.000  -0.000   0.000  -0.000  -0.000   0.000  -0.000  -0.000   0.000  -0.000   0.000   0.000
  0.000  -0.000  -0.000   0.000  -0.000   0.000   0.000  -0.000   0.000   0.000  -0.000   0.000  -0.000  -0.000
 -0.000   0.000   0.000  -0.000   0.000  -0.000  -0.000   0.000  -0.000  -0.000   0.000  -0.000   0.000   0.000
  0.000  -0.000  -0.000   0.000  -0.000  -0.000  -0.000   0.000  -0.000   0.000   0.000  -0.000  -0.000   0.000
 -0.000   0.000  -0.000   0.000  -0.000  -0.000   0.000  -0.000   0.000   0.000   0.000  -0.000  -0.000   0.000
 -0.000   0.000   0.000  -0.000   0.000   0.000  -0.000   0.000  -0.000  -0.000  -0.000  -0.000   0.000  -0.000
 -0.000   0.000   0.000  -0.000   0.000   0.000   0.000  -0.000   0.000  -0.000  -0.000   0.000   0.000  -0.000
  0.000  -0.000  -0.000   0.000  -0.000  -0.000   0.000  -0.000   0.000   0.000   0.000  -0.000  -0.000  -0.000


------------------------ aborting loop because EDIFF is reached ----------------------------------------


    CHARGE:  cpu time      0.0993: real time      0.1000
    FORLOC:  cpu time      0.0037: real time      0.0037
    FORNL :  cpu time      0.3038: real time      0.3057
    STRESS:  cpu time      0.9058: real time      0.9116
    FORCOR:  cpu time      0.0499: real time      0.0503
    FORHAR:  cpu time      0.0083: real time      0.0084
    MIXING:  cpu time      0.0007: real time      0.0007
    OFIELD:  cpu time      0.0000: real time      0.0000

 ---------------------------------------------------------------------------------------------

         DFTD3 V3.0 Rev 1        
 Edisp (eV)  -13.42081

 E6    (eV) :    -8.2706
 E8    (eV) :    -5.1502
 % E8        : 38.37
    FORVDW:  cpu time      0.2885: real time      0.2903

  FORCE on cell =-STRESS in cart. coord.  units (eV):
  Direction    XX          YY          ZZ          XY          YZ          ZX
  --------------------------------------------------------------------------------------
  Alpha Z   297.92070   297.92070   297.92070
  Ewald   -2904.05765 -2926.36205 -2926.36205    -5.08705   -35.58788     5.08705
  Hartree   751.66691   748.43458   748.43458     5.89706   -22.07040    -5.89706
  E(xc)    -947.62447  -947.79416  -947.79416    -0.05250    -0.07274     0.05250
  Local   -1551.83384 -1527.41186 -1527.41185    -2.55643    59.02732     2.55643
  n-local  1481.81749  1481.11014  1481.07439    -0.76775    -0.36315    -0.28635
  augment  -356.59649  -356.82091  -356.82057    -0.01467     0.07112     0.01648
  Kinetic  3241.13586  3246.05634  3246.03895     0.26833    -0.74411    -1.78720
  Fock        0.00000     0.00000     0.00000     0.00000     0.00000     0.00000
  vdW       -14.21395   -14.21471   -14.21471    -0.00133     0.00380     0.00133
  -------------------------------------------------------------------------------------
  Total      -1.78543     0.89168     0.89168    -1.02878     0.26383     1.02878
  in kB      -3.13944     1.56789     1.56789    -1.80898     0.46391     1.80898
  external pressure =       -0.00 kB  Pullay stress =        0.00 kB


 VOLUME and BASIS-vectors are now :
 -----------------------------------------------------------------------------
  energy-cutoff  :      520.00
  volume of cell :      911.17
      direct lattice vectors                 reciprocal lattice vectors
     9.694685444  0.000000000  0.000000000     0.103149298  0.000000000  0.000000000
     0.000000000  9.694685444  0.000000000     0.000000000  0.103149298  0.000000000
     0.000000000  0.000000000  9.694685444     0.000000000  0.000000000  0.103149298

  length of vectors
     9.694685444  9.694685444  9.694685444     0.103149298  0.103149298  0.103149298


 FORCES acting on ions
    electron-ion (+dipol)            ewald-force                    non-local-force                 convergence-correction
 -----------------------------------------------------------------------------------------------
   -.828E+01 -.873E+00 0.873E+00   0.742E+01 0.768E+00 -.768E+00   0.847E+00 0.103E+00 -.103E+00   0.191E-03 0.834E-04 -.834E-04
   0.282E+01 0.202E+01 -.202E+01   -.329E+01 -.222E+01 0.222E+01   0.465E+00 0.198E+00 -.198E+00   -.104E-03 0.432E-04 -.432E-04
   0.171E+01 -.568E+01 -.563E+01   -.122E+01 0.663E+01 0.471E+01   -.489E+00 -.953E+00 0.917E+00   0.559E-04 -.879E-04 -.708E-04
   0.171E+01 0.563E+01 0.568E+01   -.122E+01 -.471E+01 -.663E+01   -.489E+00 -.917E+00 0.953E+00   0.559E-04 0.708E-04 0.879E-04
   -.675E+01 -.128E+02 0.223E+01   0.525E+01 0.114E+02 -.328E+01   0.150E+01 0.140E+01 0.106E+01   -.132E-03 -.795E-04 0.173E-03
   0.731E+01 -.679E+01 -.708E+01   -.611E+01 0.577E+01 0.790E+01   -.120E+01 0.103E+01 -.821E+00   -.875E-04 -.550E-04 0.103E-03
   -.212E+01 0.638E+01 0.421E+01   0.274E+01 -.731E+01 -.338E+01   -.619E+00 0.936E+00 -.835E+00   -.187E-03 0.716E-04 0.992E-04
   0.827E+01 -.172E+01 -.403E+01   -.728E+01 0.286E+01 0.323E+01   -.999E+00 -.114E+01 0.796E+00   0.132E-03 0.938E-04 0.217E-03
   0.556E+01 -.281E+01 0.775E+01   -.666E+01 0.187E+01 -.841E+01   0.110E+01 0.939E+00 0.670E+00   0.184E-03 -.111E-04 -.581E-04
   -.279E+01 0.169E+01 -.588E+01   0.379E+01 -.898E+00 0.492E+01   -.101E+01 -.787E+00 0.963E+00   -.211E-03 0.235E-04 0.105E-04
   0.228E+01 0.343E+00 -.367E+01   -.337E+01 -.914E+00 0.280E+01   0.108E+01 0.572E+00 0.869E+00   0.167E-03 -.817E-04 -.912E-04
   -.148E+02 0.218E+01 0.842E+01   0.132E+02 -.168E+01 -.720E+01   0.165E+01 -.498E+00 -.122E+01   -.399E-03 -.149E-03 0.295E-03
   -.279E+01 0.588E+01 -.169E+01   0.379E+01 -.492E+01 0.898E+00   -.101E+01 -.963E+00 0.787E+00   -.211E-03 -.105E-04 -.235E-04
   0.556E+01 -.775E+01 0.281E+01   -.666E+01 0.841E+01 -.187E+01   0.110E+01 -.670E+00 -.939E+00   0.184E-03 0.581E-04 0.111E-04
   0.228E+01 0.367E+01 -.343E+00   -.337E+01 -.280E+01 0.914E+00   0.108E+01 -.869E+00 -.572E+00   0.167E-03 0.912E-04 0.817E-04
   -.148E+02 -.842E+01 -.218E+01   0.132E+02 0.720E+01 0.168E+01   0.165E+01 0.122E+01 0.498E+00   -.399E-03 -.295E-03 0.149E-03
   0.731E+01 0.708E+01 0.679E+01   -.611E+01 -.790E+01 -.577E+01   -.120E+01 0.821E+00 -.103E+01   -.875E-04 -.103E-03 0.550E-04
   -.675E+01 -.223E+01 0.128E+02   0.525E+01 0.328E+01 -.114E+02   0.150E+01 -.106E+01 -.140E+01   -.132E-03 -.173E-03 0.795E-04
   -.212E+01 -.421E+01 -.638E+01   0.274E+01 0.338E+01 0.731E+01   -.619E+00 0.835E+00 -.936E+00   -.187E-03 -.992E-04 -.716E-04
   0.827E+01 0.403E+01 0.172E+01   -.728E+01 -.323E+01 -.286E+01   -.999E+00 -.796E+00 0.114E+01   0.132E-03 -.217E-03 -.938E-04
   -.908E+01 0.668E+01 0.220E+01   0.859E+01 -.558E+01 -.102E+01   0.486E+00 -.110E+01 -.118E+01   0.868E-04 0.256E-03 -.188E-03
   -.908E+01 -.220E+01 -.668E+01   0.859E+01 0.102E+01 0.558E+01   0.486E+00 0.118E+01 0.110E+01   0.868E-04 0.188E-03 -.256E-03
   -.100E+02 0.630E+01 -.630E+01   0.109E+02 -.532E+01 0.532E+01   -.918E+00 -.985E+00 0.985E+00   0.935E-04 0.630E-05 -.630E-05
   0.609E+00 -.133E+02 0.133E+02   0.568E+00 0.119E+02 -.119E+02   -.117E+01 0.148E+01 -.148E+01   0.755E-04 0.495E-04 -.495E-04
   0.295E+01 -.601E+00 -.337E+01   -.320E+01 0.423E+00 0.345E+01   0.248E+00 0.181E+00 -.811E-01   0.539E-04 -.388E-03 -.209E-03
   0.295E+01 0.337E+01 0.601E+00   -.320E+01 -.345E+01 -.423E+00   0.248E+00 0.811E-01 -.181E+00   0.539E-04 0.209E-03 0.388E-03
   -.692E+00 0.526E+01 -.526E+01   0.113E+01 -.509E+01 0.509E+01   -.424E+00 -.173E+00 0.173E+00   0.500E-04 0.516E-04 -.516E-04
   0.118E+02 -.602E+01 0.602E+01   -.126E+02 0.583E+01 -.583E+01   0.794E+00 0.199E+00 -.199E+00   -.189E-03 -.158E-03 0.158E-03
   -.528E+02 0.282E+02 -.282E+02   0.567E+02 -.311E+02 0.311E+02   -.386E+01 0.293E+01 -.293E+01   -.378E-03 0.275E-04 -.275E-04
   -.136E+02 -.505E+02 0.505E+02   0.164E+02 0.539E+02 -.539E+02   -.288E+01 -.333E+01 0.333E+01   0.149E-04 -.174E-03 0.174E-03
   0.595E+02 0.187E+02 0.419E+02   -.633E+02 -.212E+02 -.450E+02   0.377E+01 0.248E+01 0.307E+01   -.196E-03 0.148E-03 0.865E-05
   0.595E+02 -.419E+02 -.187E+02   -.633E+02 0.450E+02 0.212E+02   0.377E+01 -.307E+01 -.248E+01   -.196E-03 -.865E-05 -.148E-03
   0.270E+02 -.514E+02 -.381E+02   -.296E+02 0.554E+02 0.410E+02   0.261E+01 -.400E+01 -.293E+01   -.403E-04 0.315E-04 -.286E-03
   0.270E+02 0.381E+02 0.514E+02   -.296E+02 -.410E+02 -.554E+02   0.261E+01 0.293E+01 0.400E+01   -.403E-04 0.286E-03 -.315E-04
   -.658E+02 -.263E+02 0.263E+02   0.698E+02 0.284E+02 -.284E+02   -.396E+01 -.217E+01 0.217E+01   -.233E-03 -.711E-04 0.711E-04
   -.409E+02 0.429E+02 -.429E+02   0.438E+02 -.460E+02 0.460E+02   -.290E+01 0.306E+01 -.306E+01   0.609E-03 -.135E-03 0.135E-03
   -.368E+02 -.339E+02 0.458E+02   0.398E+02 0.366E+02 -.493E+02   -.298E+01 -.270E+01 0.348E+01   -.141E-03 0.738E-06 0.172E-03
   -.438E+02 0.338E+02 -.470E+02   0.470E+02 -.362E+02 0.504E+02   -.321E+01 0.241E+01 -.346E+01   0.273E-03 0.793E-05 0.463E-03
   0.559E+02 -.463E+02 -.251E+02   -.592E+02 0.499E+02 0.273E+02   0.327E+01 -.352E+01 -.220E+01   0.212E-03 0.235E-03 0.167E-03
   0.229E+02 0.657E+02 0.323E+02   -.251E+02 -.702E+02 -.344E+02   0.221E+01 0.459E+01 0.215E+01   -.522E-04 0.380E-03 0.304E-03
   -.368E+02 -.458E+02 0.339E+02   0.398E+02 0.493E+02 -.366E+02   -.298E+01 -.348E+01 0.270E+01   -.141E-03 -.172E-03 -.739E-06
   -.438E+02 0.470E+02 -.338E+02   0.470E+02 -.504E+02 0.362E+02   -.321E+01 0.346E+01 -.241E+01   0.273E-03 -.463E-03 -.793E-05
   0.229E+02 -.323E+02 -.657E+02   -.251E+02 0.344E+02 0.702E+02   0.221E+01 -.215E+01 -.459E+01   -.522E-04 -.304E-03 -.380E-03
   0.559E+02 0.251E+02 0.463E+02   -.592E+02 -.273E+02 -.499E+02   0.327E+01 0.220E+01 0.352E+01   0.212E-03 -.167E-03 -.235E-03
   0.132E+02 -.911E+01 0.911E+01   -.136E+02 0.926E+01 -.926E+01   0.377E+00 -.153E+00 0.153E+00   0.624E-03 -.765E-04 0.765E-04
   -.146E+01 0.157E+02 -.157E+02   0.988E+00 -.162E+02 0.162E+02   0.483E+00 0.438E+00 -.438E+00   -.732E-03 -.459E-03 0.459E-03
   0.448E+00 0.701E+01 0.186E+02   -.380E+00 -.725E+01 -.190E+02   -.692E-01 0.237E+00 0.370E+00   0.800E-05 -.689E-04 -.109E-03
   0.448E+00 -.186E+02 -.701E+01   -.380E+00 0.190E+02 0.725E+01   -.692E-01 -.370E+00 -.237E+00   0.800E-05 0.109E-03 0.689E-04
   0.168E+01 -.644E+01 -.491E+02   -.174E+01 0.651E+01 0.500E+02   0.612E-01 -.666E-01 -.843E+00   0.408E-03 -.406E-03 -.112E-02
   0.168E+01 0.491E+02 0.644E+01   -.174E+01 -.500E+02 -.651E+01   0.612E-01 0.843E+00 0.666E-01   0.408E-03 0.112E-02 0.406E-03
   -.404E+02 0.201E+02 -.201E+02   0.409E+02 -.204E+02 0.204E+02   -.421E+00 0.303E+00 -.303E+00   -.202E-04 0.746E-03 -.746E-03
   0.449E+02 -.147E+02 0.147E+02   -.456E+02 0.150E+02 -.150E+02   0.685E+00 -.281E+00 0.281E+00   0.502E-03 -.433E-03 0.433E-03
 -----------------------------------------------------------------------------------------------
   -.194E+01 -.859E+00 0.859E+00   -.782E-13 0.213E-13 -.782E-13   0.194E+01 0.862E+00 -.862E+00   0.770E-03 -.457E-03 0.457E-03
 
 
 POSITION                                       TOTAL-FORCE (eV/Angst)
 -----------------------------------------------------------------------------------
      9.47731      2.64773      2.20092         0.000004      0.000043     -0.000043
      9.37177      7.21551      7.32782        -0.000170     -0.000032      0.000032
      0.17718      1.94626      7.86277        -0.000097      0.000046      0.000321
      0.17718      6.68056      2.90238        -0.000097     -0.000321     -0.000046
      3.21847      3.10515      9.27016         0.000324      0.000263     -0.000234
      1.66267      7.91535      0.35888        -0.000118      0.000065      0.000178
      6.76852      2.82882      0.17717         0.000315      0.000088     -0.000189
      6.50995      6.88209      9.53998        -0.000754      0.000168     -0.000150
      2.57705      9.54358      2.84713        -0.000123     -0.000002      0.000140
      2.03588      0.14738      7.81136         0.000135     -0.000181      0.000229
      7.75345      9.38190      7.92047        -0.000168      0.000023      0.000389
      7.99197      0.24106      1.78255         0.000845      0.000096     -0.000196
      2.03588      6.73197      4.70126         0.000135     -0.000229      0.000181
      2.57705      2.00151      4.99975        -0.000123     -0.000140      0.000002
      7.75345      6.62287      5.16143        -0.000168     -0.000389     -0.000023
      7.99197      3.06609      4.60758         0.000845      0.000196     -0.000096
      1.66267      4.48976      6.62798        -0.000118     -0.000178     -0.000065
      3.21847      5.27317      1.74350         0.000324      0.000234     -0.000263
      6.76852      4.67147      2.01983         0.000315      0.000189     -0.000088
      6.50995      5.00335      7.66124        -0.000754      0.000150     -0.000168
      4.59800      1.70437      6.68046        -0.000012     -0.000039     -0.000051
      4.59800      7.86287      3.14427        -0.000012      0.000051      0.000039
      5.16168      1.77777      3.07088         0.000083      0.000045     -0.000045
      4.99445      7.96590      6.57744        -0.000132      0.000342     -0.000342
      4.78028      4.76716      4.85496        -0.000112     -0.000259     -0.000594
      4.78028      9.68837      0.08149        -0.000112      0.000594      0.000259
      0.02869      4.92461      9.61872        -0.000263      0.000206     -0.000206
      9.53004      9.67013      4.87320        -0.000018     -0.000137      0.000137
      1.13117      8.54136      6.00197         0.000069     -0.000109      0.000109
      0.90468      1.22569      3.62296        -0.000362     -0.000326      0.000326
      8.38106      8.45835      3.69904        -0.000075     -0.000237     -0.000078
      8.38106      1.14960      6.08498        -0.000075      0.000078      0.000237
      8.51091      6.11080      1.08733         0.000067      0.000081     -0.000346
      8.51091      3.76132      8.43253         0.000067      0.000346     -0.000081
      1.28730      6.06515      8.47818         0.000085      0.000180     -0.000180
      1.33460      3.80356      1.04508         0.000188     -0.000121      0.000121
      5.95548      1.11131      8.50590        -0.000282     -0.000061      0.000177
      6.00618      8.63529      1.34712         0.000512     -0.000124      0.000462
      3.59219      1.25169      1.17204        -0.000344      0.000183      0.000131
      3.67657      8.36900      8.65817         0.000397      0.000370      0.000411
      5.95548      6.03743      3.73733        -0.000282     -0.000177      0.000061
      6.00618      3.50153      5.90804         0.000512     -0.000462      0.000124
      3.67657      5.88516      6.17433         0.000397     -0.000411     -0.000370
      3.59219      3.67661      3.59695        -0.000344     -0.000131     -0.000183
      7.09905      7.23477      7.30856        -0.000148      0.000068     -0.000068
      7.27625      2.44624      2.40240         0.000122      0.000147     -0.000147
      2.40258      7.30296      2.49320        -0.000060      0.000018      0.000129
      2.40258      2.35544      7.24037        -0.000060     -0.000129     -0.000018
      9.68449      9.69244      9.42229        -0.000179      0.000272      0.000313
      9.68449      5.12105      4.85089        -0.000179     -0.000313     -0.000272
      4.41328      0.10413      4.74451        -0.000076     -0.000016      0.000016
      5.14847      4.74679      0.10186         0.000080     -0.000016      0.000016
 -----------------------------------------------------------------------------------
    total drift:                                0.001145      0.002021     -0.002014


--------------------------------------------------------------------------------------------------------



  FREE ENERGIE OF THE ION-ELECTRON SYSTEM (eV)
  ---------------------------------------------------
  free  energy   TOTEN  =      -272.00571945 eV

  energy  without entropy=     -272.00571945  energy(sigma->0) =     -272.00571945
 
 d Force = 0.8678626E-06[ 0.406E-06, 0.133E-05]  d Energy = 0.1995672E-05-0.113E-05
 d Force = 0.1500425E-01[ 0.150E-01, 0.150E-01]  d Ewald  = 0.1500461E-01-0.365E-06


--------------------------------------------------------------------------------------------------------


    POTLOK:  cpu time      0.4576: real time      0.4592


--------------------------------------------------------------------------------------------------------


 stress matrix after NEB project (eV)
     -1.78543     -1.02878      1.02878
     -1.02878      0.89168      0.26383
      1.02878      0.26383      0.89168
  FORCES: max atom, RMS     0.000872    0.000433
  FORCE total and by dimension    0.003125    0.000845
  Stress total and by dimension    3.025019    1.785431
 Conjugate gradient step on ions:
 trial-energy change:   -0.000002  1 .order   -0.000001   -0.000001   -0.000000
  (g-gl).g = 0.672E-06      g.g   = 0.800E-06  gl.gl    = 0.113E-05
 g(Force)  = 0.800E-06   g(Stress)= 0.000E+00 ortho     = 0.129E-06
 gamma     =   0.59688
 trial     =   1.51690
 opt step  =   2.18252  (harmonic =   2.18252) maximal distance =0.00009526
 next E    =  -272.005718   (d E  =  -0.00000)


--------------------------------------------------------------------------------------------------------


  
 reached required accuracy - stopping structural energy minimisation
     LOOP+:  cpu time      6.4010: real time      6.4894
    4ORBIT:  cpu time      0.0000: real time      0.0000

 total amount of memory used by VASP MPI-rank0    46980. kBytes
=======================================================================

   base      :      30000. kBytes
   nonlr-proj:       6464. kBytes
   fftplans  :       1747. kBytes
   grid      :       5278. kBytes
   one-center:         62. kBytes
   wavefun   :       3429. kBytes
 
  
  
 General timing and accounting informations for this job:
 ========================================================
  
                  Total CPU time used (sec):       92.243
                            User time (sec):       90.729
                          System time (sec):        1.514
                         Elapsed time (sec):       96.979
  
                   Maximum memory used (kb):      395656.
                   Average memory used (kb):          N/A
  
                          Minor page faults:        68043
                          Major page faults:          140
                 Voluntary context switches:        10578
