<?xml version="1.0" encoding="ISO-8859-1"?>
<modeling>
 <generator>
  <i name="program" type="string">vasp </i>
  <i name="version" type="string">6.4.1  </i>
  <i name="subversion" type="string">05Apr23 (build Jun 07 2023 15:38:11) complex                          parallel </i>
  <i name="platform" type="string">LinuxIFC </i>
  <i name="date" type="string">2023 10 23 </i>
  <i name="time" type="string">19:13:26 </i>
 </generator>
 <incar>
  <i type="string" name="PREC">Accu</i>
  <i type="string" name="ALGO">F</i>
  <i type="logical" name="LDIAG"> T  </i>
  <i type="int" name="ISPIN">     2</i>
  <i type="int" name="NELM">   100</i>
  <i type="int" name="NELMDL">   -10</i>
  <i type="int" name="IBRION">     2</i>
  <i name="EDIFF">      0.00000100</i>
  <i name="EDIFFG">     -0.00100000</i>
  <i type="int" name="NSW">  1000</i>
  <i type="int" name="ISIF">     2</i>
  <i name="ENCUT">    520.00000000</i>
  <i name="POTIM">      0.20000000</i>
  <i type="string" name="LREAL">Auto</i>
  <i type="logical" name="LPLANE"> T  </i>
  <i type="int" name="ISMEAR">     0</i>
  <i name="SIGMA">      0.03000000</i>
  <i type="int" name="LMAXMIX">     4</i>
  <i type="logical" name="LWAVE"> F  </i>
  <i type="logical" name="LCHARG"> F  </i>
  <i type="logical" name="LASPH"> T  </i>
  <i type="string" name="GGA">PE</i>
  <i type="int" name="IVDW">    12</i>
 </incar>
 <primitive_cell>
  <structure name="primitive_cell" >
   <crystal>
    <varray name="basis" >
     <v>       9.69468544       0.00000000       0.00000000 </v>
     <v>       0.00000000       9.69468544       0.00000000 </v>
     <v>       0.00000000       0.00000000       9.69468544 </v>
    </varray>
    <i name="volume">    911.17368197 </i>
    <varray name="rec_basis" >
     <v>       0.10314930       0.00000000       0.00000000 </v>
     <v>       0.00000000       0.10314930       0.00000000 </v>
     <v>       0.00000000       0.00000000       0.10314930 </v>
    </varray>
   </crystal>
   <varray name="positions" >
    <v>       0.97757648       0.27310574       0.22702867 </v>
    <v>       0.96669557       0.74427817       0.75585624 </v>
    <v>       0.01827788       0.20075617       0.81102893 </v>
    <v>       0.01827788       0.68910547       0.29937824 </v>
    <v>       0.33197054       0.32028460       0.95621554 </v>
    <v>       0.17150965       0.81646061       0.03701102 </v>
    <v>       0.69815911       0.29178708       0.01827951 </v>
    <v>       0.67152288       0.70987538       0.98404506 </v>
    <v>       0.26582246       0.98441517       0.29367308 </v>
    <v>       0.20999629       0.01520655       0.80572700 </v>
    <v>       0.79976631       0.96773741       0.81697693 </v>
    <v>       0.82433822       0.02486412       0.18387660 </v>
    <v>       0.20999629       0.69440741       0.48492785 </v>
    <v>       0.26582246       0.20646133       0.51571923 </v>
    <v>       0.79976631       0.68315748       0.53239700 </v>
    <v>       0.82433822       0.31625780       0.47527029 </v>
    <v>       0.17150965       0.46312338       0.68367380 </v>
    <v>       0.33197054       0.54391886       0.17984981 </v>
    <v>       0.69815911       0.48185489       0.20834732 </v>
    <v>       0.67152288       0.51608934       0.79025903 </v>
    <v>       0.47427827       0.17580630       0.68908866 </v>
    <v>       0.47427827       0.81104574       0.32432810 </v>
    <v>       0.53242146       0.18337555       0.31675885 </v>
    <v>       0.51517732       0.82166310       0.67847131 </v>
    <v>       0.49308367       0.49172974       0.50078850 </v>
    <v>       0.49308367       0.99934590       0.00840467 </v>
    <v>       0.00296016       0.50796420       0.99217021 </v>
    <v>       0.98301848       0.99746907       0.50266534 </v>
    <v>       0.11668017       0.88103824       0.61909616 </v>
    <v>       0.09332293       0.12643061       0.37370380 </v>
    <v>       0.86450132       0.87247976       0.38154910 </v>
    <v>       0.86450132       0.11858530       0.62765465 </v>
    <v>       0.87789356       0.63031515       0.11216823 </v>
    <v>       0.87789356       0.38796617       0.86981926 </v>
    <v>       0.13278024       0.62561201       0.87452240 </v>
    <v>       0.13766407       0.39233056       0.10780384 </v>
    <v>       0.61430867       0.11462647       0.87737540 </v>
    <v>       0.61952672       0.89071138       0.13894783 </v>
    <v>       0.37053807       0.12911193       0.12089460 </v>
    <v>       0.37923050       0.86326246       0.89307552 </v>
    <v>       0.61430867       0.62275901       0.38550793 </v>
    <v>       0.61952672       0.36118657       0.60942303 </v>
    <v>       0.37923050       0.60705888       0.63687195 </v>
    <v>       0.37053807       0.37923980       0.37102248 </v>
    <v>       0.73226784       0.74625954       0.75387487 </v>
    <v>       0.75053720       0.25232433       0.24781008 </v>
    <v>       0.24782463       0.75329698       0.25716601 </v>
    <v>       0.24782463       0.24296840       0.74683742 </v>
    <v>       0.99895447       0.99975949       0.97187798 </v>
    <v>       0.99895447       0.52825643       0.50037492 </v>
    <v>       0.45521837       0.01074797       0.48938644 </v>
    <v>       0.53107235       0.48962550       0.01050891 </v>
   </varray>
  </structure>
  <varray name="primitive_index" >
   <v type="int" >        1 </v>
   <v type="int" >        2 </v>
   <v type="int" >        3 </v>
   <v type="int" >        4 </v>
   <v type="int" >        5 </v>
   <v type="int" >        6 </v>
   <v type="int" >        7 </v>
   <v type="int" >        8 </v>
   <v type="int" >        9 </v>
   <v type="int" >       10 </v>
   <v type="int" >       11 </v>
   <v type="int" >       12 </v>
   <v type="int" >       13 </v>
   <v type="int" >       14 </v>
   <v type="int" >       15 </v>
   <v type="int" >       16 </v>
   <v type="int" >       17 </v>
   <v type="int" >       18 </v>
   <v type="int" >       19 </v>
   <v type="int" >       20 </v>
   <v type="int" >       21 </v>
   <v type="int" >       22 </v>
   <v type="int" >       23 </v>
   <v type="int" >       24 </v>
   <v type="int" >       25 </v>
   <v type="int" >       26 </v>
   <v type="int" >       27 </v>
   <v type="int" >       28 </v>
   <v type="int" >       29 </v>
   <v type="int" >       30 </v>
   <v type="int" >       31 </v>
   <v type="int" >       32 </v>
   <v type="int" >       33 </v>
   <v type="int" >       34 </v>
   <v type="int" >       35 </v>
   <v type="int" >       36 </v>
   <v type="int" >       37 </v>
   <v type="int" >       38 </v>
   <v type="int" >       39 </v>
   <v type="int" >       40 </v>
   <v type="int" >       41 </v>
   <v type="int" >       42 </v>
   <v type="int" >       43 </v>
   <v type="int" >       44 </v>
   <v type="int" >       45 </v>
   <v type="int" >       46 </v>
   <v type="int" >       47 </v>
   <v type="int" >       48 </v>
   <v type="int" >       49 </v>
   <v type="int" >       50 </v>
   <v type="int" >       51 </v>
   <v type="int" >       52 </v>
  </varray>
 </primitive_cell>
 <kpoints>
  <generation param="Monkhorst-Pack">
   <v type="int" name="divisions">       2        2        2 </v>
   <v name="usershift">      0.00000000       0.00000000       0.00000000 </v>
   <v name="genvec1">      0.50000000       0.00000000       0.00000000 </v>
   <v name="genvec2">      0.00000000       0.50000000       0.00000000 </v>
   <v name="genvec3">      0.00000000       0.00000000       0.50000000 </v>
   <v name="shift">      0.50000000       0.50000000       0.50000000 </v>
  </generation>
  <varray name="kpointlist" >
   <v>       0.25000000       0.25000000       0.25000000 </v>
   <v>      -0.25000000      -0.25000000       0.25000000 </v>
   <v>       0.25000000      -0.25000000       0.25000000 </v>
  </varray>
  <varray name="weights" >
   <v>       0.50000000 </v>
   <v>       0.25000000 </v>
   <v>       0.25000000 </v>
  </varray>
 </kpoints>
 <parameters>
  <separator name="general" >
   <i type="string" name="SYSTEM">unknown system</i>
   <i type="logical" name="LCOMPAT"> F  </i>
  </separator>
  <separator name="electronic" >
   <i type="string" name="PREC">accu</i>
   <i name="ENMAX">    520.00000000</i>
   <i name="ENAUG">   1041.69900000</i>
   <i name="EDIFF">      0.00000100</i>
   <i type="int" name="IALGO">    68</i>
   <i type="int" name="IWAVPR">    11</i>
   <i type="int" name="NBANDS">   176</i>
   <i type="int" name="NBANDSLOW">    -1</i>
   <i type="int" name="NBANDSHIGH">    -1</i>
   <i name="NELECT">    240.00000000</i>
   <i type="int" name="TURBO">     0</i>
   <i type="int" name="IRESTART">     0</i>
   <i type="int" name="NREBOOT">     0</i>
   <i type="int" name="NMIN">     0</i>
   <i name="EREF">      0.00000000</i>
   <separator name="electronic smearing" >
    <i type="int" name="ISMEAR">     0</i>
    <i name="SIGMA">      0.03000000</i>
    <i name="KSPACING">      0.50000000</i>
    <i type="logical" name="KGAMMA"> T  </i>
    <i type="logical" name="KBLOWUP"> T  </i>
   </separator>
   <separator name="electronic projectors" >
    <i type="logical" name="LREAL"> T  </i>
    <v name="ROPT">     -0.00025000     -0.00025000     -0.00025000     -0.00025000</v>
    <i type="int" name="LMAXPAW">  -100</i>
    <i type="int" name="LMAXMIX">     4</i>
    <i type="logical" name="NLSPLINE"> F  </i>
   </separator>
   <separator name="electronic startup" >
    <i type="int" name="ISTART">     0</i>
    <i type="int" name="ICHARG">     2</i>
    <i type="int" name="INIWAV">     1</i>
   </separator>
   <separator name="electronic spin" >
    <i type="int" name="ISPIN">     2</i>
    <i type="logical" name="LNONCOLLINEAR"> F  </i>
    <v name="MAGMOM">      1.00000000      1.00000000      1.00000000      1.00000000      1.00000000      1.00000000      1.00000000      1.00000000      1.00000000      1.00000000      1.00000000      1.00000000      1.00000000      1.00000000      1.00000000      1.00000000      1.00000000      1.00000000      1.00000000      1.00000000
      1.00000000      1.00000000      1.00000000      1.00000000      1.00000000      1.00000000      1.00000000      1.00000000      1.00000000      1.00000000      1.00000000      1.00000000      1.00000000      1.00000000      1.00000000      1.00000000      1.00000000      1.00000000      1.00000000      1.00000000
      1.00000000      1.00000000      1.00000000      1.00000000      1.00000000      1.00000000      1.00000000      1.00000000      1.00000000      1.00000000      1.00000000      1.00000000</v>
    <i name="NUPDOWN">     -1.00000000</i>
    <i type="logical" name="LSORBIT"> F  </i>
    <v name="SAXIS">      0.00000000      0.00000000      1.00000000</v>
    <i type="logical" name="LSPIRAL"> F  </i>
    <v name="QSPIRAL">      0.00000000      0.00000000      0.00000000</v>
    <i type="logical" name="LZEROZ"> F  </i>
   </separator>
   <separator name="electronic exchange-correlation" >
    <i type="logical" name="LASPH"> T  </i>
    <i type="logical" name="LMETAGGA"> F  </i>
   </separator>
   <separator name="electronic convergence" >
    <i type="int" name="NELM">   100</i>
    <i type="int" name="NELMDL">   -10</i>
    <i type="int" name="NELMIN">     2</i>
    <i name="ENINI">    520.00000000</i>
    <separator name="electronic convergence detail" >
     <i type="logical" name="LDIAG"> T  </i>
     <i type="logical" name="LSUBROT"> F  </i>
     <i name="WEIMIN">      0.00100000</i>
     <i name="EBREAK">      0.00000000</i>
     <i name="DEPER">      0.30000000</i>
     <i type="int" name="NRMM">     4</i>
     <i name="TIME">      0.40000000</i>
    </separator>
   </separator>
   <separator name="electronic mixer" >
    <i name="AMIX">      0.40000000</i>
    <i name="BMIX">      1.00000000</i>
    <i name="AMIN">      0.10000000</i>
    <i name="AMIX_MAG">      1.60000000</i>
    <i name="BMIX_MAG">      1.00000000</i>
    <separator name="electronic mixer details" >
     <i type="int" name="IMIX">     4</i>
     <i type="logical" name="MIXFIRST"> F  </i>
     <i type="int" name="MAXMIX">   -45</i>
     <i name="WC">    100.00000000</i>
     <i type="int" name="INIMIX">     1</i>
     <i type="int" name="MIXPRE">     1</i>
     <i type="int" name="MREMOVE">     5</i>
    </separator>
   </separator>
   <separator name="electronic dipolcorrection" >
    <i type="logical" name="LDIPOL"> F  </i>
    <i type="logical" name="LMONO"> F  </i>
    <i type="int" name="IDIPOL">     0</i>
    <i name="EPSILON">      1.00000000</i>
    <v name="DIPOL">   -100.00000000   -100.00000000   -100.00000000</v>
    <i name="EFIELD">      0.00000000</i>
   </separator>
  </separator>
  <separator name="grids" >
   <i type="int" name="NGX">    72</i>
   <i type="int" name="NGY">    72</i>
   <i type="int" name="NGZ">    72</i>
   <i type="int" name="NGXF">   144</i>
   <i type="int" name="NGYF">   144</i>
   <i type="int" name="NGZF">   144</i>
   <i type="logical" name="ADDGRID"> F  </i>
  </separator>
  <separator name="ionic" >
   <i type="int" name="NSW">  1000</i>
   <i type="int" name="IBRION">     2</i>
   <i type="int" name="MDALGO">     0</i>
   <i type="int" name="ISIF">     2</i>
   <i name="PSTRESS">      0.00000000</i>
   <i name="EDIFFG">     -0.00100000</i>
   <i type="int" name="NFREE">     1</i>
   <i name="POTIM">      0.20000000</i>
   <i name="SMASS">     -3.00000000</i>
   <i name="SCALEE">      1.00000000</i>
  </separator>
  <separator name="ionic md" >
   <i name="TEBEG">      0.00010000</i>
   <i name="TEEND">      0.00010000</i>
   <i type="int" name="NBLOCK">     1</i>
   <i type="int" name="KBLOCK">  1000</i>
   <i type="int" name="NPACO">   256</i>
   <i name="APACO">     10.00000000</i>
  </separator>
  <separator name="symmetry" >
   <i type="int" name="ISYM">     2</i>
   <i name="SYMPREC">      0.00001000</i>
  </separator>
  <separator name="dos" >
   <i type="int" name="LORBIT">     0</i>
   <v name="RWIGS">     -1.00000000     -1.00000000     -1.00000000     -1.00000000</v>
   <i type="int" name="NEDOS">   301</i>
   <i name="EMIN">     10.00000000</i>
   <i name="EMAX">    -10.00000000</i>
   <i name="EFERMI">      0.00000000</i>
  </separator>
  <separator name="writing" >
   <i type="int" name="NWRITE">     2</i>
   <i type="logical" name="LWAVE"> F  </i>
   <i type="logical" name="LDOWNSAMPLE"> F  </i>
   <i type="logical" name="LCHARG"> F  </i>
   <i type="logical" name="LPARD"> F  </i>
   <i type="logical" name="LVTOT"> F  </i>
   <i type="logical" name="LVHAR"> F  </i>
   <i type="logical" name="LELF"> F  </i>
   <i type="logical" name="LOPTICS"> F  </i>
   <v name="STM">      0.00000000      0.00000000      0.00000000      0.00000000      0.00000000      0.00000000      0.00000000</v>
  </separator>
  <separator name="performance" >
   <i type="int" name="NPAR">     4</i>
   <i type="int" name="NSIM">     4</i>
   <i type="int" name="NBLK">    -1</i>
   <i type="logical" name="LPLANE"> T  </i>
   <i type="logical" name="LSCALAPACK"> T  </i>
   <i type="logical" name="LSCAAWARE"> F  </i>
   <i type="logical" name="LSCALU"> F  </i>
   <i type="logical" name="LASYNC"> F  </i>
   <i type="logical" name="LORBITALREAL"> F  </i>
  </separator>
  <separator name="miscellaneous" >
   <i type="int" name="IDIOT">     3</i>
   <i type="int" name="PHON_NSTRUCT">    -1</i>
   <i type="logical" name="LMUSIC"> F  </i>
   <v name="POMASS">      7.01000000     30.97400000     32.06600000     35.45300000</v>
   <v name="DARWINR">      0.00000000      0.00000000      0.00000000      0.00000000</v>
   <v name="DARWINV">      1.00000000      1.00000000      1.00000000      1.00000000</v>
   <i type="logical" name="LCORR"> T  </i>
  </separator>
  <i type="logical" name="GGA_COMPAT"> T  </i>
  <i type="logical" name="LBERRY"> F  </i>
  <i type="int" name="ICORELEVEL">     0</i>
  <i type="logical" name="LDAU"> F  </i>
  <i type="int" name="I_CONSTRAINED_M">     0</i>
  <separator name="electronic exchange-correlation" >
   <i type="string" name="GGA">PE</i>
   <i type="int" name="VOSKOWN">     0</i>
   <i type="logical" name="LHFCALC"> F  </i>
   <i type="string" name="PRECFOCK"></i>
   <i type="logical" name="LSYMGRAD"> F  </i>
   <i type="logical" name="LHFONE"> F  </i>
   <i type="logical" name="LRHFCALC"> F  </i>
   <i type="logical" name="LTHOMAS"> F  </i>
   <i type="logical" name="LMODELHF"> F  </i>
   <i type="logical" name="LFOCKACE"> F  </i>
   <i name="ENCUT4O">     -1.00000000</i>
   <i type="int" name="EXXOEP">     0</i>
   <i type="int" name="FOURORBIT">     0</i>
   <i name="AEXX">      0.00000000</i>
   <i name="HFALPHA">      0.00000000</i>
   <i name="MCALPHA">      0.00000000</i>
   <i name="ALDAX">      1.00000000</i>
   <i name="AGGAX">      1.00000000</i>
   <i name="ALDAC">      1.00000000</i>
   <i name="AGGAC">      1.00000000</i>
   <i type="int" name="NKREDX">     1</i>
   <i type="int" name="NKREDY">     1</i>
   <i type="int" name="NKREDZ">     1</i>
   <i type="logical" name="SHIFTRED"> F  </i>
   <i type="logical" name="ODDONLY"> F  </i>
   <i type="logical" name="EVENONLY"> F  </i>
   <i type="int" name="LMAXFOCK">     0</i>
   <i type="int" name="NMAXFOCKAE">     0</i>
   <i type="logical" name="LFOCKAEDFT"> F  </i>
   <i name="HFSCREEN">      0.00000000</i>
   <i name="HFSCREENC">      0.00000000</i>
   <i type="int" name="NBANDSGWLOW">     0</i>
  </separator>
  <separator name="vdW DFT" >
   <i type="logical" name="LUSE_VDW"> F  </i>
   <i type="int" name="IVDW_NL">     1</i>
   <i type="logical" name="LSPIN_VDW"> F  </i>
   <i name="Zab_VDW">     -0.84910000</i>
   <i name="PARAM1">      0.12340000</i>
   <i name="PARAM2">      1.00000000</i>
   <i name="PARAM3">      0.00000000</i>
  </separator>
  <separator name="model GW" >
   <i type="int" name="MODEL_GW">     0</i>
   <i name="MODEL_EPS0">     10.51354248</i>
   <i name="MODEL_ALPHA">      1.00000000</i>
  </separator>
  <separator name="linear response parameters" >
   <i type="logical" name="LEPSILON"> F  </i>
   <i type="logical" name="LRPA"> F  </i>
   <i type="logical" name="LNABLA"> F  </i>
   <i type="logical" name="LVEL"> F  </i>
   <i name="CSHIFT">      0.10000000</i>
   <i name="OMEGAMAX">     -1.00000000</i>
   <i name="DEG_THRESHOLD">      0.00200000</i>
   <i name="RTIME">     -0.10000000</i>
   <i name="WPLASMAI">      0.00000000</i>
   <v name="DFIELD">      0.00000000      0.00000000      0.00000000</v>
   <v name="WPLASMA">      0.00000000      0.00000000      0.00000000      0.00000000      0.00000000      0.00000000      0.00000000      0.00000000      0.00000000</v>
  </separator>
  <separator name="orbital magnetization" >
   <i type="logical" name="NUCIND"> F  </i>
   <v name="MAGPOS">      0.00000000      0.00000000      0.00000000</v>
   <i type="logical" name="LNICSALL"> T  </i>
   <i type="logical" name="ORBITALMAG"> F  </i>
   <i type="logical" name="LMAGBLOCH"> F  </i>
   <i type="logical" name="LCHIMAG"> F  </i>
   <i type="logical" name="LGAUGE"> T  </i>
   <i type="int" name="MAGATOM">     0</i>
   <v name="MAGDIPOL">      0.00000000      0.00000000      0.00000000</v>
   <v name="AVECCONST">      0.00000000      0.00000000      0.00000000</v>
  </separator>
  <separator name="response functions" >
   <i type="logical" name="LALL_IN_ONE"> F  </i>
   <i type="int" name="IALL_IN_ONE">    -1</i>
   <i type="int" name="NBANDS_WAVE">    -1</i>
   <i type="logical" name="LFINITE_TEMPERATURE"> F  </i>
   <i type="logical" name="LADDER"> F  </i>
   <i type="logical" name="LRPAFORCE"> F  </i>
   <i type="logical" name="LFXC"> F  </i>
   <i type="logical" name="LHARTREE"> T  </i>
   <i type="int" name="IBSE">     0</i>
   <v type="int" name="KPOINT">    -1     0     0     0</v>
   <i type="logical" name="LTCTC"> F  </i>
   <i type="logical" name="LTCTE"> F  </i>
   <i type="logical" name="LTETE"> F  </i>
   <i type="logical" name="LTRIPLET"> F  </i>
   <i type="logical" name="LFXCEPS"> F  </i>
   <i type="logical" name="LFXHEG"> F  </i>
   <i type="int" name="NATURALO">     2</i>
   <i type="logical" name="LHOLEGF"> F  </i>
   <i type="logical" name="L2ORDER"> F  </i>
   <i type="logical" name="LDMP1"> F  </i>
   <i type="logical" name="LMP2LT"> F  </i>
   <i type="logical" name="LSMP2LT"> F  </i>
   <i type="logical" name="LGWLF"> F  </i>
   <i name="ENCUTGW">     -1.60000002</i>
   <i name="ENCUTGWSOFT">     -1.60000002</i>
   <i name="ENCUTLF">     -1.00000000</i>
   <i type="logical" name="LESF_SPLINES"> F  </i>
   <i type="int" name="LMAXMP2">    -1</i>
   <i name="SCISSOR">      0.00000000</i>
   <i type="int" name="NOMEGA">     0</i>
   <i type="int" name="NOMEGAR">     0</i>
   <i type="int" name="NBANDSGW">    -1</i>
   <i type="int" name="NBANDSO">    -1</i>
   <i type="int" name="NBANDSV">    -1</i>
   <i type="int" name="NELMGW">     1</i>
   <i type="int" name="NELMHF">     1</i>
   <i type="int" name="DIM">     3</i>
   <i type="int" name="IESPILON">     4</i>
   <i type="int" name="ANTIRES">     0</i>
   <i name="OMEGAMAX">    -30.00000000</i>
   <i name="OMEGAMIN">    -30.00000000</i>
   <i name="OMEGATL">   -200.00000000</i>
   <i type="int" name="OMEGAGRID">     0</i>
   <i name="CSHIFT">     -0.10000000</i>
   <i type="logical" name="LSELFENERGY"> F  </i>
   <i type="logical" name="LSPECTRAL"> F  </i>
   <i type="logical" name="LSPECTRALGW"> F  </i>
   <i type="logical" name="LSINGLES"> F  </i>
   <i type="logical" name="LFERMIGW"> F  </i>
   <i type="logical" name="ODDONLYGW"> F  </i>
   <i type="logical" name="EVENONLYGW"> F  </i>
   <i type="int" name="NKREDLFX">     1</i>
   <i type="int" name="NKREDLFY">     1</i>
   <i type="int" name="NKREDLFZ">     1</i>
   <i type="int" name="MAXMEM">  2800</i>
   <i type="int" name="TELESCOPE">     0</i>
   <i type="int" name="NTAUPAR">    -1</i>
   <i type="int" name="NOMEGAPAR">    -1</i>
   <i name="DAMP_NEWTON">      0.80000001</i>
   <i name="LAMBDA">      1.00000000</i>
  </separator>
  <separator name="External order field" >
   <i name="OFIELD_KAPPA">      0.00000000</i>
   <v name="OFIELD_K">      0.00000000      0.00000000      0.00000000</v>
   <i name="OFIELD_Q6_NEAR">      0.00000000</i>
   <i name="OFIELD_Q6_FAR">      0.00000000</i>
   <i name="OFIELD_A">      0.00000000</i>
  </separator>
  <separator name="optional k-points parameters" >
   <i type="int" name="KPOINTS_OPT_MODE">     1</i>
   <i type="logical" name="LKPOINTS_OPT"> F  </i>
  </separator>
 </parameters>
 <atominfo>
  <atoms>      52 </atoms>
  <types>       4 </types>
  <array name="atoms" >
   <dimension dim="1">ion</dimension>
   <field type="string">element</field>
   <field type="int">atomtype</field>
   <set>
    <rc><c>Li</c><c>   1</c></rc>
    <rc><c>Li</c><c>   1</c></rc>
    <rc><c>Li</c><c>   1</c></rc>
    <rc><c>Li</c><c>   1</c></rc>
    <rc><c>Li</c><c>   1</c></rc>
    <rc><c>Li</c><c>   1</c></rc>
    <rc><c>Li</c><c>   1</c></rc>
    <rc><c>Li</c><c>   1</c></rc>
    <rc><c>Li</c><c>   1</c></rc>
    <rc><c>Li</c><c>   1</c></rc>
    <rc><c>Li</c><c>   1</c></rc>
    <rc><c>Li</c><c>   1</c></rc>
    <rc><c>Li</c><c>   1</c></rc>
    <rc><c>Li</c><c>   1</c></rc>
    <rc><c>Li</c><c>   1</c></rc>
    <rc><c>Li</c><c>   1</c></rc>
    <rc><c>Li</c><c>   1</c></rc>
    <rc><c>Li</c><c>   1</c></rc>
    <rc><c>Li</c><c>   1</c></rc>
    <rc><c>Li</c><c>   1</c></rc>
    <rc><c>Li</c><c>   1</c></rc>
    <rc><c>Li</c><c>   1</c></rc>
    <rc><c>Li</c><c>   1</c></rc>
    <rc><c>Li</c><c>   1</c></rc>
    <rc><c>P </c><c>   2</c></rc>
    <rc><c>P </c><c>   2</c></rc>
    <rc><c>P </c><c>   2</c></rc>
    <rc><c>P </c><c>   2</c></rc>
    <rc><c>S </c><c>   3</c></rc>
    <rc><c>S </c><c>   3</c></rc>
    <rc><c>S </c><c>   3</c></rc>
    <rc><c>S </c><c>   3</c></rc>
    <rc><c>S </c><c>   3</c></rc>
    <rc><c>S </c><c>   3</c></rc>
    <rc><c>S </c><c>   3</c></rc>
    <rc><c>S </c><c>   3</c></rc>
    <rc><c>S </c><c>   3</c></rc>
    <rc><c>S </c><c>   3</c></rc>
    <rc><c>S </c><c>   3</c></rc>
    <rc><c>S </c><c>   3</c></rc>
    <rc><c>S </c><c>   3</c></rc>
    <rc><c>S </c><c>   3</c></rc>
    <rc><c>S </c><c>   3</c></rc>
    <rc><c>S </c><c>   3</c></rc>
    <rc><c>S </c><c>   3</c></rc>
    <rc><c>S </c><c>   3</c></rc>
    <rc><c>S </c><c>   3</c></rc>
    <rc><c>S </c><c>   3</c></rc>
    <rc><c>Cl</c><c>   4</c></rc>
    <rc><c>Cl</c><c>   4</c></rc>
    <rc><c>Cl</c><c>   4</c></rc>
    <rc><c>Cl</c><c>   4</c></rc>
   </set>
  </array>
  <array name="atomtypes" >
   <dimension dim="1">type</dimension>
   <field type="int">atomspertype</field>
   <field type="string">element</field>
   <field>mass</field>
   <field>valence</field>
   <field type="string">pseudopotential</field>
   <set>
    <rc><c>  24</c><c>Li</c><c>      7.01000000</c><c>      3.00000000</c><c>  PAW_PBE Li_sv_GW 25Mar2010            </c></rc>
    <rc><c>   4</c><c>P </c><c>     30.97400000</c><c>      5.00000000</c><c>  PAW_PBE P_GW 19Mar2012                </c></rc>
    <rc><c>  20</c><c>S </c><c>     32.06600000</c><c>      6.00000000</c><c>  PAW_PBE S_GW 19Mar2012                </c></rc>
    <rc><c>   4</c><c>Cl</c><c>     35.45300000</c><c>      7.00000000</c><c>  PAW_PBE Cl_GW 19Mar2012               </c></rc>
   </set>
  </array>
 </atominfo>
 <structure name="initialpos" >
  <crystal>
   <varray name="basis" >
    <v>       9.69468544       0.00000000       0.00000000 </v>
    <v>       0.00000000       9.69468544       0.00000000 </v>
    <v>       0.00000000       0.00000000       9.69468544 </v>
   </varray>
   <i name="volume">    911.17368197 </i>
   <varray name="rec_basis" >
    <v>       0.10314930       0.00000000       0.00000000 </v>
    <v>       0.00000000       0.10314930       0.00000000 </v>
    <v>       0.00000000       0.00000000       0.10314930 </v>
   </varray>
  </crystal>
  <varray name="positions" >
   <v>       0.97757648       0.27310574       0.22702867 </v>
   <v>       0.96669557       0.74427817       0.75585624 </v>
   <v>       0.01827788       0.20075617       0.81102893 </v>
   <v>       0.01827788       0.68910547       0.29937824 </v>
   <v>       0.33197054       0.32028460       0.95621554 </v>
   <v>       0.17150965       0.81646061       0.03701102 </v>
   <v>       0.69815911       0.29178708       0.01827951 </v>
   <v>       0.67152288       0.70987538       0.98404506 </v>
   <v>       0.26582246       0.98441517       0.29367308 </v>
   <v>       0.20999629       0.01520655       0.80572700 </v>
   <v>       0.79976631       0.96773741       0.81697693 </v>
   <v>       0.82433822       0.02486412       0.18387660 </v>
   <v>       0.20999629       0.69440741       0.48492785 </v>
   <v>       0.26582246       0.20646133       0.51571923 </v>
   <v>       0.79976631       0.68315748       0.53239700 </v>
   <v>       0.82433822       0.31625780       0.47527029 </v>
   <v>       0.17150965       0.46312338       0.68367380 </v>
   <v>       0.33197054       0.54391886       0.17984981 </v>
   <v>       0.69815911       0.48185489       0.20834732 </v>
   <v>       0.67152288       0.51608934       0.79025903 </v>
   <v>       0.47427827       0.17580630       0.68908866 </v>
   <v>       0.47427827       0.81104574       0.32432810 </v>
   <v>       0.53242146       0.18337555       0.31675885 </v>
   <v>       0.51517732       0.82166310       0.67847131 </v>
   <v>       0.49308367       0.49172974       0.50078850 </v>
   <v>       0.49308367       0.99934590       0.00840467 </v>
   <v>       0.00296016       0.50796420       0.99217021 </v>
   <v>       0.98301848       0.99746907       0.50266534 </v>
   <v>       0.11668017       0.88103824       0.61909616 </v>
   <v>       0.09332293       0.12643061       0.37370380 </v>
   <v>       0.86450132       0.87247976       0.38154910 </v>
   <v>       0.86450132       0.11858530       0.62765465 </v>
   <v>       0.87789356       0.63031515       0.11216823 </v>
   <v>       0.87789356       0.38796617       0.86981926 </v>
   <v>       0.13278024       0.62561201       0.87452240 </v>
   <v>       0.13766407       0.39233056       0.10780384 </v>
   <v>       0.61430867       0.11462647       0.87737540 </v>
   <v>       0.61952672       0.89071138       0.13894783 </v>
   <v>       0.37053807       0.12911193       0.12089460 </v>
   <v>       0.37923050       0.86326246       0.89307552 </v>
   <v>       0.61430867       0.62275901       0.38550793 </v>
   <v>       0.61952672       0.36118657       0.60942303 </v>
   <v>       0.37923050       0.60705888       0.63687195 </v>
   <v>       0.37053807       0.37923980       0.37102248 </v>
   <v>       0.73226784       0.74625954       0.75387487 </v>
   <v>       0.75053720       0.25232433       0.24781008 </v>
   <v>       0.24782463       0.75329698       0.25716601 </v>
   <v>       0.24782463       0.24296840       0.74683742 </v>
   <v>       0.99895447       0.99975949       0.97187798 </v>
   <v>       0.99895447       0.52825643       0.50037492 </v>
   <v>       0.45521837       0.01074797       0.48938644 </v>
   <v>       0.53107235       0.48962550       0.01050891 </v>
  </varray>
 </structure>
 <calculation>
  <scstep>
   <time name="dav">    1.70    2.00</time>
   <time name="total">    2.17    2.49</time>
   <energy>
    <i name="alphaZ">    297.92070277 </i>
    <i name="ewald">  -8756.67475724 </i>
    <i name="hartreedc">  -2144.41937884 </i>
    <i name="XCdc">    533.81583244 </i>
    <i name="pawpsdc">   8141.38806575 </i>
    <i name="pawaedc">  -8271.61346273 </i>
    <i name="eentropy">     -0.00628114 </i>
    <i name="bandstr">   -917.80798861 </i>
    <i name="atom">  12703.13999606 </i>
    <i name="e_fr_energy">   1585.74272845 </i>
    <i name="e_wo_entrp">   1585.74900959 </i>
    <i name="e_0_energy">   1585.74586902 </i>
   </energy>
  </scstep>
  <scstep>
   <time name="dav">    1.96    1.98</time>
   <time name="total">    1.96    1.98</time>
   <energy>
    <i name="e_fr_energy">    -57.41748231 </i>
    <i name="e_wo_entrp">    -57.41748231 </i>
    <i name="e_0_energy">    -57.41748231 </i>
   </energy>
  </scstep>
  <scstep>
   <time name="dav">    1.92    1.94</time>
   <time name="total">    1.92    1.94</time>
   <energy>
    <i name="e_fr_energy">   -228.59070783 </i>
    <i name="e_wo_entrp">   -228.59070783 </i>
    <i name="e_0_energy">   -228.59070783 </i>
   </energy>
  </scstep>
  <scstep>
   <time name="dav">    2.44    2.47</time>
   <time name="total">    2.44    2.47</time>
   <energy>
    <i name="e_fr_energy">   -242.03819592 </i>
    <i name="e_wo_entrp">   -242.03819592 </i>
    <i name="e_0_energy">   -242.03819592 </i>
   </energy>
  </scstep>
  <scstep>
   <time name="dav">    2.18    2.20</time>
   <time name="total">    2.18    2.20</time>
   <energy>
    <i name="e_fr_energy">   -242.25346240 </i>
    <i name="e_wo_entrp">   -242.25346240 </i>
    <i name="e_0_energy">   -242.25346240 </i>
   </energy>
  </scstep>
  <scstep>
   <time name="dav">    2.31    2.33</time>
   <time name="total">    2.31    2.33</time>
   <energy>
    <i name="e_fr_energy">   -242.26450975 </i>
    <i name="e_wo_entrp">   -242.26450975 </i>
    <i name="e_0_energy">   -242.26450975 </i>
   </energy>
  </scstep>
  <scstep>
   <time name="dav">    2.23    2.25</time>
   <time name="total">    2.23    2.25</time>
   <energy>
    <i name="e_fr_energy">   -242.26487907 </i>
    <i name="e_wo_entrp">   -242.26487907 </i>
    <i name="e_0_energy">   -242.26487907 </i>
   </energy>
  </scstep>
  <scstep>
   <time name="dav">    2.24    2.26</time>
   <time name="total">    2.24    2.26</time>
   <energy>
    <i name="e_fr_energy">   -242.26490145 </i>
    <i name="e_wo_entrp">   -242.26490145 </i>
    <i name="e_0_energy">   -242.26490145 </i>
   </energy>
  </scstep>
  <scstep>
   <time name="dav">    2.19    2.21</time>
   <time name="total">    2.19    2.21</time>
   <energy>
    <i name="e_fr_energy">   -242.26490282 </i>
    <i name="e_wo_entrp">   -242.26490282 </i>
    <i name="e_0_energy">   -242.26490282 </i>
   </energy>
  </scstep>
  <scstep>
   <time name="dav">    1.47    1.49</time>
   <time name="total">    1.70    2.00</time>
   <energy>
    <i name="e_fr_energy">   -242.26490288 </i>
    <i name="e_wo_entrp">   -242.26490288 </i>
    <i name="e_0_energy">   -242.26490288 </i>
   </energy>
  </scstep>
  <scstep>
   <time name="diag">    0.27    0.27</time>
   <time name="diis">    0.86    0.87</time>
   <time name="orth">    0.05    0.05</time>
   <time name="total">    1.83    2.16</time>
   <energy>
    <i name="e_fr_energy">   -235.24397244 </i>
    <i name="e_wo_entrp">   -235.24397244 </i>
    <i name="e_0_energy">   -235.24397244 </i>
   </energy>
  </scstep>
  <scstep>
   <time name="diag">    0.27    0.27</time>
   <time name="diis">    0.91    0.91</time>
   <time name="orth">    0.05    0.05</time>
   <time name="total">    1.78    1.85</time>
   <energy>
    <i name="e_fr_energy">   -255.90027240 </i>
    <i name="e_wo_entrp">   -255.90027240 </i>
    <i name="e_0_energy">   -255.90027240 </i>
   </energy>
  </scstep>
  <scstep>
   <time name="diag">    0.27    0.27</time>
   <time name="diis">    0.90    0.91</time>
   <time name="orth">    0.05    0.05</time>
   <time name="total">    1.80    1.85</time>
   <energy>
    <i name="e_fr_energy">   -258.39286994 </i>
    <i name="e_wo_entrp">   -258.39286994 </i>
    <i name="e_0_energy">   -258.39286994 </i>
   </energy>
  </scstep>
  <scstep>
   <time name="diag">    0.27    0.27</time>
   <time name="diis">    1.16    1.17</time>
   <time name="orth">    0.05    0.05</time>
   <time name="total">    2.04    2.09</time>
   <energy>
    <i name="e_fr_energy">   -258.59230975 </i>
    <i name="e_wo_entrp">   -258.59230975 </i>
    <i name="e_0_energy">   -258.59230975 </i>
   </energy>
  </scstep>
  <scstep>
   <time name="diag">    0.27    0.27</time>
   <time name="diis">    0.95    0.96</time>
   <time name="orth">    0.05    0.05</time>
   <time name="total">    1.83    1.87</time>
   <energy>
    <i name="e_fr_energy">   -258.55678064 </i>
    <i name="e_wo_entrp">   -258.55678064 </i>
    <i name="e_0_energy">   -258.55678064 </i>
   </energy>
  </scstep>
  <scstep>
   <time name="diag">    0.27    0.27</time>
   <time name="diis">    0.94    0.95</time>
   <time name="orth">    0.05    0.05</time>
   <time name="total">    1.83    1.87</time>
   <energy>
    <i name="e_fr_energy">   -258.57671540 </i>
    <i name="e_wo_entrp">   -258.57671540 </i>
    <i name="e_0_energy">   -258.57671540 </i>
   </energy>
  </scstep>
  <scstep>
   <time name="diag">    0.26    0.27</time>
   <time name="diis">    1.07    1.08</time>
   <time name="orth">    0.05    0.05</time>
   <time name="total">    1.96    1.99</time>
   <energy>
    <i name="e_fr_energy">   -258.58305691 </i>
    <i name="e_wo_entrp">   -258.58305691 </i>
    <i name="e_0_energy">   -258.58305691 </i>
   </energy>
  </scstep>
  <scstep>
   <time name="diag">    0.27    0.27</time>
   <time name="diis">    1.06    1.07</time>
   <time name="orth">    0.05    0.05</time>
   <time name="total">    1.93    1.97</time>
   <energy>
    <i name="e_fr_energy">   -258.58426193 </i>
    <i name="e_wo_entrp">   -258.58426193 </i>
    <i name="e_0_energy">   -258.58426193 </i>
   </energy>
  </scstep>
  <scstep>
   <time name="diag">    0.27    0.27</time>
   <time name="diis">    1.19    1.20</time>
   <time name="orth">    0.05    0.05</time>
   <time name="total">    2.08    2.12</time>
   <energy>
    <i name="e_fr_energy">   -258.58478127 </i>
    <i name="e_wo_entrp">   -258.58478127 </i>
    <i name="e_0_energy">   -258.58478127 </i>
   </energy>
  </scstep>
  <scstep>
   <time name="diag">    0.27    0.27</time>
   <time name="diis">    1.18    1.19</time>
   <time name="orth">    0.05    0.05</time>
   <time name="total">    2.07    2.10</time>
   <energy>
    <i name="e_fr_energy">   -258.58488146 </i>
    <i name="e_wo_entrp">   -258.58488146 </i>
    <i name="e_0_energy">   -258.58488146 </i>
   </energy>
  </scstep>
  <scstep>
   <time name="diag">    0.27    0.27</time>
   <time name="diis">    1.06    1.07</time>
   <time name="orth">    0.05    0.05</time>
   <time name="total">    1.95    1.98</time>
   <energy>
    <i name="e_fr_energy">   -258.58490044 </i>
    <i name="e_wo_entrp">   -258.58490044 </i>
    <i name="e_0_energy">   -258.58490044 </i>
   </energy>
  </scstep>
  <scstep>
   <time name="diag">    0.27    0.27</time>
   <time name="diis">    1.17    1.18</time>
   <time name="orth">    0.05    0.05</time>
   <time name="total">    2.05    2.08</time>
   <energy>
    <i name="e_fr_energy">   -258.58490714 </i>
    <i name="e_wo_entrp">   -258.58490714 </i>
    <i name="e_0_energy">   -258.58490714 </i>
   </energy>
  </scstep>
  <scstep>
   <time name="diag">    0.27    0.27</time>
   <time name="diis">    0.94    0.95</time>
   <time name="orth">    0.05    0.05</time>
   <time name="total">    1.82    1.85</time>
   <energy>
    <i name="e_fr_energy">   -258.58490694 </i>
    <i name="e_wo_entrp">   -258.58490694 </i>
    <i name="e_0_energy">   -258.58490694 </i>
   </energy>
  </scstep>
  <scstep>
   <time name="diag">    0.27    0.27</time>
   <time name="diis">    0.73    0.73</time>
   <time name="orth">    0.05    0.05</time>
   <time name="total">    1.50    1.51</time>
   <energy>
    <i name="alphaZ">    297.92070277 </i>
    <i name="ewald">  -8756.67475724 </i>
    <i name="hartreedc">  -2248.59008874 </i>
    <i name="XCdc">    537.69306023 </i>
    <i name="pawpsdc">   9830.25203605 </i>
    <i name="pawaedc">  -9974.33205936 </i>
    <i name="eentropy">     -0.00000000 </i>
    <i name="bandstr">  -2647.99379607 </i>
    <i name="atom">  12703.13999606 </i>
    <i name="e_fr_energy">   -258.58490630 </i>
    <i name="e_wo_entrp">   -258.58490630 </i>
    <i name="e_0_energy">   -258.58490630 </i>
   </energy>
  </scstep>
  <structure>
   <crystal>
    <varray name="basis" >
     <v>       9.69468544       0.00000000       0.00000000 </v>
     <v>       0.00000000       9.69468544       0.00000000 </v>
     <v>       0.00000000       0.00000000       9.69468544 </v>
    </varray>
    <i name="volume">    911.17368197 </i>
    <varray name="rec_basis" >
     <v>       0.10314930       0.00000000       0.00000000 </v>
     <v>       0.00000000       0.10314930       0.00000000 </v>
     <v>       0.00000000       0.00000000       0.10314930 </v>
    </varray>
   </crystal>
   <varray name="positions" >
    <v>       0.97757648       0.27310574       0.22702867 </v>
    <v>       0.96669557       0.74427817       0.75585624 </v>
    <v>       0.01827788       0.20075617       0.81102893 </v>
    <v>       0.01827788       0.68910547       0.29937824 </v>
    <v>       0.33197054       0.32028460       0.95621554 </v>
    <v>       0.17150965       0.81646061       0.03701102 </v>
    <v>       0.69815911       0.29178708       0.01827951 </v>
    <v>       0.67152288       0.70987538       0.98404506 </v>
    <v>       0.26582246       0.98441517       0.29367308 </v>
    <v>       0.20999629       0.01520655       0.80572700 </v>
    <v>       0.79976631       0.96773741       0.81697693 </v>
    <v>       0.82433822       0.02486412       0.18387660 </v>
    <v>       0.20999629       0.69440741       0.48492785 </v>
    <v>       0.26582246       0.20646133       0.51571923 </v>
    <v>       0.79976631       0.68315748       0.53239700 </v>
    <v>       0.82433822       0.31625780       0.47527029 </v>
    <v>       0.17150965       0.46312338       0.68367380 </v>
    <v>       0.33197054       0.54391886       0.17984981 </v>
    <v>       0.69815911       0.48185489       0.20834732 </v>
    <v>       0.67152288       0.51608934       0.79025903 </v>
    <v>       0.47427827       0.17580630       0.68908866 </v>
    <v>       0.47427827       0.81104574       0.32432810 </v>
    <v>       0.53242146       0.18337555       0.31675885 </v>
    <v>       0.51517732       0.82166310       0.67847131 </v>
    <v>       0.49308367       0.49172974       0.50078850 </v>
    <v>       0.49308367       0.99934590       0.00840467 </v>
    <v>       0.00296016       0.50796420       0.99217021 </v>
    <v>       0.98301848       0.99746907       0.50266534 </v>
    <v>       0.11668017       0.88103824       0.61909616 </v>
    <v>       0.09332293       0.12643061       0.37370380 </v>
    <v>       0.86450132       0.87247976       0.38154910 </v>
    <v>       0.86450132       0.11858530       0.62765465 </v>
    <v>       0.87789356       0.63031515       0.11216823 </v>
    <v>       0.87789356       0.38796617       0.86981926 </v>
    <v>       0.13278024       0.62561201       0.87452240 </v>
    <v>       0.13766407       0.39233056       0.10780384 </v>
    <v>       0.61430867       0.11462647       0.87737540 </v>
    <v>       0.61952672       0.89071138       0.13894783 </v>
    <v>       0.37053807       0.12911193       0.12089460 </v>
    <v>       0.37923050       0.86326246       0.89307552 </v>
    <v>       0.61430867       0.62275901       0.38550793 </v>
    <v>       0.61952672       0.36118657       0.60942303 </v>
    <v>       0.37923050       0.60705888       0.63687195 </v>
    <v>       0.37053807       0.37923980       0.37102248 </v>
    <v>       0.73226784       0.74625954       0.75387487 </v>
    <v>       0.75053720       0.25232433       0.24781008 </v>
    <v>       0.24782463       0.75329698       0.25716601 </v>
    <v>       0.24782463       0.24296840       0.74683742 </v>
    <v>       0.99895447       0.99975949       0.97187798 </v>
    <v>       0.99895447       0.52825643       0.50037492 </v>
    <v>       0.45521837       0.01074797       0.48938644 </v>
    <v>       0.53107235       0.48962550       0.01050891 </v>
   </varray>
  </structure>
  <varray name="forces" >
   <v>       0.00007225       0.00044423      -0.00044423 </v>
   <v>      -0.00029688      -0.00023970       0.00023970 </v>
   <v>      -0.00015571      -0.00003269       0.00079235 </v>
   <v>      -0.00015571      -0.00079235       0.00003269 </v>
   <v>       0.00091897       0.00072482      -0.00042323 </v>
   <v>      -0.00047833       0.00020573       0.00052437 </v>
   <v>       0.00068249       0.00028215      -0.00032914 </v>
   <v>      -0.00195792       0.00050216      -0.00025705 </v>
   <v>      -0.00011379      -0.00006196       0.00051677 </v>
   <v>       0.00028743      -0.00031406       0.00069099 </v>
   <v>      -0.00023366      -0.00003603       0.00101054 </v>
   <v>       0.00211077       0.00012012      -0.00055752 </v>
   <v>       0.00028743      -0.00069099       0.00031406 </v>
   <v>      -0.00011379      -0.00051677       0.00006196 </v>
   <v>      -0.00023366      -0.00101054       0.00003603 </v>
   <v>       0.00211077       0.00055752      -0.00012012 </v>
   <v>      -0.00047833      -0.00052437      -0.00020573 </v>
   <v>       0.00091897       0.00042323      -0.00072482 </v>
   <v>       0.00068249       0.00032914      -0.00028215 </v>
   <v>      -0.00195792       0.00025705      -0.00050216 </v>
   <v>       0.00011968      -0.00014231      -0.00030758 </v>
   <v>       0.00011968       0.00030758       0.00014231 </v>
   <v>       0.00011476      -0.00001730       0.00001730 </v>
   <v>      -0.00029373       0.00100079      -0.00100079 </v>
   <v>      -0.00034029       0.00059213      -0.00023886 </v>
   <v>      -0.00034029       0.00023886      -0.00059213 </v>
   <v>      -0.00047204       0.00053521      -0.00053521 </v>
   <v>       0.00018236       0.00010087      -0.00010087 </v>
   <v>      -0.00010362      -0.00017811       0.00017811 </v>
   <v>      -0.00058922      -0.00029810       0.00029810 </v>
   <v>      -0.00015497      -0.00051853       0.00030834 </v>
   <v>      -0.00015497      -0.00030834       0.00051853 </v>
   <v>       0.00019873       0.00058076      -0.00095922 </v>
   <v>       0.00019873       0.00095922      -0.00058076 </v>
   <v>       0.00036757       0.00028739      -0.00028739 </v>
   <v>       0.00003754       0.00021081      -0.00021081 </v>
   <v>      -0.00047643       0.00024311       0.00030284 </v>
   <v>       0.00067045       0.00087165       0.00070496 </v>
   <v>      -0.00046258      -0.00003231       0.00005230 </v>
   <v>       0.00060663      -0.00021267       0.00089416 </v>
   <v>      -0.00047643      -0.00030284      -0.00024311 </v>
   <v>       0.00067045      -0.00070496      -0.00087165 </v>
   <v>       0.00060663      -0.00089416       0.00021267 </v>
   <v>      -0.00046258      -0.00005230       0.00003231 </v>
   <v>      -0.00046013       0.00018449      -0.00018449 </v>
   <v>       0.00019153       0.00024863      -0.00024863 </v>
   <v>      -0.00000728      -0.00016719       0.00040694 </v>
   <v>      -0.00000728      -0.00040694       0.00016719 </v>
   <v>      -0.00046282       0.00065595       0.00206810 </v>
   <v>      -0.00046282      -0.00206810      -0.00065595 </v>
   <v>       0.00082393      -0.00059727       0.00059727 </v>
   <v>      -0.00107702       0.00025730      -0.00025730 </v>
  </varray>
  <varray name="stress" >
   <v>      -3.12000241      -1.81076378       1.81076378 </v>
   <v>      -1.81076454       1.58681710       0.46526898 </v>
   <v>       1.81076454       0.46526898       1.58681710 </v>
  </varray>
  <energy>
   <i name="e_fr_energy">   -272.00571276 </i>
   <i name="e_wo_entrp">   -272.00571276 </i>
   <i name="e_0_energy">   -272.00571276 </i>
  </energy>
  <time name="totalsc">   50.51   52.20</time>
 </calculation>
 <calculation>
  <scstep>
   <time name="dav">    1.68    1.70</time>
   <time name="total">    2.25    2.30</time>
   <energy>
    <i name="alphaZ">    297.92070277 </i>
    <i name="ewald">  -8756.68427600 </i>
    <i name="hartreedc">  -2248.58536647 </i>
    <i name="XCdc">    537.69307599 </i>
    <i name="pawpsdc">   9830.24784158 </i>
    <i name="pawaedc">  -9974.32780346 </i>
    <i name="eentropy">     -0.00000000 </i>
    <i name="bandstr">  -2647.98907817 </i>
    <i name="atom">  12703.13999606 </i>
    <i name="e_fr_energy">   -258.58490768 </i>
    <i name="e_wo_entrp">   -258.58490768 </i>
    <i name="e_0_energy">   -258.58490768 </i>
   </energy>
  </scstep>
  <scstep>
   <time name="diag">    0.27    0.28</time>
   <time name="diis">    0.64    0.65</time>
   <time name="orth">    0.05    0.05</time>
   <time name="total">    1.41    1.42</time>
   <energy>
    <i name="alphaZ">    297.92070277 </i>
    <i name="ewald">  -8756.68427600 </i>
    <i name="hartreedc">  -2248.58753848 </i>
    <i name="XCdc">    537.69290470 </i>
    <i name="pawpsdc">   9830.22254640 </i>
    <i name="pawaedc">  -9974.30198475 </i>
    <i name="eentropy">     -0.00000000 </i>
    <i name="bandstr">  -2647.98725868 </i>
    <i name="atom">  12703.13999606 </i>
    <i name="e_fr_energy">   -258.58490798 </i>
    <i name="e_wo_entrp">   -258.58490798 </i>
    <i name="e_0_energy">   -258.58490798 </i>
   </energy>
  </scstep>
  <structure>
   <crystal>
    <varray name="basis" >
     <v>       9.69468544       0.00000000       0.00000000 </v>
     <v>       0.00000000       9.69468544       0.00000000 </v>
     <v>       0.00000000       0.00000000       9.69468544 </v>
    </varray>
    <i name="volume">    911.17368197 </i>
    <varray name="rec_basis" >
     <v>       0.10314930       0.00000000       0.00000000 </v>
     <v>       0.00000000       0.10314930       0.00000000 </v>
     <v>       0.00000000       0.00000000       0.10314930 </v>
    </varray>
   </crystal>
   <varray name="positions" >
    <v>       0.97757663       0.27310662       0.22702778 </v>
    <v>       0.96669497       0.74427769       0.75585672 </v>
    <v>       0.01827757       0.20075610       0.81103051 </v>
    <v>       0.01827757       0.68910390       0.29937830 </v>
    <v>       0.33197237       0.32028604       0.95621470 </v>
    <v>       0.17150870       0.81646101       0.03701207 </v>
    <v>       0.69816047       0.29178765       0.01827886 </v>
    <v>       0.67151898       0.70987638       0.98404455 </v>
    <v>       0.26582224       0.98441505       0.29367411 </v>
    <v>       0.20999686       0.01520593       0.80572838 </v>
    <v>       0.79976585       0.96773734       0.81697894 </v>
    <v>       0.82434242       0.02486436       0.18387549 </v>
    <v>       0.20999686       0.69440603       0.48492848 </v>
    <v>       0.26582224       0.20646030       0.51571935 </v>
    <v>       0.79976585       0.68315547       0.53239707 </v>
    <v>       0.82434242       0.31625891       0.47527005 </v>
    <v>       0.17150870       0.46312234       0.68367339 </v>
    <v>       0.33197237       0.54391971       0.17984837 </v>
    <v>       0.69816047       0.48185555       0.20834676 </v>
    <v>       0.67151898       0.51608985       0.79025803 </v>
    <v>       0.47427851       0.17580602       0.68908805 </v>
    <v>       0.47427851       0.81104636       0.32432839 </v>
    <v>       0.53242169       0.18337552       0.31675889 </v>
    <v>       0.51517674       0.82166509       0.67846932 </v>
    <v>       0.49308299       0.49173091       0.50078803 </v>
    <v>       0.49308299       0.99934638       0.00840349 </v>
    <v>       0.00295922       0.50796526       0.99216915 </v>
    <v>       0.98301884       0.99746927       0.50266514 </v>
    <v>       0.11667996       0.88103789       0.61909652 </v>
    <v>       0.09332175       0.12643001       0.37370439 </v>
    <v>       0.86450101       0.87247872       0.38154972 </v>
    <v>       0.86450101       0.11858469       0.62765568 </v>
    <v>       0.87789396       0.63031631       0.11216632 </v>
    <v>       0.87789396       0.38796808       0.86981810 </v>
    <v>       0.13278097       0.62561258       0.87452183 </v>
    <v>       0.13766414       0.39233098       0.10780342 </v>
    <v>       0.61430772       0.11462696       0.87737600 </v>
    <v>       0.61952805       0.89071311       0.13894924 </v>
    <v>       0.37053715       0.12911186       0.12089471 </v>
    <v>       0.37923171       0.86326204       0.89307730 </v>
    <v>       0.61430772       0.62275841       0.38550745 </v>
    <v>       0.61952805       0.36118517       0.60942129 </v>
    <v>       0.37923171       0.60705710       0.63687237 </v>
    <v>       0.37053715       0.37923970       0.37102254 </v>
    <v>       0.73226692       0.74625991       0.75387450 </v>
    <v>       0.75053758       0.25232482       0.24780958 </v>
    <v>       0.24782461       0.75329665       0.25716682 </v>
    <v>       0.24782461       0.24296759       0.74683776 </v>
    <v>       0.99895355       0.99976079       0.97188210 </v>
    <v>       0.99895355       0.52825231       0.50037362 </v>
    <v>       0.45522001       0.01074678       0.48938763 </v>
    <v>       0.53107021       0.48962601       0.01050839 </v>
   </varray>
  </structure>
  <varray name="forces" >
   <v>       0.00004432       0.00019314      -0.00019314 </v>
   <v>      -0.00016788      -0.00015177       0.00015177 </v>
   <v>      -0.00010946      -0.00004430       0.00050644 </v>
   <v>      -0.00010946      -0.00050644       0.00004430 </v>
   <v>       0.00052441       0.00039758      -0.00023701 </v>
   <v>      -0.00030949       0.00008481       0.00038623 </v>
   <v>       0.00039986       0.00014352      -0.00015008 </v>
   <v>      -0.00119576       0.00029353      -0.00009368 </v>
   <v>      -0.00007330      -0.00009317       0.00035378 </v>
   <v>       0.00014434      -0.00020700       0.00039768 </v>
   <v>      -0.00013470      -0.00004248       0.00063565 </v>
   <v>       0.00125204       0.00002890      -0.00031063 </v>
   <v>       0.00014434      -0.00039768       0.00020700 </v>
   <v>      -0.00007330      -0.00035378       0.00009317 </v>
   <v>      -0.00013470      -0.00063565       0.00004248 </v>
   <v>       0.00125204       0.00031063      -0.00002890 </v>
   <v>      -0.00030949      -0.00038623      -0.00008481 </v>
   <v>       0.00052441       0.00023701      -0.00039758 </v>
   <v>       0.00039986       0.00015008      -0.00014352 </v>
   <v>      -0.00119576       0.00009368      -0.00029353 </v>
   <v>       0.00007189      -0.00008501      -0.00016734 </v>
   <v>       0.00007189       0.00016734       0.00008501 </v>
   <v>       0.00015020      -0.00003385       0.00003385 </v>
   <v>      -0.00013435       0.00059006      -0.00059006 </v>
   <v>      -0.00010596      -0.00008796      -0.00018148 </v>
   <v>      -0.00010596       0.00018148       0.00008796 </v>
   <v>      -0.00013031       0.00033225      -0.00033225 </v>
   <v>      -0.00002255      -0.00022113       0.00022113 </v>
   <v>      -0.00007248      -0.00019912       0.00019912 </v>
   <v>      -0.00006301      -0.00009142       0.00009142 </v>
   <v>       0.00004337      -0.00049578       0.00021207 </v>
   <v>       0.00004337      -0.00021207       0.00049578 </v>
   <v>      -0.00008973       0.00036454      -0.00035947 </v>
   <v>      -0.00008973       0.00035947      -0.00036454 </v>
   <v>       0.00008761       0.00026784      -0.00026784 </v>
   <v>      -0.00025240       0.00009224      -0.00009224 </v>
   <v>      -0.00012603       0.00028491       0.00007861 </v>
   <v>       0.00026307       0.00053733       0.00026283 </v>
   <v>      -0.00030778      -0.00003540       0.00013237 </v>
   <v>       0.00011601      -0.00024520       0.00033070 </v>
   <v>      -0.00012603      -0.00007861      -0.00028491 </v>
   <v>       0.00026307      -0.00026283      -0.00053733 </v>
   <v>       0.00011601      -0.00033070       0.00024520 </v>
   <v>      -0.00030778      -0.00013237       0.00003540 </v>
   <v>      -0.00005669       0.00004559      -0.00004559 </v>
   <v>       0.00014882       0.00028993      -0.00028993 </v>
   <v>      -0.00007211      -0.00000415       0.00044549 </v>
   <v>      -0.00007211      -0.00044549       0.00000415 </v>
   <v>      -0.00019478       0.00038460      -0.00000980 </v>
   <v>      -0.00019478       0.00000980      -0.00038460 </v>
   <v>      -0.00040620       0.00018044      -0.00018044 </v>
   <v>       0.00068312      -0.00024110       0.00024110 </v>
  </varray>
  <varray name="stress" >
   <v>      -3.12733322      -1.80937968       1.80937968 </v>
   <v>      -1.80938044       1.57952172       0.46598427 </v>
   <v>       1.80938044       0.46598427       1.57952172 </v>
  </varray>
  <energy>
   <i name="e_fr_energy">   -272.00571421 </i>
   <i name="e_wo_entrp">   -272.00571421 </i>
   <i name="e_0_energy">   -272.00571421 </i>
  </energy>
  <time name="totalsc">    6.34    6.49</time>
 </calculation>
 <calculation>
  <scstep>
   <time name="dav">    1.62    1.63</time>
   <time name="total">    2.19    2.23</time>
   <energy>
    <i name="alphaZ">    297.92070277 </i>
    <i name="ewald">  -8756.69109045 </i>
    <i name="hartreedc">  -2248.58231921 </i>
    <i name="XCdc">    537.69271551 </i>
    <i name="pawpsdc">   9830.20286635 </i>
    <i name="pawaedc">  -9974.28185046 </i>
    <i name="eentropy">     -0.00000000 </i>
    <i name="bandstr">  -2647.98592930 </i>
    <i name="atom">  12703.13999606 </i>
    <i name="e_fr_energy">   -258.58490873 </i>
    <i name="e_wo_entrp">   -258.58490873 </i>
    <i name="e_0_energy">   -258.58490873 </i>
   </energy>
  </scstep>
  <scstep>
   <time name="diag">    0.27    0.28</time>
   <time name="diis">    0.61    0.61</time>
   <time name="orth">    0.05    0.05</time>
   <time name="total">    1.38    1.39</time>
   <energy>
    <i name="alphaZ">    297.92070277 </i>
    <i name="ewald">  -8756.69109045 </i>
    <i name="hartreedc">  -2248.58211197 </i>
    <i name="XCdc">    537.69259791 </i>
    <i name="pawpsdc">   9830.18731584 </i>
    <i name="pawaedc">  -9974.26608843 </i>
    <i name="eentropy">     -0.00000000 </i>
    <i name="bandstr">  -2647.98623056 </i>
    <i name="atom">  12703.13999606 </i>
    <i name="e_fr_energy">   -258.58490883 </i>
    <i name="e_wo_entrp">   -258.58490883 </i>
    <i name="e_0_energy">   -258.58490883 </i>
   </energy>
  </scstep>
  <structure>
   <crystal>
    <varray name="basis" >
     <v>       9.69468544       0.00000000       0.00000000 </v>
     <v>       0.00000000       9.69468544       0.00000000 </v>
     <v>       0.00000000       0.00000000       9.69468544 </v>
    </varray>
    <i name="volume">    911.17368197 </i>
    <varray name="rec_basis" >
     <v>       0.10314930       0.00000000       0.00000000 </v>
     <v>       0.00000000       0.10314930       0.00000000 </v>
     <v>       0.00000000       0.00000000       0.10314930 </v>
    </varray>
   </crystal>
   <varray name="positions" >
    <v>       0.97757673       0.27310726       0.22702715 </v>
    <v>       0.96669455       0.74427735       0.75585706 </v>
    <v>       0.01827734       0.20075606       0.81103164 </v>
    <v>       0.01827734       0.68910277       0.29937835 </v>
    <v>       0.33197368       0.32028707       0.95621410 </v>
    <v>       0.17150802       0.81646131       0.03701282 </v>
    <v>       0.69816145       0.29178805       0.01827839 </v>
    <v>       0.67151619       0.70987710       0.98404419 </v>
    <v>       0.26582207       0.98441496       0.29367484 </v>
    <v>       0.20999727       0.01520548       0.80572936 </v>
    <v>       0.79976552       0.96773729       0.81698038 </v>
    <v>       0.82434543       0.02486453       0.18387470 </v>
    <v>       0.20999727       0.69440505       0.48492892 </v>
    <v>       0.26582207       0.20645956       0.51571944 </v>
    <v>       0.79976552       0.68315403       0.53239712 </v>
    <v>       0.82434543       0.31625971       0.47526988 </v>
    <v>       0.17150802       0.46312159       0.68367310 </v>
    <v>       0.33197368       0.54392031       0.17984733 </v>
    <v>       0.69816145       0.48185602       0.20834636 </v>
    <v>       0.67151619       0.51609022       0.79025731 </v>
    <v>       0.47427868       0.17580582       0.68908761 </v>
    <v>       0.47427868       0.81104679       0.32432859 </v>
    <v>       0.53242185       0.18337550       0.31675891 </v>
    <v>       0.51517632       0.82166651       0.67846789 </v>
    <v>       0.49308251       0.49173176       0.50078769 </v>
    <v>       0.49308251       0.99934672       0.00840265 </v>
    <v>       0.00295855       0.50796602       0.99216838 </v>
    <v>       0.98301910       0.99746941       0.50266499 </v>
    <v>       0.11667982       0.88103763       0.61909677 </v>
    <v>       0.09332091       0.12642959       0.37370482 </v>
    <v>       0.86450079       0.87247799       0.38155016 </v>
    <v>       0.86450079       0.11858425       0.62765642 </v>
    <v>       0.87789424       0.63031713       0.11216496 </v>
    <v>       0.87789424       0.38796945       0.86981727 </v>
    <v>       0.13278150       0.62561299       0.87452142 </v>
    <v>       0.13766420       0.39233128       0.10780312 </v>
    <v>       0.61430704       0.11462730       0.87737643 </v>
    <v>       0.61952901       0.89071436       0.13895024 </v>
    <v>       0.37053649       0.12911182       0.12089478 </v>
    <v>       0.37923257       0.86326173       0.89307858 </v>
    <v>       0.61430704       0.62275798       0.38550710 </v>
    <v>       0.61952901       0.36118416       0.60942005 </v>
    <v>       0.37923257       0.60705583       0.63687267 </v>
    <v>       0.37053649       0.37923962       0.37102259 </v>
    <v>       0.73226627       0.74626017       0.75387424 </v>
    <v>       0.75053785       0.25232518       0.24780923 </v>
    <v>       0.24782460       0.75329641       0.25716740 </v>
    <v>       0.24782460       0.24296701       0.74683800 </v>
    <v>       0.99895289       0.99976173       0.97188504 </v>
    <v>       0.99895289       0.52824936       0.50037268 </v>
    <v>       0.45522118       0.01074593       0.48938848 </v>
    <v>       0.53106867       0.48962638       0.01050803 </v>
   </varray>
  </structure>
  <varray name="forces" >
   <v>       0.00005365       0.00025410      -0.00025410 </v>
   <v>      -0.00017983      -0.00014647       0.00014647 </v>
   <v>      -0.00012461      -0.00002319       0.00058531 </v>
   <v>      -0.00012461      -0.00058531       0.00002319 </v>
   <v>       0.00066013       0.00052883      -0.00028343 </v>
   <v>      -0.00036070       0.00010013       0.00044640 </v>
   <v>       0.00046385       0.00015339      -0.00018547 </v>
   <v>      -0.00154699       0.00039983      -0.00013742 </v>
   <v>      -0.00008733      -0.00010174       0.00035449 </v>
   <v>       0.00017824      -0.00023121       0.00045645 </v>
   <v>      -0.00018472      -0.00003874       0.00076873 </v>
   <v>       0.00162298       0.00003802      -0.00041617 </v>
   <v>       0.00017824      -0.00045645       0.00023121 </v>
   <v>      -0.00008733      -0.00035449       0.00010174 </v>
   <v>      -0.00018472      -0.00076873       0.00003874 </v>
   <v>       0.00162298       0.00041617      -0.00003802 </v>
   <v>      -0.00036070      -0.00044640      -0.00010013 </v>
   <v>       0.00066013       0.00028343      -0.00052883 </v>
   <v>       0.00046385       0.00018547      -0.00015339 </v>
   <v>      -0.00154699       0.00013742      -0.00039983 </v>
   <v>       0.00009883      -0.00008655      -0.00020150 </v>
   <v>       0.00009883       0.00020150       0.00008655 </v>
   <v>       0.00014842      -0.00002308       0.00002308 </v>
   <v>      -0.00017335       0.00077733      -0.00077733 </v>
   <v>       0.00007974      -0.00052426      -0.00015574 </v>
   <v>       0.00007974       0.00015574       0.00052426 </v>
   <v>       0.00016323       0.00022268      -0.00022268 </v>
   <v>      -0.00021031      -0.00034879       0.00034879 </v>
   <v>      -0.00006459      -0.00019274       0.00019274 </v>
   <v>      -0.00009764      -0.00001190       0.00001190 </v>
   <v>       0.00005376      -0.00041665       0.00024819 </v>
   <v>       0.00005376      -0.00024819       0.00041665 </v>
   <v>      -0.00011298       0.00052166      -0.00040732 </v>
   <v>      -0.00011298       0.00040732      -0.00052166 </v>
   <v>       0.00009937       0.00024478      -0.00024478 </v>
   <v>      -0.00029794       0.00019018      -0.00019018 </v>
   <v>      -0.00014642       0.00036105       0.00001086 </v>
   <v>       0.00022515       0.00070170       0.00017427 </v>
   <v>      -0.00034977      -0.00004890       0.00005610 </v>
   <v>       0.00008323      -0.00041023       0.00027914 </v>
   <v>      -0.00014642      -0.00001086      -0.00036105 </v>
   <v>       0.00022515      -0.00017427      -0.00070170 </v>
   <v>       0.00008323      -0.00027914       0.00041023 </v>
   <v>      -0.00034977      -0.00005610       0.00004890 </v>
   <v>      -0.00018594       0.00008557      -0.00008557 </v>
   <v>       0.00020886       0.00028909      -0.00028909 </v>
   <v>      -0.00007500      -0.00004059       0.00045035 </v>
   <v>      -0.00007500      -0.00045035       0.00004059 </v>
   <v>      -0.00029841       0.00053012       0.00058515 </v>
   <v>      -0.00029841      -0.00058515      -0.00053012 </v>
   <v>      -0.00013390       0.00000257      -0.00000257 </v>
   <v>       0.00031200      -0.00012760       0.00012760 </v>
  </varray>
  <varray name="stress" >
   <v>      -3.13185350      -1.80838084       1.80838084 </v>
   <v>      -1.80838177       1.57531600       0.46639252 </v>
   <v>       1.80838177       0.46639252       1.57531600 </v>
  </varray>
  <energy>
   <i name="e_fr_energy">   -272.00571490 </i>
   <i name="e_wo_entrp">   -272.00571490 </i>
   <i name="e_0_energy">   -272.00571490 </i>
  </energy>
  <time name="totalsc">    6.25    6.39</time>
 </calculation>
 <calculation>
  <scstep>
   <time name="dav">    1.73    1.75</time>
   <time name="total">    2.29    2.32</time>
   <energy>
    <i name="alphaZ">    297.92070277 </i>
    <i name="ewald">  -8756.70471760 </i>
    <i name="hartreedc">  -2248.56959966 </i>
    <i name="XCdc">    537.69246162 </i>
    <i name="pawpsdc">   9830.17878181 </i>
    <i name="pawaedc">  -9974.25747403 </i>
    <i name="eentropy">     -0.00000000 </i>
    <i name="bandstr">  -2647.98506082 </i>
    <i name="atom">  12703.13999606 </i>
    <i name="e_fr_energy">   -258.58490985 </i>
    <i name="e_wo_entrp">   -258.58490985 </i>
    <i name="e_0_energy">   -258.58490985 </i>
   </energy>
  </scstep>
  <scstep>
   <time name="diag">    0.27    0.28</time>
   <time name="diis">    0.69    0.69</time>
   <time name="orth">    0.05    0.05</time>
   <time name="total">    1.46    1.47</time>
   <energy>
    <i name="alphaZ">    297.92070277 </i>
    <i name="ewald">  -8756.70471760 </i>
    <i name="hartreedc">  -2248.56923188 </i>
    <i name="XCdc">    537.69240605 </i>
    <i name="pawpsdc">   9830.16821592 </i>
    <i name="pawaedc">  -9974.24682467 </i>
    <i name="eentropy">     -0.00000000 </i>
    <i name="bandstr">  -2647.98545690 </i>
    <i name="atom">  12703.13999606 </i>
    <i name="e_fr_energy">   -258.58491025 </i>
    <i name="e_wo_entrp">   -258.58491025 </i>
    <i name="e_0_energy">   -258.58491025 </i>
   </energy>
  </scstep>
  <structure>
   <crystal>
    <varray name="basis" >
     <v>       9.69468544       0.00000000       0.00000000 </v>
     <v>       0.00000000       9.69468544       0.00000000 </v>
     <v>       0.00000000       0.00000000       9.69468544 </v>
    </varray>
    <i name="volume">    911.17368197 </i>
    <varray name="rec_basis" >
     <v>       0.10314930       0.00000000       0.00000000 </v>
     <v>       0.00000000       0.10314930       0.00000000 </v>
     <v>       0.00000000       0.00000000       0.10314930 </v>
    </varray>
   </crystal>
   <varray name="positions" >
    <v>       0.97757694       0.27310852       0.22702588 </v>
    <v>       0.96669370       0.74427666       0.75585774 </v>
    <v>       0.01827690       0.20075596       0.81103390 </v>
    <v>       0.01827690       0.68910051       0.29937844 </v>
    <v>       0.33197630       0.32028914       0.95621289 </v>
    <v>       0.17150666       0.81646189       0.03701431 </v>
    <v>       0.69816339       0.29178885       0.01827745 </v>
    <v>       0.67151061       0.70987853       0.98404345 </v>
    <v>       0.26582175       0.98441479       0.29367632 </v>
    <v>       0.20999809       0.01520459       0.80573133 </v>
    <v>       0.79976485       0.96773718       0.81698326 </v>
    <v>       0.82435145       0.02486487       0.18387311 </v>
    <v>       0.20999809       0.69440308       0.48492982 </v>
    <v>       0.26582175       0.20645809       0.51571962 </v>
    <v>       0.79976485       0.68315115       0.53239722 </v>
    <v>       0.82435145       0.31626130       0.47526953 </v>
    <v>       0.17150666       0.46312010       0.68367251 </v>
    <v>       0.33197630       0.54392152       0.17984527 </v>
    <v>       0.69816339       0.48185696       0.20834555 </v>
    <v>       0.67151061       0.51609095       0.79025588 </v>
    <v>       0.47427902       0.17580541       0.68908673 </v>
    <v>       0.47427902       0.81104767       0.32432899 </v>
    <v>       0.53242218       0.18337545       0.31675896 </v>
    <v>       0.51517548       0.82166937       0.67846504 </v>
    <v>       0.49308154       0.49173345       0.50078701 </v>
    <v>       0.49308154       0.99934740       0.00840096 </v>
    <v>       0.00295720       0.50796755       0.99216686 </v>
    <v>       0.98301962       0.99746970       0.50266471 </v>
    <v>       0.11667952       0.88103713       0.61909728 </v>
    <v>       0.09331923       0.12642874       0.37370567 </v>
    <v>       0.86450035       0.87247651       0.38155103 </v>
    <v>       0.86450035       0.11858337       0.62765790 </v>
    <v>       0.87789481       0.63031879       0.11216222 </v>
    <v>       0.87789481       0.38797218       0.86981562 </v>
    <v>       0.13278255       0.62561381       0.87452060 </v>
    <v>       0.13766431       0.39233188       0.10780252 </v>
    <v>       0.61430568       0.11462800       0.87737729 </v>
    <v>       0.61953092       0.89071684       0.13895225 </v>
    <v>       0.37053517       0.12911172       0.12089493 </v>
    <v>       0.37923430       0.86326113       0.89308112 </v>
    <v>       0.61430568       0.62275711       0.38550641 </v>
    <v>       0.61953092       0.36118215       0.60941757 </v>
    <v>       0.37923430       0.60705328       0.63687328 </v>
    <v>       0.37053517       0.37923948       0.37102268 </v>
    <v>       0.73226496       0.74626070       0.75387371 </v>
    <v>       0.75053840       0.25232589       0.24780852 </v>
    <v>       0.24782458       0.75329593       0.25716856 </v>
    <v>       0.24782458       0.24296585       0.74683847 </v>
    <v>       0.99895157       0.99976360       0.97189094 </v>
    <v>       0.99895157       0.52824347       0.50037081 </v>
    <v>       0.45522353       0.01074423       0.48939018 </v>
    <v>       0.53106560       0.48962711       0.01050729 </v>
   </varray>
  </structure>
  <varray name="forces" >
   <v>       0.00004932       0.00014062      -0.00014062 </v>
   <v>      -0.00014759      -0.00009056       0.00009056 </v>
   <v>      -0.00007794      -0.00001383       0.00039242 </v>
   <v>      -0.00007794      -0.00039242       0.00001383 </v>
   <v>       0.00032580       0.00026911      -0.00011360 </v>
   <v>      -0.00024645       0.00003059       0.00036270 </v>
   <v>       0.00030039       0.00005856      -0.00007458 </v>
   <v>      -0.00094351       0.00026985      -0.00002493 </v>
   <v>      -0.00004419      -0.00011303       0.00020991 </v>
   <v>       0.00009967      -0.00015946       0.00027694 </v>
   <v>      -0.00010844      -0.00003898       0.00047487 </v>
   <v>       0.00093428      -0.00002689      -0.00021527 </v>
   <v>       0.00009967      -0.00027694       0.00015946 </v>
   <v>      -0.00004419      -0.00020991       0.00011303 </v>
   <v>      -0.00010844      -0.00047487       0.00003898 </v>
   <v>       0.00093428       0.00021527       0.00002689 </v>
   <v>      -0.00024645      -0.00036270      -0.00003059 </v>
   <v>       0.00032580       0.00011360      -0.00026911 </v>
   <v>       0.00030039       0.00007458      -0.00005856 </v>
   <v>      -0.00094351       0.00002493      -0.00026985 </v>
   <v>       0.00009554      -0.00001500      -0.00013066 </v>
   <v>       0.00009554       0.00013066       0.00001500 </v>
   <v>       0.00013899      -0.00001003       0.00001003 </v>
   <v>      -0.00004336       0.00045997      -0.00045997 </v>
   <v>       0.00042685      -0.00141234      -0.00011742 </v>
   <v>       0.00042685       0.00011742       0.00141234 </v>
   <v>       0.00072119       0.00001729      -0.00001729 </v>
   <v>      -0.00058825      -0.00066053       0.00066053 </v>
   <v>      -0.00000107      -0.00015364       0.00015364 </v>
   <v>       0.00023631       0.00027024      -0.00027024 </v>
   <v>       0.00018000      -0.00016603       0.00020306 </v>
   <v>       0.00018000      -0.00020306       0.00016603 </v>
   <v>      -0.00031797       0.00049787       0.00002559 </v>
   <v>      -0.00031797      -0.00002559      -0.00049787 </v>
   <v>      -0.00001748       0.00013716      -0.00013716 </v>
   <v>      -0.00048721       0.00029204      -0.00029204 </v>
   <v>       0.00012496       0.00041686      -0.00027622 </v>
   <v>      -0.00020222       0.00061473      -0.00031444 </v>
   <v>      -0.00019630      -0.00007564      -0.00001410 </v>
   <v>      -0.00029194      -0.00063849      -0.00020269 </v>
   <v>       0.00012496       0.00027622      -0.00041686 </v>
   <v>      -0.00020222       0.00031444      -0.00061473 </v>
   <v>      -0.00029194       0.00020269       0.00063849 </v>
   <v>      -0.00019630       0.00001410       0.00007564 </v>
   <v>      -0.00006757       0.00003291      -0.00003291 </v>
   <v>       0.00019631       0.00021893      -0.00021893 </v>
   <v>      -0.00006787       0.00001180       0.00031901 </v>
   <v>      -0.00006787      -0.00031901      -0.00001180 </v>
   <v>      -0.00011079       0.00028112      -0.00033610 </v>
   <v>      -0.00011079       0.00033610      -0.00028112 </v>
   <v>      -0.00046706       0.00021427      -0.00021427 </v>
   <v>       0.00071772      -0.00021497       0.00021497 </v>
  </varray>
  <varray name="stress" >
   <v>      -3.13371211      -1.80616843       1.80616843 </v>
   <v>      -1.80616923       1.57376801       0.46732786 </v>
   <v>       1.80616923       0.46732786       1.57376801 </v>
  </varray>
  <energy>
   <i name="e_fr_energy">   -272.00571601 </i>
   <i name="e_wo_entrp">   -272.00571601 </i>
   <i name="e_0_energy">   -272.00571601 </i>
  </energy>
  <time name="totalsc">    6.43    6.51</time>
 </calculation>
 <calculation>
  <scstep>
   <time name="dav">    1.74    1.76</time>
   <time name="total">    2.31    2.35</time>
   <energy>
    <i name="alphaZ">    297.92070277 </i>
    <i name="ewald">  -8756.71100142 </i>
    <i name="hartreedc">  -2248.56328098 </i>
    <i name="XCdc">    537.69233946 </i>
    <i name="pawpsdc">   9830.16193864 </i>
    <i name="pawaedc">  -9974.24051166 </i>
    <i name="eentropy">     -0.00000000 </i>
    <i name="bandstr">  -2647.98509376 </i>
    <i name="atom">  12703.13999606 </i>
    <i name="e_fr_energy">   -258.58491090 </i>
    <i name="e_wo_entrp">   -258.58491090 </i>
    <i name="e_0_energy">   -258.58491090 </i>
   </energy>
  </scstep>
  <scstep>
   <time name="diag">    0.27    0.27</time>
   <time name="diis">    0.79    0.84</time>
   <time name="orth">    0.05    0.05</time>
   <time name="total">    1.56    1.61</time>
   <energy>
    <i name="alphaZ">    297.92070277 </i>
    <i name="ewald">  -8756.71100142 </i>
    <i name="hartreedc">  -2248.56291656 </i>
    <i name="XCdc">    537.69231607 </i>
    <i name="pawpsdc">   9830.15626758 </i>
    <i name="pawaedc">  -9974.23481660 </i>
    <i name="eentropy">     -0.00000000 </i>
    <i name="bandstr">  -2647.98545888 </i>
    <i name="atom">  12703.13999606 </i>
    <i name="e_fr_energy">   -258.58491099 </i>
    <i name="e_wo_entrp">   -258.58491099 </i>
    <i name="e_0_energy">   -258.58491099 </i>
   </energy>
  </scstep>
  <structure>
   <crystal>
    <varray name="basis" >
     <v>       9.69468544       0.00000000       0.00000000 </v>
     <v>       0.00000000       9.69468544       0.00000000 </v>
     <v>       0.00000000       0.00000000       9.69468544 </v>
    </varray>
    <i name="volume">    911.17368197 </i>
    <varray name="rec_basis" >
     <v>       0.10314930       0.00000000       0.00000000 </v>
     <v>       0.00000000       0.10314930       0.00000000 </v>
     <v>       0.00000000       0.00000000       0.10314930 </v>
    </varray>
   </crystal>
   <varray name="positions" >
    <v>       0.97757703       0.27310911       0.22702530 </v>
    <v>       0.96669331       0.74427635       0.75585806 </v>
    <v>       0.01827670       0.20075592       0.81103494 </v>
    <v>       0.01827670       0.68909947       0.29937848 </v>
    <v>       0.33197751       0.32029009       0.95621233 </v>
    <v>       0.17150603       0.81646216       0.03701500 </v>
    <v>       0.69816429       0.29178922       0.01827702 </v>
    <v>       0.67150804       0.70987919       0.98404311 </v>
    <v>       0.26582160       0.98441471       0.29367700 </v>
    <v>       0.20999847       0.01520417       0.80573224 </v>
    <v>       0.79976454       0.96773714       0.81698459 </v>
    <v>       0.82435422       0.02486503       0.18387238 </v>
    <v>       0.20999847       0.69440217       0.48493023 </v>
    <v>       0.26582160       0.20645741       0.51571970 </v>
    <v>       0.79976454       0.68314982       0.53239727 </v>
    <v>       0.82435422       0.31626203       0.47526938 </v>
    <v>       0.17150603       0.46311941       0.68367224 </v>
    <v>       0.33197751       0.54392207       0.17984432 </v>
    <v>       0.69816429       0.48185739       0.20834518 </v>
    <v>       0.67150804       0.51609129       0.79025522 </v>
    <v>       0.47427918       0.17580522       0.68908633 </v>
    <v>       0.47427918       0.81104808       0.32432918 </v>
    <v>       0.53242233       0.18337542       0.31675898 </v>
    <v>       0.51517510       0.82167068       0.67846372 </v>
    <v>       0.49308109       0.49173422       0.50078669 </v>
    <v>       0.49308109       0.99934771       0.00840018 </v>
    <v>       0.00295658       0.50796825       0.99216615 </v>
    <v>       0.98301986       0.99746983       0.50266457 </v>
    <v>       0.11667938       0.88103689       0.61909751 </v>
    <v>       0.09331846       0.12642835       0.37370606 </v>
    <v>       0.86450014       0.87247583       0.38155144 </v>
    <v>       0.86450014       0.11858297       0.62765858 </v>
    <v>       0.87789507       0.63031955       0.11216096 </v>
    <v>       0.87789507       0.38797345       0.86981485 </v>
    <v>       0.13278303       0.62561418       0.87452022 </v>
    <v>       0.13766435       0.39233216       0.10780224 </v>
    <v>       0.61430506       0.11462832       0.87737769 </v>
    <v>       0.61953180       0.89071799       0.13895318 </v>
    <v>       0.37053456       0.12911168       0.12089500 </v>
    <v>       0.37923510       0.86326085       0.89308230 </v>
    <v>       0.61430506       0.62275671       0.38550609 </v>
    <v>       0.61953180       0.36118123       0.60941642 </v>
    <v>       0.37923510       0.60705211       0.63687356 </v>
    <v>       0.37053456       0.37923941       0.37102272 </v>
    <v>       0.73226435       0.74626094       0.75387347 </v>
    <v>       0.75053865       0.25232621       0.24780819 </v>
    <v>       0.24782457       0.75329571       0.25716909 </v>
    <v>       0.24782457       0.24296531       0.74683869 </v>
    <v>       0.99895096       0.99976446       0.97189366 </v>
    <v>       0.99895096       0.52824075       0.50036995 </v>
    <v>       0.45522461       0.01074344       0.48939097 </v>
    <v>       0.53106418       0.48962745       0.01050695 </v>
   </varray>
  </structure>
  <varray name="forces" >
   <v>       0.00006788       0.00022102      -0.00022102 </v>
   <v>      -0.00020636      -0.00010845       0.00010845 </v>
   <v>      -0.00011825      -0.00000345       0.00063650 </v>
   <v>      -0.00011825      -0.00063650       0.00000345 </v>
   <v>       0.00061499       0.00052221      -0.00025725 </v>
   <v>      -0.00040921       0.00011101       0.00052208 </v>
   <v>       0.00051355       0.00016342      -0.00019782 </v>
   <v>      -0.00159671       0.00046169      -0.00012541 </v>
   <v>      -0.00007019      -0.00011283       0.00027541 </v>
   <v>       0.00019167      -0.00023587       0.00047508 </v>
   <v>      -0.00019738      -0.00003378       0.00077551 </v>
   <v>       0.00164344       0.00003117      -0.00043065 </v>
   <v>       0.00019167      -0.00047508       0.00023587 </v>
   <v>      -0.00007019      -0.00027541       0.00011283 </v>
   <v>      -0.00019738      -0.00077551       0.00003378 </v>
   <v>       0.00164344       0.00043065      -0.00003117 </v>
   <v>      -0.00040921      -0.00052208      -0.00011101 </v>
   <v>       0.00061499       0.00025725      -0.00052221 </v>
   <v>       0.00051355       0.00019782      -0.00016342 </v>
   <v>      -0.00159671       0.00012541      -0.00046169 </v>
   <v>       0.00012505      -0.00001512      -0.00021019 </v>
[...]
       <r>     7.8532     8.8750   143.5953 </r>
       <r>     8.0460    14.4781   146.3863 </r>
       <r>     8.2388    14.9478   149.2679 </r>
       <r>     8.4315    15.1508   152.1915 </r>
       <r>     8.6243    14.0471   154.8999 </r>
       <r>     8.8171    17.5479   158.2828 </r>
       <r>     9.0099    16.0999   161.3872 </r>
       <r>     9.2027    20.5334   165.3507 </r>
       <r>     9.3954    17.8639   168.7973 </r>
       <r>     9.5882    18.7452   172.4112 </r>
       <r>     9.7810    14.6398   175.2335 </r>
       <r>     9.9738     3.9755   176.0000 </r>
       <r>    10.1665     0.0000   176.0000 </r>
       <r>    10.3593     0.0000   176.0000 </r>
       <r>    10.5521     0.0000   176.0000 </r>
       <r>    10.7449     0.0000   176.0000 </r>
       <r>    10.9376     0.0000   176.0000 </r>
       <r>    11.1304     0.0000   176.0000 </r>
       <r>    11.3232     0.0000   176.0000 </r>
       <r>    11.5160     0.0000   176.0000 </r>
       <r>    11.7088     0.0000   176.0000 </r>
       <r>    11.9015     0.0000   176.0000 </r>
       <r>    12.0943     0.0000   176.0000 </r>
       <r>    12.2871     0.0000   176.0000 </r>
       <r>    12.4799     0.0000   176.0000 </r>
      </set>
      <set comment="spin 2">
       <r>   -45.3534     0.0000     0.0000 </r>
       <r>   -45.1606     0.0000     0.0000 </r>
       <r>   -44.9678     0.0000     0.0000 </r>
       <r>   -44.7751     0.0000     0.0000 </r>
       <r>   -44.5823     0.0000     0.0000 </r>
       <r>   -44.3895     0.0000     0.0000 </r>
       <r>   -44.1967     0.0000     0.0000 </r>
       <r>   -44.0040     0.0000     0.0000 </r>
       <r>   -43.8112     0.0000     0.0000 </r>
       <r>   -43.6184     0.0000     0.0000 </r>
       <r>   -43.4256     0.0000     0.0000 </r>
       <r>   -43.2328     0.0000     0.0000 </r>
       <r>   -43.0401     0.0000     0.0000 </r>
       <r>   -42.8473     0.0000     0.0000 </r>
       <r>   -42.6545    11.6461     2.2451 </r>
       <r>   -42.4617    48.4971    11.5947 </r>
       <r>   -42.2690    64.1017    23.9564 </r>
       <r>   -42.0762     0.1993    24.0000 </r>
       <r>   -41.8834     0.0000    24.0000 </r>
       <r>   -41.6906     0.0000    24.0000 </r>
       <r>   -41.4978     0.0000    24.0000 </r>
       <r>   -41.3051     0.0000    24.0000 </r>
       <r>   -41.1123     0.0000    24.0000 </r>
       <r>   -40.9195     0.0000    24.0000 </r>
       <r>   -40.7267     0.0000    24.0000 </r>
       <r>   -40.5340     0.0000    24.0000 </r>
       <r>   -40.3412     0.0000    24.0000 </r>
       <r>   -40.1484     0.0000    24.0000 </r>
       <r>   -39.9556     0.0000    24.0000 </r>
       <r>   -39.7628     0.0000    24.0000 </r>
       <r>   -39.5701     0.0000    24.0000 </r>
       <r>   -39.3773     0.0000    24.0000 </r>
       <r>   -39.1845     0.0000    24.0000 </r>
       <r>   -38.9917     0.0000    24.0000 </r>
       <r>   -38.7990     0.0000    24.0000 </r>
       <r>   -38.6062     0.0000    24.0000 </r>
       <r>   -38.4134     0.0000    24.0000 </r>
       <r>   -38.2206     0.0000    24.0000 </r>
       <r>   -38.0278     0.0000    24.0000 </r>
       <r>   -37.8351     0.0000    24.0000 </r>
       <r>   -37.6423     0.0000    24.0000 </r>
       <r>   -37.4495     0.0000    24.0000 </r>
       <r>   -37.2567     0.0000    24.0000 </r>
       <r>   -37.0640     0.0000    24.0000 </r>
       <r>   -36.8712     0.0000    24.0000 </r>
       <r>   -36.6784     0.0000    24.0000 </r>
       <r>   -36.4856     0.0000    24.0000 </r>
       <r>   -36.2929     0.0000    24.0000 </r>
       <r>   -36.1001     0.0000    24.0000 </r>
       <r>   -35.9073     0.0000    24.0000 </r>
       <r>   -35.7145     0.0000    24.0000 </r>
       <r>   -35.5217     0.0000    24.0000 </r>
       <r>   -35.3290     0.0000    24.0000 </r>
       <r>   -35.1362     0.0000    24.0000 </r>
       <r>   -34.9434     0.0000    24.0000 </r>
       <r>   -34.7506     0.0000    24.0000 </r>
       <r>   -34.5579     0.0000    24.0000 </r>
       <r>   -34.3651     0.0000    24.0000 </r>
       <r>   -34.1723     0.0000    24.0000 </r>
       <r>   -33.9795     0.0000    24.0000 </r>
       <r>   -33.7867     0.0000    24.0000 </r>
       <r>   -33.5940     0.0000    24.0000 </r>
       <r>   -33.4012     0.0000    24.0000 </r>
       <r>   -33.2084     0.0000    24.0000 </r>
       <r>   -33.0156     0.0000    24.0000 </r>
       <r>   -32.8229     0.0000    24.0000 </r>
       <r>   -32.6301     0.0000    24.0000 </r>
       <r>   -32.4373     0.0000    24.0000 </r>
       <r>   -32.2445     0.0000    24.0000 </r>
       <r>   -32.0517     0.0000    24.0000 </r>
       <r>   -31.8590     0.0000    24.0000 </r>
       <r>   -31.6662     0.0000    24.0000 </r>
       <r>   -31.4734     0.0000    24.0000 </r>
       <r>   -31.2806     0.0000    24.0000 </r>
       <r>   -31.0879     0.0000    24.0000 </r>
       <r>   -30.8951     0.0000    24.0000 </r>
       <r>   -30.7023     0.0000    24.0000 </r>
       <r>   -30.5095     0.0000    24.0000 </r>
       <r>   -30.3167     0.0000    24.0000 </r>
       <r>   -30.1240     0.0000    24.0000 </r>
       <r>   -29.9312     0.0000    24.0000 </r>
       <r>   -29.7384     0.0000    24.0000 </r>
       <r>   -29.5456     0.0000    24.0000 </r>
       <r>   -29.3529     0.0000    24.0000 </r>
       <r>   -29.1601     0.0000    24.0000 </r>
       <r>   -28.9673     0.0000    24.0000 </r>
       <r>   -28.7745     0.0000    24.0000 </r>
       <r>   -28.5817     0.0000    24.0000 </r>
       <r>   -28.3890     0.0000    24.0000 </r>
       <r>   -28.1962     0.0000    24.0000 </r>
       <r>   -28.0034     0.0000    24.0000 </r>
       <r>   -27.8106     0.0000    24.0000 </r>
       <r>   -27.6179     0.0000    24.0000 </r>
       <r>   -27.4251     0.0000    24.0000 </r>
       <r>   -27.2323     0.0000    24.0000 </r>
       <r>   -27.0395     0.0000    24.0000 </r>
       <r>   -26.8468     0.0000    24.0000 </r>
       <r>   -26.6540     0.0000    24.0000 </r>
       <r>   -26.4612     0.0000    24.0000 </r>
       <r>   -26.2684     0.0000    24.0000 </r>
       <r>   -26.0756     0.0000    24.0000 </r>
       <r>   -25.8829     0.0000    24.0000 </r>
       <r>   -25.6901     0.0000    24.0000 </r>
       <r>   -25.4973     0.0000    24.0000 </r>
       <r>   -25.3045     0.0000    24.0000 </r>
       <r>   -25.1118     0.0000    24.0000 </r>
       <r>   -24.9190     0.0000    24.0000 </r>
       <r>   -24.7262     0.0000    24.0000 </r>
       <r>   -24.5334     0.0000    24.0000 </r>
       <r>   -24.3406     0.0000    24.0000 </r>
       <r>   -24.1479     0.0000    24.0000 </r>
       <r>   -23.9551     0.0000    24.0000 </r>
       <r>   -23.7623     0.0000    24.0000 </r>
       <r>   -23.5695     0.0000    24.0000 </r>
       <r>   -23.3768     0.0000    24.0000 </r>
       <r>   -23.1840     0.0000    24.0000 </r>
       <r>   -22.9912     0.0000    24.0000 </r>
       <r>   -22.7984     0.0000    24.0000 </r>
       <r>   -22.6056     0.0000    24.0000 </r>
       <r>   -22.4129     0.0000    24.0000 </r>
       <r>   -22.2201     0.0000    24.0000 </r>
       <r>   -22.0273     0.0000    24.0000 </r>
       <r>   -21.8345     0.0000    24.0000 </r>
       <r>   -21.6418     0.0000    24.0000 </r>
       <r>   -21.4490     0.0000    24.0000 </r>
       <r>   -21.2562     0.0000    24.0000 </r>
       <r>   -21.0634     0.0000    24.0000 </r>
       <r>   -20.8706     0.0000    24.0000 </r>
       <r>   -20.6779     0.0000    24.0000 </r>
       <r>   -20.4851     0.0000    24.0000 </r>
       <r>   -20.2923     0.0000    24.0000 </r>
       <r>   -20.0995     0.0000    24.0000 </r>
       <r>   -19.9068     0.0000    24.0000 </r>
       <r>   -19.7140     0.0000    24.0000 </r>
       <r>   -19.5212     0.0000    24.0000 </r>
       <r>   -19.3284     0.0000    24.0000 </r>
       <r>   -19.1356     0.0000    24.0000 </r>
       <r>   -18.9429     0.0000    24.0000 </r>
       <r>   -18.7501     0.0000    24.0000 </r>
       <r>   -18.5573     0.0000    24.0000 </r>
       <r>   -18.3645     0.0000    24.0000 </r>
       <r>   -18.1718     0.0000    24.0000 </r>
       <r>   -17.9790     0.0000    24.0000 </r>
       <r>   -17.7862     0.0000    24.0000 </r>
       <r>   -17.5934     0.0000    24.0000 </r>
       <r>   -17.4007     0.0000    24.0000 </r>
       <r>   -17.2079     0.0000    24.0000 </r>
       <r>   -17.0151     0.0000    24.0000 </r>
       <r>   -16.8223     0.0000    24.0000 </r>
       <r>   -16.6295     0.0000    24.0000 </r>
       <r>   -16.4368     0.0000    24.0000 </r>
       <r>   -16.2440     0.0000    24.0000 </r>
       <r>   -16.0512     0.0000    24.0000 </r>
       <r>   -15.8584     0.0000    24.0000 </r>
       <r>   -15.6657     0.0000    24.0000 </r>
       <r>   -15.4729     0.0000    24.0000 </r>
       <r>   -15.2801     0.0000    24.0000 </r>
       <r>   -15.0873     0.0000    24.0000 </r>
       <r>   -14.8945     0.0000    24.0000 </r>
       <r>   -14.7018     0.0000    24.0000 </r>
       <r>   -14.5090     0.0000    24.0000 </r>
       <r>   -14.3162     0.0000    24.0000 </r>
       <r>   -14.1234     0.0000    24.0000 </r>
       <r>   -13.9307     0.0000    24.0000 </r>
       <r>   -13.7379     0.0000    24.0000 </r>
       <r>   -13.5451     0.0000    24.0000 </r>
       <r>   -13.3523     0.0000    24.0000 </r>
       <r>   -13.1595     0.1193    24.0230 </r>
       <r>   -12.9668    20.6296    27.9999 </r>
       <r>   -12.7740     0.4470    28.0862 </r>
       <r>   -12.5812     9.7547    29.9666 </r>
       <r>   -12.3884    10.5219    31.9950 </r>
       <r>   -12.1957     0.0000    32.0000 </r>
       <r>   -12.0029     0.0000    32.0000 </r>
       <r>   -11.8101     0.0000    32.0000 </r>
       <r>   -11.6173     0.0000    32.0000 </r>
       <r>   -11.4245     0.0000    32.0000 </r>
       <r>   -11.2318     0.0000    32.0000 </r>
       <r>   -11.0390     0.0000    32.0000 </r>
       <r>   -10.8462     0.0000    32.0000 </r>
       <r>   -10.6534     0.0000    32.0000 </r>
       <r>   -10.4607     0.0000    32.0000 </r>
       <r>   -10.2679    15.3981    34.9684 </r>
       <r>   -10.0751    21.4692    39.1191 </r>
       <r>    -9.8823    25.3084    44.0000 </r>
       <r>    -9.6895     0.0000    44.0000 </r>
       <r>    -9.4968     0.0000    44.0000 </r>
       <r>    -9.3040     0.0000    44.0000 </r>
       <r>    -9.1112     0.0000    44.0000 </r>
       <r>    -8.9184     0.0000    44.0000 </r>
       <r>    -8.7257     0.0000    44.0000 </r>
       <r>    -8.5329     0.0012    44.0002 </r>
       <r>    -8.3401    20.7480    48.0000 </r>
       <r>    -8.1473     0.0000    48.0000 </r>
       <r>    -7.9546     0.0000    48.0000 </r>
       <r>    -7.7618     0.0000    48.0000 </r>
       <r>    -7.5690     0.0000    48.0000 </r>
       <r>    -7.3762     0.0000    48.0000 </r>
       <r>    -7.1834     0.0000    48.0000 </r>
       <r>    -6.9907     0.0000    48.0000 </r>
       <r>    -6.7979     0.0000    48.0000 </r>
       <r>    -6.6051     0.0000    48.0000 </r>
       <r>    -6.4123     0.0000    48.0000 </r>
       <r>    -6.2196     1.0944    48.2110 </r>
       <r>    -6.0268     4.0929    49.0000 </r>
       <r>    -5.8340     0.2538    49.0489 </r>
       <r>    -5.6412    15.3037    51.9991 </r>
       <r>    -5.4484     0.0000    52.0000 </r>
       <r>    -5.2557     0.0000    52.0000 </r>
       <r>    -5.0629     0.0000    52.0000 </r>
       <r>    -4.8701     0.0000    52.0000 </r>
       <r>    -4.6773     0.0000    52.0000 </r>
       <r>    -4.4846     0.0000    52.0000 </r>
       <r>    -4.2918     0.0000    52.0000 </r>
       <r>    -4.0990     0.0000    52.0000 </r>
       <r>    -3.9062     0.0000    52.0000 </r>
       <r>    -3.7134     0.0000    52.0000 </r>
       <r>    -3.5207     0.0000    52.0000 </r>
       <r>    -3.3279     0.6239    52.1203 </r>
       <r>    -3.1351    14.9381    55.0000 </r>
       <r>    -2.9423     1.2594    55.2428 </r>
       <r>    -2.7496    10.5994    57.2861 </r>
       <r>    -2.5568    12.5703    59.7128 </r>
       <r>    -2.3640    21.6484    63.8871 </r>
       <r>    -2.1712     0.5649    64.0000 </r>
       <r>    -1.9784     0.0000    64.0000 </r>
       <r>    -1.7857     0.0000    64.0000 </r>
       <r>    -1.5929     5.2875    65.0193 </r>
       <r>    -1.4001    12.6509    67.4581 </r>
       <r>    -1.2073    24.4254    72.1670 </r>
       <r>    -1.0146    13.7972    74.8316 </r>
       <r>    -0.8218     6.0540    76.0000 </r>
       <r>    -0.6290     1.8784    76.3621 </r>
       <r>    -0.4362    13.7751    79.0176 </r>
       <r>    -0.2434    10.9803    81.1344 </r>
       <r>    -0.0507    28.7477    86.6763 </r>
       <r>     0.1421    25.6172    91.6167 </r>
       <r>     0.3349    17.4077    94.9768 </r>
       <r>     0.5277     5.2913    96.0000 </r>
       <r>     0.7204     6.5711    97.2668 </r>
       <r>     0.9132    24.2369   101.9407 </r>
       <r>     1.1060    23.0545   106.3867 </r>
       <r>     1.2988    31.5722   112.4739 </r>
       <r>     1.4915    30.1874   118.2944 </r>
       <r>     1.6843     8.5922   119.9522 </r>
       <r>     1.8771     0.2482   120.0000 </r>
       <r>     2.0699     0.0000   120.0000 </r>
       <r>     2.2627     0.0000   120.0000 </r>
       <r>     2.4554     0.0000   120.0000 </r>
       <r>     2.6482     0.0000   120.0000 </r>
       <r>     2.8410     0.0000   120.0000 </r>
       <r>     3.0338     0.0000   120.0000 </r>
       <r>     3.2265     0.0000   120.0000 </r>
       <r>     3.4193     0.0000   120.0000 </r>
       <r>     3.6121     0.0000   120.0000 </r>
       <r>     3.8049     0.0000   120.0000 </r>
       <r>     3.9977     0.0000   120.0000 </r>
       <r>     4.1904     0.0000   120.0000 </r>
       <r>     4.3832     5.1114   120.9854 </r>
       <r>     4.5760     0.0746   121.0000 </r>
       <r>     4.7688     0.0000   121.0000 </r>
       <r>     4.9615     0.0000   121.0000 </r>
       <r>     5.1543     2.6292   121.5069 </r>
       <r>     5.3471    12.9323   123.9999 </r>
       <r>     5.5399     0.0000   124.0000 </r>
       <r>     5.7327     0.0141   124.0027 </r>
       <r>     5.9254     9.7369   125.8798 </r>
       <r>     6.1182    16.5282   129.0661 </r>
       <r>     6.3110     4.8447   130.0000 </r>
       <r>     6.5038    10.1452   131.9558 </r>
       <r>     6.6965     7.6861   133.4419 </r>
       <r>     6.8893    13.2697   136.0000 </r>
       <r>     7.0821     5.1174   136.9865 </r>
       <r>     7.2749     2.0195   137.3765 </r>
       <r>     7.4677    12.3216   139.7518 </r>
       <r>     7.6604    11.0536   141.8827 </r>
       <r>     7.8532     8.8750   143.5953 </r>
       <r>     8.0460    14.4781   146.3863 </r>
       <r>     8.2388    14.9478   149.2679 </r>
       <r>     8.4315    15.1508   152.1915 </r>
       <r>     8.6243    14.0471   154.8999 </r>
       <r>     8.8171    17.5479   158.2828 </r>
       <r>     9.0099    16.0999   161.3872 </r>
       <r>     9.2027    20.5334   165.3507 </r>
       <r>     9.3954    17.8633   168.7972 </r>
       <r>     9.5882    19.0724   172.4741 </r>
       <r>     9.7810    14.4027   175.2507 </r>
       <r>     9.9738     3.8866   176.0000 </r>
       <r>    10.1665     0.0000   176.0000 </r>
       <r>    10.3593     0.0000   176.0000 </r>
       <r>    10.5521     0.0000   176.0000 </r>
       <r>    10.7449     0.0000   176.0000 </r>
       <r>    10.9376     0.0000   176.0000 </r>
       <r>    11.1304     0.0000   176.0000 </r>
       <r>    11.3232     0.0000   176.0000 </r>
       <r>    11.5160     0.0000   176.0000 </r>
       <r>    11.7088     0.0000   176.0000 </r>
       <r>    11.9015     0.0000   176.0000 </r>
       <r>    12.0943     0.0000   176.0000 </r>
       <r>    12.2871     0.0000   176.0000 </r>
       <r>    12.4799     0.0000   176.0000 </r>
      </set>
     </set>
    </array>
   </total>
  </dos>
 </calculation>
 <structure name="finalpos" >
  <crystal>
   <varray name="basis" >
    <v>       9.69468544       0.00000000       0.00000000 </v>
    <v>       0.00000000       9.69468544       0.00000000 </v>
    <v>       0.00000000       0.00000000       9.69468544 </v>
   </varray>
   <i name="volume">    911.17368197 </i>
   <varray name="rec_basis" >
    <v>       0.10314930       0.00000000       0.00000000 </v>
    <v>       0.00000000       0.10314930       0.00000000 </v>
    <v>       0.00000000       0.00000000       0.10314930 </v>
   </varray>
  </crystal>
  <varray name="positions" >
   <v>       0.97757757       0.27311151       0.22702290 </v>
   <v>       0.96669141       0.74427509       0.75585932 </v>
   <v>       0.01827579       0.20075578       0.81103966 </v>
   <v>       0.01827579       0.68909475       0.29937863 </v>
   <v>       0.33198245       0.32029410       0.95621018 </v>
   <v>       0.17150315       0.81646313       0.03701848 </v>
   <v>       0.69816825       0.29179066       0.01827534 </v>
   <v>       0.67149640       0.70988238       0.98404196 </v>
   <v>       0.26582098       0.98441404       0.29367984 </v>
   <v>       0.20999999       0.01520231       0.80573606 </v>
   <v>       0.79976315       0.96773685       0.81699051 </v>
   <v>       0.82436640       0.02486545       0.18386929 </v>
   <v>       0.20999999       0.69439835       0.48493209 </v>
   <v>       0.26582098       0.20645456       0.51572036 </v>
   <v>       0.79976315       0.68314389       0.53239755 </v>
   <v>       0.82436640       0.31626512       0.47526895 </v>
   <v>       0.17150315       0.46311593       0.68367127 </v>
   <v>       0.33198245       0.54392423       0.17984031 </v>
   <v>       0.69816825       0.48185907       0.20834375 </v>
   <v>       0.67149640       0.51609245       0.79025203 </v>
   <v>       0.47428008       0.17580472       0.68908449 </v>
   <v>       0.47428008       0.81104992       0.32432968 </v>
   <v>       0.53242340       0.18337539       0.31675901 </v>
   <v>       0.51517372       0.82167658       0.67845782 </v>
   <v>       0.49308237       0.49172895       0.50078541 </v>
   <v>       0.49308237       0.99934900       0.00840545 </v>
   <v>       0.00295900       0.50796982       0.99216459 </v>
   <v>       0.98301732       0.99746709       0.50266732 </v>
   <v>       0.11667901       0.88103557       0.61909883 </v>
   <v>       0.09331727       0.12642869       0.37370571 </v>
   <v>       0.86450035       0.87247337       0.38155363 </v>
   <v>       0.86450035       0.11858078       0.62766104 </v>
   <v>       0.87789426       0.63032442       0.11215713 </v>
   <v>       0.87789426       0.38797728       0.86980999 </v>
   <v>       0.13278441       0.62561586       0.87451854 </v>
   <v>       0.13766257       0.39233468       0.10779973 </v>
   <v>       0.61430376       0.11463124       0.87737739 </v>
   <v>       0.61953331       0.89072452       0.13895424 </v>
   <v>       0.37053197       0.12911121       0.12089487 </v>
   <v>       0.37923596       0.86325689       0.89308460 </v>
   <v>       0.61430376       0.62275701       0.38550317 </v>
   <v>       0.61953331       0.36118017       0.60940988 </v>
   <v>       0.37923596       0.60704981       0.63687751 </v>
   <v>       0.37053197       0.37923954       0.37102320 </v>
   <v>       0.73226197       0.74626191       0.75387250 </v>
   <v>       0.75054018       0.25232806       0.24780635 </v>
   <v>       0.24782429       0.75329505       0.25717194 </v>
   <v>       0.24782429       0.24296246       0.74683936 </v>
   <v>       0.99894849       0.99976833       0.97190220 </v>
   <v>       0.99894849       0.52823221       0.50036608 </v>
   <v>       0.45522695       0.01074130       0.48939311 </v>
   <v>       0.53106149       0.48962805       0.01050636 </v>
  </varray>
 </structure>
</modeling>
