unknown system                          
           1
     9.694685    0.000000    0.000000
     0.000000    9.694685    0.000000
     0.000000    0.000000    9.694685
   Li   P    S    Cl
    24     4    20     4
Direct configuration=     1
   0.97757648  0.27310574  0.22702867
   0.96669557  0.74427817  0.75585624
   0.01827788  0.20075617  0.81102893
   0.01827788  0.68910547  0.29937824
   0.33197054  0.32028460  0.95621554
   0.17150965  0.81646061  0.03701102
   0.69815911  0.29178708  0.01827951
   0.67152288  0.70987538  0.98404506
   0.26582246  0.98441517  0.29367308
   0.20999629  0.01520655  0.80572700
   0.79976631  0.96773741  0.81697693
   0.82433822  0.02486412  0.18387660
   0.20999629  0.69440741  0.48492785
   0.26582246  0.20646133  0.51571923
   0.79976631  0.68315748  0.53239700
   0.82433822  0.31625780  0.47527029
   0.17150965  0.46312338  0.68367380
   0.33197054  0.54391886  0.17984981
   0.69815911  0.48185489  0.20834732
   0.67152288  0.51608934  0.79025903
   0.47427827  0.17580630  0.68908866
   0.47427827  0.81104574  0.32432810
   0.53242146  0.18337555  0.31675885
   0.51517732  0.82166310  0.67847131
   0.49308367  0.49172974  0.50078850
   0.49308367  0.99934590  0.00840467
   0.00296016  0.50796420  0.99217021
   0.98301848  0.99746907  0.50266534
   0.11668017  0.88103824  0.61909616
   0.09332293  0.12643061  0.37370380
   0.86450132  0.87247976  0.38154910
   0.86450132  0.11858530  0.62765465
   0.87789356  0.63031515  0.11216823
   0.87789356  0.38796617  0.86981926
   0.13278024  0.62561201  0.87452240
   0.13766407  0.39233056  0.10780384
   0.61430867  0.11462647  0.87737540
   0.61952672  0.89071138  0.13894783
   0.37053807  0.12911193  0.12089460
   0.37923050  0.86326246  0.89307552
   0.61430867  0.62275901  0.38550793
   0.61952672  0.36118657  0.60942303
   0.37923050  0.60705888  0.63687195
   0.37053807  0.37923980  0.37102248
   0.73226784  0.74625954  0.75387487
   0.75053720  0.25232433  0.24781008
   0.24782463  0.75329698  0.25716601
   0.24782463  0.24296840  0.74683742
   0.99895447  0.99975949  0.97187798
   0.99895447  0.52825643  0.50037492
   0.45521837  0.01074797  0.48938644
   0.53107235  0.48962550  0.01050891
Direct configuration=     2
   0.97757663  0.27310662  0.22702778
   0.96669497  0.74427769  0.75585672
   0.01827757  0.20075610  0.81103051
   0.01827757  0.68910390  0.29937830
   0.33197237  0.32028604  0.95621470
   0.17150870  0.81646101  0.03701207
   0.69816047  0.29178765  0.01827886
   0.67151898  0.70987638  0.98404455
   0.26582224  0.98441505  0.29367411
   0.20999686  0.01520593  0.80572838
   0.79976585  0.96773734  0.81697894
   0.82434242  0.02486436  0.18387549
   0.20999686  0.69440603  0.48492848
   0.26582224  0.20646030  0.51571935
   0.79976585  0.68315547  0.53239707
   0.82434242  0.31625891  0.47527005
   0.17150870  0.46312234  0.68367339
   0.33197237  0.54391971  0.17984837
   0.69816047  0.48185555  0.20834676
   0.67151898  0.51608985  0.79025803
   0.47427851  0.17580602  0.68908805
   0.47427851  0.81104636  0.32432839
   0.53242169  0.18337552  0.31675889
   0.51517674  0.82166509  0.67846932
   0.49308299  0.49173091  0.50078803
   0.49308299  0.99934638  0.00840349
   0.00295922  0.50796526  0.99216915
   0.98301884  0.99746927  0.50266514
   0.11667996  0.88103789  0.61909652
   0.09332175  0.12643001  0.37370439
   0.86450101  0.87247872  0.38154972
   0.86450101  0.11858469  0.62765568
   0.87789396  0.63031631  0.11216632
   0.87789396  0.38796808  0.86981810
   0.13278097  0.62561258  0.87452183
   0.13766414  0.39233098  0.10780342
   0.61430772  0.11462696  0.87737600
   0.61952805  0.89071311  0.13894924
   0.37053715  0.12911186  0.12089471
   0.37923171  0.86326204  0.89307730
   0.61430772  0.62275841  0.38550745
   0.61952805  0.36118517  0.60942129
   0.37923171  0.60705710  0.63687237
   0.37053715  0.37923970  0.37102254
   0.73226692  0.74625991  0.75387450
   0.75053758  0.25232482  0.24780958
   0.24782461  0.75329665  0.25716682
   0.24782461  0.24296759  0.74683776
   0.99895355  0.99976079  0.97188210
   0.99895355  0.52825231  0.50037362
   0.45522001  0.01074678  0.48938763
   0.53107021  0.48962601  0.01050839
Direct configuration=     3
   0.97757673  0.27310726  0.22702715
   0.96669455  0.74427735  0.75585706
   0.01827734  0.20075606  0.81103164
   0.01827734  0.68910277  0.29937835
   0.33197368  0.32028707  0.95621410
   0.17150802  0.81646131  0.03701282
   0.69816145  0.29178805  0.01827839
   0.67151619  0.70987710  0.98404419
   0.26582207  0.98441496  0.29367484
   0.20999727  0.01520548  0.80572936
   0.79976552  0.96773729  0.81698038
   0.82434543  0.02486453  0.18387470
   0.20999727  0.69440505  0.48492892
   0.26582207  0.20645956  0.51571944
   0.79976552  0.68315403  0.53239712
   0.82434543  0.31625971  0.47526988
   0.17150802  0.46312159  0.68367310
   0.33197368  0.54392031  0.17984733
   0.69816145  0.48185602  0.20834636
   0.67151619  0.51609022  0.79025731
   0.47427868  0.17580582  0.68908761
   0.47427868  0.81104679  0.32432859
   0.53242185  0.18337550  0.31675891
   0.51517632  0.82166651  0.67846789
   0.49308251  0.49173176  0.50078769
   0.49308251  0.99934672  0.00840265
   0.00295855  0.50796602  0.99216838
   0.98301910  0.99746941  0.50266499
   0.11667982  0.88103763  0.61909677
   0.09332091  0.12642959  0.37370482
   0.86450079  0.87247799  0.38155016
   0.86450079  0.11858425  0.62765642
   0.87789424  0.63031713  0.11216496
   0.87789424  0.38796945  0.86981727
   0.13278150  0.62561299  0.87452142
   0.13766420  0.39233128  0.10780312
   0.61430704  0.11462730  0.87737643
   0.61952901  0.89071436  0.13895024
   0.37053649  0.12911182  0.12089478
   0.37923257  0.86326173  0.89307858
   0.61430704  0.62275798  0.38550710
   0.61952901  0.36118416  0.60942005
   0.37923257  0.60705583  0.63687267
   0.37053649  0.37923962  0.37102259
   0.73226627  0.74626017  0.75387424
   0.75053785  0.25232518  0.24780923
   0.24782460  0.75329641  0.25716740
   0.24782460  0.24296701  0.74683800
   0.99895289  0.99976173  0.97188504
   0.99895289  0.52824936  0.50037268
   0.45522118  0.01074593  0.48938848
   0.53106867  0.48962638  0.01050803
Direct configuration=     4
   0.97757694  0.27310852  0.22702588
   0.96669370  0.74427666  0.75585774
   0.01827690  0.20075596  0.81103390
   0.01827690  0.68910051  0.29937844
   0.33197630  0.32028914  0.95621289
   0.17150666  0.81646189  0.03701431
   0.69816339  0.29178885  0.01827745
   0.67151061  0.70987853  0.98404345
   0.26582175  0.98441479  0.29367632
   0.20999809  0.01520459  0.80573133
   0.79976485  0.96773718  0.81698326
   0.82435145  0.02486487  0.18387311
   0.20999809  0.69440308  0.48492982
   0.26582175  0.20645809  0.51571962
   0.79976485  0.68315115  0.53239722
   0.82435145  0.31626130  0.47526953
   0.17150666  0.46312010  0.68367251
   0.33197630  0.54392152  0.17984527
   0.69816339  0.48185696  0.20834555
   0.67151061  0.51609095  0.79025588
   0.47427902  0.17580541  0.68908673
   0.47427902  0.81104767  0.32432899
   0.53242218  0.18337545  0.31675896
   0.51517548  0.82166937  0.67846504
   0.49308154  0.49173345  0.50078701
   0.49308154  0.99934740  0.00840096
   0.00295720  0.50796755  0.99216686
   0.98301962  0.99746970  0.50266471
   0.11667952  0.88103713  0.61909728
   0.09331923  0.12642874  0.37370567
   0.86450035  0.87247651  0.38155103
   0.86450035  0.11858337  0.62765790
   0.87789481  0.63031879  0.11216222
   0.87789481  0.38797218  0.86981562
   0.13278255  0.62561381  0.87452060
   0.13766431  0.39233188  0.10780252
   0.61430568  0.11462800  0.87737729
   0.61953092  0.89071684  0.13895225
   0.37053517  0.12911172  0.12089493
   0.37923430  0.86326113  0.89308112
   0.61430568  0.62275711  0.38550641
   0.61953092  0.36118215  0.60941757
   0.37923430  0.60705328  0.63687328
   0.37053517  0.37923948  0.37102268
   0.73226496  0.74626070  0.75387371
   0.75053840  0.25232589  0.24780852
   0.24782458  0.75329593  0.25716856
   0.24782458  0.24296585  0.74683847
   0.99895157  0.99976360  0.97189094
   0.99895157  0.52824347  0.50037081
   0.45522353  0.01074423  0.48939018
   0.53106560  0.48962711  0.01050729
Direct configuration=     5
   0.97757703  0.27310911  0.22702530
   0.96669331  0.74427635  0.75585806
   0.01827670  0.20075592  0.81103494
   0.01827670  0.68909947  0.29937848
   0.33197751  0.32029009  0.95621233
   0.17150603  0.81646216  0.03701500
   0.69816429  0.29178922  0.01827702
   0.67150804  0.70987919  0.98404311
   0.26582160  0.98441471  0.29367700
   0.20999847  0.01520417  0.80573224
   0.79976454  0.96773714  0.81698459
   0.82435422  0.02486503  0.18387238
   0.20999847  0.69440217  0.48493023
   0.26582160  0.20645741  0.51571970
   0.79976454  0.68314982  0.53239727
   0.82435422  0.31626203  0.47526938
   0.17150603  0.46311941  0.68367224
   0.33197751  0.54392207  0.17984432
   0.69816429  0.48185739  0.20834518
   0.67150804  0.51609129  0.79025522
   0.47427918  0.17580522  0.68908633
   0.47427918  0.81104808  0.32432918
   0.53242233  0.18337542  0.31675898
   0.51517510  0.82167068  0.67846372
   0.49308109  0.49173422  0.50078669
   0.49308109  0.99934771  0.00840018
   0.00295658  0.50796825  0.99216615
   0.98301986  0.99746983  0.50266457
   0.11667938  0.88103689  0.61909751
   0.09331846  0.12642835  0.37370606
   0.86450014  0.87247583  0.38155144
   0.86450014  0.11858297  0.62765858
   0.87789507  0.63031955  0.11216096
   0.87789507  0.38797345  0.86981485
   0.13278303  0.62561418  0.87452022
   0.13766435  0.39233216  0.10780224
   0.61430506  0.11462832  0.87737769
   0.61953180  0.89071799  0.13895318
   0.37053456  0.12911168  0.12089500
   0.37923510  0.86326085  0.89308230
   0.61430506  0.62275671  0.38550609
   0.61953180  0.36118123  0.60941642
   0.37923510  0.60705211  0.63687356
   0.37053456  0.37923941  0.37102272
   0.73226435  0.74626094  0.75387347
   0.75053865  0.25232621  0.24780819
   0.24782457  0.75329571  0.25716909
   0.24782457  0.24296531  0.74683869
   0.99895096  0.99976446  0.97189366
   0.99895096  0.52824075  0.50036995
   0.45522461  0.01074344  0.48939097
   0.53106418  0.48962745  0.01050695
Direct configuration=     6
   0.97757722  0.27311027  0.22702413
   0.96669253  0.74427572  0.75585869
   0.01827629  0.20075584  0.81103702
   0.01827629  0.68909738  0.29937857
   0.33197992  0.32029200  0.95621122
   0.17150477  0.81646271  0.03701638
   0.69816608  0.29178996  0.01827615
   0.67150289  0.70988051  0.98404244
   0.26582130  0.98441454  0.29367836
   0.20999922  0.01520335  0.80573405
   0.79976393  0.96773704  0.81698724
   0.82435977  0.02486535  0.18387091
   0.20999922  0.69440035  0.48493106
   0.26582130  0.20645605  0.51571986
   0.79976393  0.68314716  0.53239736
   0.82435977  0.31626349  0.47526906
   0.17150477  0.46311803  0.68367170
   0.33197992  0.54392318  0.17984241
   0.69816608  0.48185825  0.20834444
   0.67150289  0.51609197  0.79025390
   0.47427949  0.17580485  0.68908552
   0.47427949  0.81104888  0.32432956
   0.53242263  0.18337538  0.31675903
   0.51517433  0.82167331  0.67846109
   0.49308020  0.49173578  0.50078606
   0.49308020  0.99934834  0.00839863
   0.00295534  0.50796966  0.99216475
   0.98302034  0.99747010  0.50266431
   0.11667911  0.88103642  0.61909798
   0.09331691  0.12642756  0.37370684
   0.86449974  0.87247446  0.38155225
   0.86449974  0.11858216  0.62765994
   0.87789559  0.63032108  0.11215844
   0.87789559  0.38797597  0.86981333
   0.13278400  0.62561494  0.87451947
   0.13766445  0.39233272  0.10780169
   0.61430380  0.11462895  0.87737849
   0.61953356  0.89072028  0.13895503
   0.37053335  0.12911160  0.12089514
   0.37923670  0.86326029  0.89308465
   0.61430380  0.62275592  0.38550545
   0.61953356  0.36117937  0.60941413
   0.37923670  0.60704976  0.63687412
   0.37053335  0.37923927  0.37102281
   0.73226314  0.74626142  0.75387298
   0.75053915  0.25232687  0.24780754
   0.24782455  0.75329527  0.25717016
   0.24782455  0.24296424  0.74683913
   0.99894974  0.99976618  0.97189909
   0.99894974  0.52823531  0.50036822
   0.45522678  0.01074187  0.48939254
   0.53106135  0.48962813  0.01050628
Direct configuration=     7
   0.97757757  0.27311151  0.22702290
   0.96669141  0.74427509  0.75585932
   0.01827579  0.20075578  0.81103966
   0.01827579  0.68909475  0.29937863
   0.33198245  0.32029410  0.95621018
   0.17150315  0.81646313  0.03701848
   0.69816825  0.29179066  0.01827534
   0.67149640  0.70988238  0.98404196
   0.26582098  0.98441404  0.29367984
   0.20999999  0.01520231  0.80573606
   0.79976315  0.96773685  0.81699051
   0.82436640  0.02486545  0.18386929
   0.20999999  0.69439835  0.48493209
   0.26582098  0.20645456  0.51572036
   0.79976315  0.68314389  0.53239755
   0.82436640  0.31626512  0.47526895
   0.17150315  0.46311593  0.68367127
   0.33198245  0.54392423  0.17984031
   0.69816825  0.48185907  0.20834375
   0.67149640  0.51609245  0.79025203
   0.47428008  0.17580472  0.68908449
   0.47428008  0.81104992  0.32432968
   0.53242340  0.18337539  0.31675901
   0.51517372  0.82167658  0.67845782
   0.49308237  0.49172895  0.50078541
   0.49308237  0.99934900  0.00840545
   0.00295900  0.50796982  0.99216459
   0.98301732  0.99746709  0.50266732
   0.11667901  0.88103557  0.61909883
   0.09331727  0.12642869  0.37370571
   0.86450035  0.87247337  0.38155363
   0.86450035  0.11858078  0.62766104
   0.87789426  0.63032442  0.11215713
   0.87789426  0.38797728  0.86980999
   0.13278441  0.62561586  0.87451854
   0.13766257  0.39233468  0.10779973
   0.61430376  0.11463124  0.87737739
   0.61953331  0.89072452  0.13895424
   0.37053197  0.12911121  0.12089487
   0.37923596  0.86325689  0.89308460
   0.61430376  0.62275701  0.38550317
   0.61953331  0.36118017  0.60940988
   0.37923596  0.60704981  0.63687751
   0.37053197  0.37923954  0.37102320
   0.73226197  0.74626191  0.75387250
   0.75054018  0.25232806  0.24780635
   0.24782429  0.75329505  0.25717194
   0.24782429  0.24296246  0.74683936
   0.99894849  0.99976833  0.97190220
   0.99894849  0.52823221  0.50036608
   0.45522695  0.01074130  0.48939311
   0.53106149  0.48962805  0.01050636
