  52  52   0   4
  0.1730346E+02  0.9654106E-09  0.9654106E-09  0.9654106E-09  0.2000000E-15
  1.000000000000000E-004
  CAR 
 unknown system                          
     12.65985045    -45.12892218  301      2.08932079      1.00000000
    -45.129  0.0000E+00  0.0000E+00  0.0000E+00  0.0000E+00
    -44.936  0.0000E+00  0.0000E+00  0.0000E+00  0.0000E+00
    -44.744  0.0000E+00  0.0000E+00  0.0000E+00  0.0000E+00
    -44.551  0.0000E+00  0.0000E+00  0.0000E+00  0.0000E+00
    -44.358  0.0000E+00  0.0000E+00  0.0000E+00  0.0000E+00
    -44.166  0.0000E+00  0.0000E+00  0.0000E+00  0.0000E+00
    -43.973  0.0000E+00  0.0000E+00  0.0000E+00  0.0000E+00
    -43.781  0.0000E+00  0.0000E+00  0.0000E+00  0.0000E+00
    -43.588  0.0000E+00  0.0000E+00  0.0000E+00  0.0000E+00
    -43.395  0.0000E+00  0.0000E+00  0.0000E+00  0.0000E+00
    -43.203  0.0000E+00  0.0000E+00  0.0000E+00  0.0000E+00
    -43.010  0.0000E+00  0.0000E+00  0.0000E+00  0.0000E+00
    -42.817  0.0000E+00  0.0000E+00  0.0000E+00  0.0000E+00
    -42.625  0.3874E-10  0.3874E-10  0.7463E-11  0.7463E-11
    -42.432  0.3262E-01  0.3262E-01  0.6283E-02  0.6283E-02
    -42.239  0.7319E-01  0.7319E-01  0.2039E-01  0.2039E-01
    -42.047  0.1864E-01  0.1864E-01  0.2400E-01  0.2400E-01
    -41.854  0.0000E+00  0.0000E+00  0.2400E-01  0.2400E-01
    -41.662  0.0000E+00  0.0000E+00  0.2400E-01  0.2400E-01
    -41.469  0.0000E+00  0.0000E+00  0.2400E-01  0.2400E-01
    -41.276  0.0000E+00  0.0000E+00  0.2400E-01  0.2400E-01
    -41.084  0.0000E+00  0.0000E+00  0.2400E-01  0.2400E-01
    -40.891  0.0000E+00  0.0000E+00  0.2400E-01  0.2400E-01
    -40.698  0.0000E+00  0.0000E+00  0.2400E-01  0.2400E-01
    -40.506  0.0000E+00  0.0000E+00  0.2400E-01  0.2400E-01
    -40.313  0.0000E+00  0.0000E+00  0.2400E-01  0.2400E-01
    -40.121  0.0000E+00  0.0000E+00  0.2400E-01  0.2400E-01
    -39.928  0.0000E+00  0.0000E+00  0.2400E-01  0.2400E-01
    -39.735  0.0000E+00  0.0000E+00  0.2400E-01  0.2400E-01
    -39.543  0.0000E+00  0.0000E+00  0.2400E-01  0.2400E-01
    -39.350  0.0000E+00  0.0000E+00  0.2400E-01  0.2400E-01
    -39.157  0.0000E+00  0.0000E+00  0.2400E-01  0.2400E-01
    -38.965  0.0000E+00  0.0000E+00  0.2400E-01  0.2400E-01
    -38.772  0.0000E+00  0.0000E+00  0.2400E-01  0.2400E-01
    -38.580  0.0000E+00  0.0000E+00  0.2400E-01  0.2400E-01
    -38.387  0.0000E+00  0.0000E+00  0.2400E-01  0.2400E-01
    -38.194  0.0000E+00  0.0000E+00  0.2400E-01  0.2400E-01
    -38.002  0.0000E+00  0.0000E+00  0.2400E-01  0.2400E-01
    -37.809  0.0000E+00  0.0000E+00  0.2400E-01  0.2400E-01
    -37.616  0.0000E+00  0.0000E+00  0.2400E-01  0.2400E-01
    -37.424  0.0000E+00  0.0000E+00  0.2400E-01  0.2400E-01
    -37.231  0.0000E+00  0.0000E+00  0.2400E-01  0.2400E-01
    -37.038  0.0000E+00  0.0000E+00  0.2400E-01  0.2400E-01
    -36.846  0.0000E+00  0.0000E+00  0.2400E-01  0.2400E-01
    -36.653  0.0000E+00  0.0000E+00  0.2400E-01  0.2400E-01
    -36.461  0.0000E+00  0.0000E+00  0.2400E-01  0.2400E-01
    -36.268  0.0000E+00  0.0000E+00  0.2400E-01  0.2400E-01
    -36.075  0.0000E+00  0.0000E+00  0.2400E-01  0.2400E-01
    -35.883  0.0000E+00  0.0000E+00  0.2400E-01  0.2400E-01
    -35.690  0.0000E+00  0.0000E+00  0.2400E-01  0.2400E-01
    -35.497  0.0000E+00  0.0000E+00  0.2400E-01  0.2400E-01
    -35.305  0.0000E+00  0.0000E+00  0.2400E-01  0.2400E-01
    -35.112  0.0000E+00  0.0000E+00  0.2400E-01  0.2400E-01
    -34.920  0.0000E+00  0.0000E+00  0.2400E-01  0.2400E-01
    -34.727  0.0000E+00  0.0000E+00  0.2400E-01  0.2400E-01
    -34.534  0.0000E+00  0.0000E+00  0.2400E-01  0.2400E-01
    -34.342  0.0000E+00  0.0000E+00  0.2400E-01  0.2400E-01
    -34.149  0.0000E+00  0.0000E+00  0.2400E-01  0.2400E-01
    -33.956  0.0000E+00  0.0000E+00  0.2400E-01  0.2400E-01
    -33.764  0.0000E+00  0.0000E+00  0.2400E-01  0.2400E-01
    -33.571  0.0000E+00  0.0000E+00  0.2400E-01  0.2400E-01
    -33.379  0.0000E+00  0.0000E+00  0.2400E-01  0.2400E-01
    -33.186  0.0000E+00  0.0000E+00  0.2400E-01  0.2400E-01
    -32.993  0.0000E+00  0.0000E+00  0.2400E-01  0.2400E-01
    -32.801  0.0000E+00  0.0000E+00  0.2400E-01  0.2400E-01
    -32.608  0.0000E+00  0.0000E+00  0.2400E-01  0.2400E-01
    -32.415  0.0000E+00  0.0000E+00  0.2400E-01  0.2400E-01
    -32.223  0.0000E+00  0.0000E+00  0.2400E-01  0.2400E-01
    -32.030  0.0000E+00  0.0000E+00  0.2400E-01  0.2400E-01
    -31.838  0.0000E+00  0.0000E+00  0.2400E-01  0.2400E-01
    -31.645  0.0000E+00  0.0000E+00  0.2400E-01  0.2400E-01
    -31.452  0.0000E+00  0.0000E+00  0.2400E-01  0.2400E-01
    -31.260  0.0000E+00  0.0000E+00  0.2400E-01  0.2400E-01
    -31.067  0.0000E+00  0.0000E+00  0.2400E-01  0.2400E-01
    -30.874  0.0000E+00  0.0000E+00  0.2400E-01  0.2400E-01
    -30.682  0.0000E+00  0.0000E+00  0.2400E-01  0.2400E-01
    -30.489  0.0000E+00  0.0000E+00  0.2400E-01  0.2400E-01
    -30.296  0.0000E+00  0.0000E+00  0.2400E-01  0.2400E-01
    -30.104  0.0000E+00  0.0000E+00  0.2400E-01  0.2400E-01
    -29.911  0.0000E+00  0.0000E+00  0.2400E-01  0.2400E-01
    -29.719  0.0000E+00  0.0000E+00  0.2400E-01  0.2400E-01
    -29.526  0.0000E+00  0.0000E+00  0.2400E-01  0.2400E-01
    -29.333  0.0000E+00  0.0000E+00  0.2400E-01  0.2400E-01
    -29.141  0.0000E+00  0.0000E+00  0.2400E-01  0.2400E-01
    -28.948  0.0000E+00  0.0000E+00  0.2400E-01  0.2400E-01
    -28.755  0.0000E+00  0.0000E+00  0.2400E-01  0.2400E-01
    -28.563  0.0000E+00  0.0000E+00  0.2400E-01  0.2400E-01
    -28.370  0.0000E+00  0.0000E+00  0.2400E-01  0.2400E-01
    -28.178  0.0000E+00  0.0000E+00  0.2400E-01  0.2400E-01
    -27.985  0.0000E+00  0.0000E+00  0.2400E-01  0.2400E-01
    -27.792  0.0000E+00  0.0000E+00  0.2400E-01  0.2400E-01
    -27.600  0.0000E+00  0.0000E+00  0.2400E-01  0.2400E-01
    -27.407  0.0000E+00  0.0000E+00  0.2400E-01  0.2400E-01
    -27.214  0.0000E+00  0.0000E+00  0.2400E-01  0.2400E-01
    -27.022  0.0000E+00  0.0000E+00  0.2400E-01  0.2400E-01
    -26.829  0.0000E+00  0.0000E+00  0.2400E-01  0.2400E-01
    -26.637  0.0000E+00  0.0000E+00  0.2400E-01  0.2400E-01
    -26.444  0.0000E+00  0.0000E+00  0.2400E-01  0.2400E-01
    -26.251  0.0000E+00  0.0000E+00  0.2400E-01  0.2400E-01
    -26.059  0.0000E+00  0.0000E+00  0.2400E-01  0.2400E-01
    -25.866  0.0000E+00  0.0000E+00  0.2400E-01  0.2400E-01
    -25.673  0.0000E+00  0.0000E+00  0.2400E-01  0.2400E-01
    -25.481  0.0000E+00  0.0000E+00  0.2400E-01  0.2400E-01
    -25.288  0.0000E+00  0.0000E+00  0.2400E-01  0.2400E-01
    -25.095  0.0000E+00  0.0000E+00  0.2400E-01  0.2400E-01
    -24.903  0.0000E+00  0.0000E+00  0.2400E-01  0.2400E-01
    -24.710  0.0000E+00  0.0000E+00  0.2400E-01  0.2400E-01
    -24.518  0.0000E+00  0.0000E+00  0.2400E-01  0.2400E-01
    -24.325  0.0000E+00  0.0000E+00  0.2400E-01  0.2400E-01
    -24.132  0.0000E+00  0.0000E+00  0.2400E-01  0.2400E-01
    -23.940  0.0000E+00  0.0000E+00  0.2400E-01  0.2400E-01
    -23.747  0.0000E+00  0.0000E+00  0.2400E-01  0.2400E-01
    -23.554  0.0000E+00  0.0000E+00  0.2400E-01  0.2400E-01
    -23.362  0.0000E+00  0.0000E+00  0.2400E-01  0.2400E-01
    -23.169  0.0000E+00  0.0000E+00  0.2400E-01  0.2400E-01
    -22.977  0.0000E+00  0.0000E+00  0.2400E-01  0.2400E-01
    -22.784  0.0000E+00  0.0000E+00  0.2400E-01  0.2400E-01
    -22.591  0.0000E+00  0.0000E+00  0.2400E-01  0.2400E-01
    -22.399  0.0000E+00  0.0000E+00  0.2400E-01  0.2400E-01
    -22.206  0.0000E+00  0.0000E+00  0.2400E-01  0.2400E-01
    -22.013  0.0000E+00  0.0000E+00  0.2400E-01  0.2400E-01
    -21.821  0.0000E+00  0.0000E+00  0.2400E-01  0.2400E-01
    -21.628  0.0000E+00  0.0000E+00  0.2400E-01  0.2400E-01
    -21.436  0.0000E+00  0.0000E+00  0.2400E-01  0.2400E-01
    -21.243  0.0000E+00  0.0000E+00  0.2400E-01  0.2400E-01
    -21.050  0.0000E+00  0.0000E+00  0.2400E-01  0.2400E-01
    -20.858  0.0000E+00  0.0000E+00  0.2400E-01  0.2400E-01
    -20.665  0.0000E+00  0.0000E+00  0.2400E-01  0.2400E-01
    -20.472  0.0000E+00  0.0000E+00  0.2400E-01  0.2400E-01
    -20.280  0.0000E+00  0.0000E+00  0.2400E-01  0.2400E-01
    -20.087  0.0000E+00  0.0000E+00  0.2400E-01  0.2400E-01
    -19.894  0.0000E+00  0.0000E+00  0.2400E-01  0.2400E-01
    -19.702  0.0000E+00  0.0000E+00  0.2400E-01  0.2400E-01
    -19.509  0.0000E+00  0.0000E+00  0.2400E-01  0.2400E-01
    -19.317  0.0000E+00  0.0000E+00  0.2400E-01  0.2400E-01
    -19.124  0.0000E+00  0.0000E+00  0.2400E-01  0.2400E-01
    -18.931  0.0000E+00  0.0000E+00  0.2400E-01  0.2400E-01
    -18.739  0.0000E+00  0.0000E+00  0.2400E-01  0.2400E-01
    -18.546  0.0000E+00  0.0000E+00  0.2400E-01  0.2400E-01
    -18.353  0.0000E+00  0.0000E+00  0.2400E-01  0.2400E-01
    -18.161  0.0000E+00  0.0000E+00  0.2400E-01  0.2400E-01
    -17.968  0.0000E+00  0.0000E+00  0.2400E-01  0.2400E-01
    -17.776  0.0000E+00  0.0000E+00  0.2400E-01  0.2400E-01
    -17.583  0.0000E+00  0.0000E+00  0.2400E-01  0.2400E-01
    -17.390  0.0000E+00  0.0000E+00  0.2400E-01  0.2400E-01
    -17.198  0.0000E+00  0.0000E+00  0.2400E-01  0.2400E-01
    -17.005  0.0000E+00  0.0000E+00  0.2400E-01  0.2400E-01
    -16.812  0.0000E+00  0.0000E+00  0.2400E-01  0.2400E-01
    -16.620  0.0000E+00  0.0000E+00  0.2400E-01  0.2400E-01
    -16.427  0.0000E+00  0.0000E+00  0.2400E-01  0.2400E-01
    -16.235  0.0000E+00  0.0000E+00  0.2400E-01  0.2400E-01
    -16.042  0.0000E+00  0.0000E+00  0.2400E-01  0.2400E-01
    -15.849  0.0000E+00  0.0000E+00  0.2400E-01  0.2400E-01
    -15.657  0.0000E+00  0.0000E+00  0.2400E-01  0.2400E-01
    -15.464  0.0000E+00  0.0000E+00  0.2400E-01  0.2400E-01
    -15.271  0.0000E+00  0.0000E+00  0.2400E-01  0.2400E-01
    -15.079  0.0000E+00  0.0000E+00  0.2400E-01  0.2400E-01
    -14.886  0.0000E+00  0.0000E+00  0.2400E-01  0.2400E-01
    -14.694  0.0000E+00  0.0000E+00  0.2400E-01  0.2400E-01
    -14.501  0.0000E+00  0.0000E+00  0.2400E-01  0.2400E-01
    -14.308  0.0000E+00  0.0000E+00  0.2400E-01  0.2400E-01
    -14.116  0.0000E+00  0.0000E+00  0.2400E-01  0.2400E-01
    -13.923  0.0000E+00  0.0000E+00  0.2400E-01  0.2400E-01
    -13.730  0.0000E+00  0.0000E+00  0.2400E-01  0.2400E-01
    -13.538  0.0000E+00  0.0000E+00  0.2400E-01  0.2400E-01
    -13.345  0.0000E+00  0.0000E+00  0.2400E-01  0.2400E-01
    -13.152  0.7568E-12  0.7568E-12  0.2400E-01  0.2400E-01
    -12.960  0.1141E-01  0.1141E-01  0.2620E-01  0.2620E-01
    -12.767  0.9345E-02  0.9345E-02  0.2800E-01  0.2800E-01
    -12.575  0.1771E-01  0.1771E-01  0.3141E-01  0.3141E-01
    -12.382  0.3059E-02  0.3059E-02  0.3200E-01  0.3200E-01
    -12.189  0.0000E+00  0.0000E+00  0.3200E-01  0.3200E-01
    -11.997  0.0000E+00  0.0000E+00  0.3200E-01  0.3200E-01
    -11.804  0.0000E+00  0.0000E+00  0.3200E-01  0.3200E-01
    -11.611  0.0000E+00  0.0000E+00  0.3200E-01  0.3200E-01
    -11.419  0.0000E+00  0.0000E+00  0.3200E-01  0.3200E-01
    -11.226  0.0000E+00  0.0000E+00  0.3200E-01  0.3200E-01
    -11.034  0.0000E+00  0.0000E+00  0.3200E-01  0.3200E-01
    -10.841  0.0000E+00  0.0000E+00  0.3200E-01  0.3200E-01
    -10.648  0.0000E+00  0.0000E+00  0.3200E-01  0.3200E-01
    -10.456  0.0000E+00  0.0000E+00  0.3200E-01  0.3200E-01
    -10.263  0.2252E-02  0.2252E-02  0.3243E-01  0.3243E-01
    -10.070  0.1774E-01  0.1774E-01  0.3585E-01  0.3585E-01
     -9.878  0.3213E-01  0.3213E-01  0.4204E-01  0.4204E-01
     -9.685  0.1016E-01  0.1016E-01  0.4400E-01  0.4400E-01
     -9.493  0.0000E+00  0.0000E+00  0.4400E-01  0.4400E-01
     -9.300  0.0000E+00  0.0000E+00  0.4400E-01  0.4400E-01
     -9.107  0.0000E+00  0.0000E+00  0.4400E-01  0.4400E-01
     -8.915  0.0000E+00  0.0000E+00  0.4400E-01  0.4400E-01
     -8.722  0.0000E+00  0.0000E+00  0.4400E-01  0.4400E-01
     -8.529  0.0000E+00  0.0000E+00  0.4400E-01  0.4400E-01
     -8.337  0.3065E-02  0.3065E-02  0.4459E-01  0.4459E-01
     -8.144  0.1770E-01  0.1770E-01  0.4800E-01  0.4800E-01
     -7.951  0.0000E+00  0.0000E+00  0.4800E-01  0.4800E-01
     -7.759  0.0000E+00  0.0000E+00  0.4800E-01  0.4800E-01
     -7.566  0.0000E+00  0.0000E+00  0.4800E-01  0.4800E-01
     -7.374  0.0000E+00  0.0000E+00  0.4800E-01  0.4800E-01
     -7.181  0.0000E+00  0.0000E+00  0.4800E-01  0.4800E-01
     -6.988  0.0000E+00  0.0000E+00  0.4800E-01  0.4800E-01
     -6.796  0.0000E+00  0.0000E+00  0.4800E-01  0.4800E-01
     -6.603  0.0000E+00  0.0000E+00  0.4800E-01  0.4800E-01
     -6.410  0.0000E+00  0.0000E+00  0.4800E-01  0.4800E-01
     -6.218  0.3601E-10  0.3601E-10  0.4800E-01  0.4800E-01
     -6.025  0.5189E-02  0.5189E-02  0.4900E-01  0.4900E-01
     -5.833  0.1780E-11  0.1780E-11  0.4900E-01  0.4900E-01
     -5.640  0.7093E-02  0.7093E-02  0.5037E-01  0.5037E-01
     -5.447  0.8477E-02  0.8477E-02  0.5200E-01  0.5200E-01
     -5.255  0.0000E+00  0.0000E+00  0.5200E-01  0.5200E-01
     -5.062  0.0000E+00  0.0000E+00  0.5200E-01  0.5200E-01
     -4.869  0.0000E+00  0.0000E+00  0.5200E-01  0.5200E-01
     -4.677  0.0000E+00  0.0000E+00  0.5200E-01  0.5200E-01
     -4.484  0.0000E+00  0.0000E+00  0.5200E-01  0.5200E-01
     -4.292  0.0000E+00  0.0000E+00  0.5200E-01  0.5200E-01
     -4.099  0.0000E+00  0.0000E+00  0.5200E-01  0.5200E-01
     -3.906  0.0000E+00  0.0000E+00  0.5200E-01  0.5200E-01
     -3.714  0.0000E+00  0.0000E+00  0.5200E-01  0.5200E-01
     -3.521  0.0000E+00  0.0000E+00  0.5200E-01  0.5200E-01
     -3.328  0.1385E-10  0.1385E-10  0.5200E-01  0.5200E-01
     -3.136  0.1339E-01  0.1339E-01  0.5458E-01  0.5458E-01
     -2.943  0.2177E-02  0.2177E-02  0.5500E-01  0.5500E-01
     -2.750  0.5217E-02  0.5217E-02  0.5600E-01  0.5600E-01
     -2.558  0.1043E-01  0.1043E-01  0.5801E-01  0.5801E-01
     -2.365  0.1804E-01  0.1804E-01  0.6149E-01  0.6149E-01
     -2.173  0.1300E-01  0.1300E-01  0.6399E-01  0.6399E-01
     -1.980  0.3668E-04  0.3668E-04  0.6400E-01  0.6400E-01
     -1.787  0.0000E+00  0.0000E+00  0.6400E-01  0.6400E-01
     -1.595  0.3027E-05  0.3027E-05  0.6400E-01  0.6400E-01
     -1.402  0.2140E-01  0.2140E-01  0.6812E-01  0.6812E-01
     -1.209  0.2013E-01  0.2013E-01  0.7200E-01  0.7200E-01
     -1.017  0.2059E-01  0.2059E-01  0.7597E-01  0.7597E-01
     -0.824  0.1269E-03  0.1269E-03  0.7600E-01  0.7600E-01
     -0.632  0.3955E-06  0.3955E-06  0.7600E-01  0.7600E-01
     -0.439  0.1368E-01  0.1368E-01  0.7864E-01  0.7864E-01
     -0.246  0.1065E-01  0.1065E-01  0.8069E-01  0.8069E-01
     -0.054  0.1643E-01  0.1643E-01  0.8385E-01  0.8385E-01
      0.139  0.2918E-01  0.2918E-01  0.8948E-01  0.8948E-01
      0.332  0.1946E-01  0.1946E-01  0.9324E-01  0.9324E-01
      0.524  0.1433E-01  0.1433E-01  0.9600E-01  0.9600E-01
      0.717  0.9740E-03  0.9740E-03  0.9619E-01  0.9619E-01
      0.909  0.1767E-01  0.1767E-01  0.9959E-01  0.9959E-01
      1.102  0.2106E-01  0.2106E-01  0.1036E+00  0.1036E+00
      1.295  0.2159E-01  0.2159E-01  0.1078E+00  0.1078E+00
      1.487  0.2865E-01  0.2865E-01  0.1133E+00  0.1133E+00
      1.680  0.2539E-01  0.2539E-01  0.1182E+00  0.1182E+00
      1.873  0.9228E-02  0.9228E-02  0.1200E+00  0.1200E+00
      2.065  0.0000E+00  0.0000E+00  0.1200E+00  0.1200E+00
      2.258  0.0000E+00  0.0000E+00  0.1200E+00  0.1200E+00
      2.451  0.0000E+00  0.0000E+00  0.1200E+00  0.1200E+00
      2.643  0.0000E+00  0.0000E+00  0.1200E+00  0.1200E+00
      2.836  0.0000E+00  0.0000E+00  0.1200E+00  0.1200E+00
      3.028  0.0000E+00  0.0000E+00  0.1200E+00  0.1200E+00
      3.221  0.0000E+00  0.0000E+00  0.1200E+00  0.1200E+00
      3.414  0.0000E+00  0.0000E+00  0.1200E+00  0.1200E+00
      3.606  0.0000E+00  0.0000E+00  0.1200E+00  0.1200E+00
      3.799  0.0000E+00  0.0000E+00  0.1200E+00  0.1200E+00
      3.992  0.0000E+00  0.0000E+00  0.1200E+00  0.1200E+00
      4.184  0.0000E+00  0.0000E+00  0.1200E+00  0.1200E+00
      4.377  0.1668E-06  0.1668E-06  0.1200E+00  0.1200E+00
      4.569  0.5191E-02  0.5191E-02  0.1210E+00  0.1210E+00
      4.762  0.0000E+00  0.0000E+00  0.1210E+00  0.1210E+00
      4.955  0.0000E+00  0.0000E+00  0.1210E+00  0.1210E+00
      5.147  0.1112E-08  0.1112E-08  0.1210E+00  0.1210E+00
      5.340  0.1010E-01  0.1010E-01  0.1229E+00  0.1229E+00
      5.533  0.5475E-02  0.5475E-02  0.1240E+00  0.1240E+00
      5.725  0.0000E+00  0.0000E+00  0.1240E+00  0.1240E+00
      5.918  0.2324E-02  0.2324E-02  0.1244E+00  0.1244E+00
      6.110  0.1378E-01  0.1377E-01  0.1271E+00  0.1271E+00
      6.303  0.1363E-01  0.1363E-01  0.1297E+00  0.1297E+00
      6.496  0.2225E-02  0.2225E-02  0.1302E+00  0.1302E+00
      6.688  0.1275E-01  0.1275E-01  0.1326E+00  0.1326E+00
      6.881  0.1169E-01  0.1169E-01  0.1349E+00  0.1349E+00
      7.074  0.5893E-02  0.5893E-02  0.1360E+00  0.1360E+00
      7.266  0.5187E-02  0.5187E-02  0.1370E+00  0.1370E+00
      7.459  0.5873E-02  0.5873E-02  0.1381E+00  0.1381E+00
      7.651  0.1188E-01  0.1188E-01  0.1404E+00  0.1404E+00
      7.844  0.9643E-02  0.9643E-02  0.1423E+00  0.1423E+00
      8.037  0.1045E-01  0.1045E-01  0.1443E+00  0.1443E+00
      8.229  0.1648E-01  0.1648E-01  0.1475E+00  0.1475E+00
      8.422  0.1664E-01  0.1664E-01  0.1507E+00  0.1507E+00
      8.615  0.1280E-01  0.1280E-01  0.1531E+00  0.1531E+00
      8.807  0.1853E-01  0.1853E-01  0.1567E+00  0.1567E+00
      9.000  0.1458E-01  0.1458E-01  0.1595E+00  0.1595E+00
      9.193  0.1506E-01  0.1506E-01  0.1624E+00  0.1624E+00
      9.385  0.1604E-01  0.1604E-01  0.1655E+00  0.1655E+00
      9.578  0.2019E-01  0.2020E-01  0.1694E+00  0.1694E+00
      9.770  0.1599E-01  0.1598E-01  0.1725E+00  0.1725E+00
      9.963  0.1443E-01  0.1382E-01  0.1753E+00  0.1752E+00
     10.156  0.3766E-02  0.4399E-02  0.1760E+00  0.1760E+00
     10.348  0.0000E+00  0.0000E+00  0.1760E+00  0.1760E+00
     10.541  0.0000E+00  0.0000E+00  0.1760E+00  0.1760E+00
     10.734  0.0000E+00  0.0000E+00  0.1760E+00  0.1760E+00
     10.926  0.0000E+00  0.0000E+00  0.1760E+00  0.1760E+00
     11.119  0.0000E+00  0.0000E+00  0.1760E+00  0.1760E+00
     11.311  0.0000E+00  0.0000E+00  0.1760E+00  0.1760E+00
     11.504  0.0000E+00  0.0000E+00  0.1760E+00  0.1760E+00
     11.697  0.0000E+00  0.0000E+00  0.1760E+00  0.1760E+00
     11.889  0.0000E+00  0.0000E+00  0.1760E+00  0.1760E+00
     12.082  0.0000E+00  0.0000E+00  0.1760E+00  0.1760E+00
     12.275  0.0000E+00  0.0000E+00  0.1760E+00  0.1760E+00
     12.467  0.0000E+00  0.0000E+00  0.1760E+00  0.1760E+00
     12.660  0.0000E+00  0.0000E+00  0.1760E+00  0.1760E+00
