 vasp.6.4.1 05Apr23 (build Jun 07 2023 15:38:11) complex                        
  
 executed on             LinuxIFC date 2023.10.19  14:30:09
 running  128 mpi-ranks, with    1 threads/rank, on    1 nodes
 distrk:  each k-point on  128 cores,    1 groups
 distr:  one band on NCORE=  32 cores,    4 groups


--------------------------------------------------------------------------------------------------------


 INCAR:
   GGA = PE
   PREC = Accu
   EDIFF = 1.e-6
   EDIFFG = -1.e-3
   ENCUT = 520.
   NELM = 100
   NELMDL = -10
   LASPH = .TRUE.
   LREAL = Auto
   LMAXMIX = 4
   ISPIN = 2
   LDIAG = .TRUE.
   LPLANE = .TRUE.
   IVDW = 12
   SIGMA = 0.03
   ISMEAR = 0
   NSW = 1000    number of steps for IOM
   IBRION = 2    ionic relax: 0-MD 1-quasi-New 2-CG
   ISIF = 2    ionic relaxation + stress tensor calcn.
   LCHARG = .FALSE.
   LWAVE = .FALSE.
   ALGO = F
   KPAR = 1
   NPAR = 4
   POTIM = 0.2

 POTCAR:    PAW_PBE Li_sv_GW 25Mar2010            
 POTCAR:    PAW_PBE P_GW 19Mar2012                
 POTCAR:    PAW_PBE S_GW 19Mar2012                
 POTCAR:    PAW_PBE Cl_GW 19Mar2012               
 -----------------------------------------------------------------------------
|                                                                             |
|           W    W    AA    RRRRR   N    N  II  N    N   GGGG   !!!           |
|           W    W   A  A   R    R  NN   N  II  NN   N  G    G  !!!           |
|           W    W  A    A  R    R  N N  N  II  N N  N  G       !!!           |
|           W WW W  AAAAAA  RRRRR   N  N N  II  N  N N  G  GGG   !            |
|           WW  WW  A    A  R   R   N   NN  II  N   NN  G    G                |
|           W    W  A    A  R    R  N    N  II  N    N   GGGG   !!!           |
|                                                                             |
|     You use a magnetic or noncollinear calculation, but did not specify     |
|     the initial magnetic moment with the MAGMOM tag. Note that a            |
|     default of 1 will be used for all atoms. This ferromagnetic setup       |
|     may break the symmetry of the crystal, in particular it may rule        |
|     out finding an antiferromagnetic solution. Thence, we recommend         |
|     setting the initial magnetic moment manually or verifying carefully     |
|     that this magnetic setup is desired.                                    |
|                                                                             |
 -----------------------------------------------------------------------------

 POTCAR:    PAW_PBE Li_sv_GW 25Mar2010            
   SHA256 =  24a6ace15a582615486b36ce4dc781b048409f4015b7684ed1273ae395fa2fdc Li_sv_GW/POTCAR       
   COPYR  = (c) Copyright 25Mar2010 Georg Kresse                                                    
   COPYR  = This file is part of the software VASP. Any use, copying, and all other rights are regul
   COPYR  = If you do not have a valid VASP license, you may not use, copy or distribute this file. 
   VRHFIN =Li: 1s2s                                                                                 
   LEXCH  = PE                                                                                      
   EATOM  =   200.9989 eV,   14.7730 Ry                                                             
                                                                                                    
   TITEL  = PAW_PBE Li_sv_GW 25Mar2010                                                              
   LULTRA =        F    use ultrasoft PP ?                                                          
   IUNSCR =        0    unscreen: 0-lin 1-nonlin 2-no                                               
   RPACOR =    0.000    partial core radius                                                         
   POMASS =    7.010; ZVAL   =    3.000    mass and valenz                                          
   RCORE  =    1.500    outmost cutoff radius                                                       
   RWIGS  =    1.600; RWIGS  =    0.847    wigner-seitz radius (au A)                               
   ENMAX  =  433.699; ENMIN  =  325.274 eV                                                          
   RCLOC  =    1.003    cutoff for local pot                                                        
   LCOR   =        T    correct aug charges                                                         
   LPAW   =        T    paw PP                                                                      
   EAUG   = 1041.699                                                                                
   RMAX   =    1.536    core radius for proj-oper                                                   
   RAUG   =    1.300    factor for augmentation sphere                                              
   RDEP   =    1.520    radius for radial grids                                                     
   RDEPT  =    1.300    core radius for aug-charge                                                  
                                                                                                    
   Atomic configuration                                                                             
    4 entries                                                                                       
     n  l   j            E        occ.                                                              
     1  0  0.50       -53.3604   2.0000                                                             
     1  0  0.50       -52.0001   0.0000                                                             
     2  1  0.50        -1.5636   1.0000                                                             
     3  2  1.50        -1.3606   0.0000                                                             
   Description                                                                                      
     l       E           TYP  RCUT    TYP  RCUT                                                     
     0    -53.3603633     23  1.200                                                                 
     0    -52.0001064     23  1.200                                                                 
     0    176.8757380     23  1.300                                                                 
     1     -1.5635925     23  1.500                                                                 
     1    108.8466080     23  1.500                                                                 
     2     81.6349560     23  1.500                                                                 
  local pseudopotential read in
  kinetic energy density of atom read in
  atomic valenz-charges read in
  non local Contribution for L=           0  read in
    real space projection operators read in
  non local Contribution for L=           0  read in
    real space projection operators read in
  non local Contribution for L=           0  read in
    real space projection operators read in
  non local Contribution for L=           1  read in
    real space projection operators read in
  non local Contribution for L=           1  read in
    real space projection operators read in
  non local Contribution for L=           2  read in
    real space projection operators read in
    PAW grid and wavefunctions read in
 
   number of l-projection  operators is LMAX  =           6
   number of lm-projection operators is LMMAX =          14
 
 POTCAR:    PAW_PBE P_GW 19Mar2012                
   SHA256 =  715c28f2291d37b61637ce89646c59f66f71c8b8d8bfba631e5feb9f7b42defe P_GW/POTCAR           
   COPYR  = (c) Copyright 19Mar2012 Georg Kresse                                                    
   COPYR  = This file is part of the software VASP. Any use, copying, and all other rights are regul
   COPYR  = If you do not have a valid VASP license, you may not use, copy or distribute this file. 
   VRHFIN =P : s2p3                                                                                 
   LEXCH  = PE                                                                                      
   EATOM  =   176.0430 eV,   12.9388 Ry                                                             
                                                                                                    
   TITEL  = PAW_PBE P_GW 19Mar2012                                                                  
   LULTRA =        F    use ultrasoft PP ?                                                          
   IUNSCR =        1    unscreen: 0-lin 1-nonlin 2-no                                               
   RPACOR =    1.400    partial core radius                                                         
   POMASS =   30.974; ZVAL   =    5.000    mass and valenz                                          
   RCORE  =    2.000    outmost cutoff radius                                                       
   RWIGS  =    1.900; RWIGS  =    1.005    wigner-seitz radius (au A)                               
   ENMAX  =  255.040; ENMIN  =  191.280 eV                                                          
   ICORE  =        3    local potential                                                             
   LCOR   =        T    correct aug charges                                                         
   LPAW   =        T    paw PP                                                                      
   EAUG   =  499.732                                                                                
   DEXC   =    0.000                                                                                
   RMAX   =    2.047    core radius for proj-oper                                                   
   RAUG   =    1.300    factor for augmentation sphere                                              
   RDEP   =    2.059    radius for radial grids                                                     
   RDEPT  =    1.900    core radius for aug-charge                                                  
                                                                                                    
   Atomic configuration                                                                             
    7 entries                                                                                       
     n  l   j            E        occ.                                                              
     1  0  0.50     -2084.0982   2.0000                                                             
     2  0  0.50      -173.9859   2.0000                                                             
     2  1  1.50      -124.4865   6.0000                                                             
     3  0  0.50       -13.9692   2.0000                                                             
     3  1  0.50        -5.5067   3.0000                                                             
     3  2  1.50        -6.8029   0.0000                                                             
     4  3  2.50        -1.3606   0.0000                                                             
   Description                                                                                      
     l       E           TYP  RCUT    TYP  RCUT                                                     
     0    -13.9691528     23  1.900                                                                 
     0    102.0436950     23  1.900                                                                 
     1     -5.5066939     23  1.900                                                                 
     1    102.0436950     23  1.900                                                                 
     2     -8.1634956     23  2.000                                                                 
     2     81.6349560     23  2.000                                                                 
     3     27.2116520     23  2.000                                                                 
  local pseudopotential read in
  partial core-charges read in
  partial kinetic energy density read in
  kinetic energy density of atom read in
  atomic valenz-charges read in
  non local Contribution for L=           0  read in
    real space projection operators read in
  non local Contribution for L=           0  read in
    real space projection operators read in
  non local Contribution for L=           1  read in
    real space projection operators read in
  non local Contribution for L=           1  read in
    real space projection operators read in
  non local Contribution for L=           2  read in
    real space projection operators read in
  non local Contribution for L=           2  read in
    real space projection operators read in
    PAW grid and wavefunctions read in
 
   number of l-projection  operators is LMAX  =           6
   number of lm-projection operators is LMMAX =          18
 
 POTCAR:    PAW_PBE S_GW 19Mar2012                
   SHA256 =  357db9cfb0783579b2eebe03197c2d807131fea8ea663b1fcfb6ce2fa75af011 S_GW/POTCAR           
   COPYR  = (c) Copyright 19Mar2012 Georg Kresse                                                    
   COPYR  = This file is part of the software VASP. Any use, copying, and all other rights are regul
   COPYR  = If you do not have a valid VASP license, you may not use, copy or distribute this file. 
   VRHFIN =S : s2p4                                                                                 
   LEXCH  = PE                                                                                      
   EATOM  =   276.8230 eV,   20.3459 Ry                                                             
                                                                                                    
   TITEL  = PAW_PBE S_GW 19Mar2012                                                                  
   LULTRA =        F    use ultrasoft PP ?                                                          
   IUNSCR =        1    unscreen: 0-lin 1-nonlin 2-no                                               
   RPACOR =    1.400    partial core radius                                                         
   POMASS =   32.066; ZVAL   =    6.000    mass and valenz                                          
   RCORE  =    1.900    outmost cutoff radius                                                       
   RWIGS  =    1.900; RWIGS  =    1.005    wigner-seitz radius (au A)                               
   ENMAX  =  258.689; ENMIN  =  194.016 eV                                                          
   ICORE  =        3    local potential                                                             
   LCOR   =        T    correct aug charges                                                         
   LPAW   =        T    paw PP                                                                      
   EAUG   =  488.319                                                                                
   DEXC   =    0.000                                                                                
   RMAX   =    1.942    core radius for proj-oper                                                   
   RAUG   =    1.300    factor for augmentation sphere                                              
   RDEP   =    1.954    radius for radial grids                                                     
   RDEPT  =    1.900    core radius for aug-charge                                                  
                                                                                                    
   Atomic configuration                                                                             
    7 entries                                                                                       
     n  l   j            E        occ.                                                              
     1  0  0.50     -2405.8406   2.0000                                                             
     2  0  0.50      -211.7007   2.0000                                                             
     2  1  1.50      -156.4958   6.0000                                                             
     3  0  0.50       -17.2562   2.0000                                                             
     3  1  0.50        -7.0085   4.0000                                                             
     3  2  1.50        -8.1635   0.0000                                                             
     4  3  2.50        -1.3606   0.0000                                                             
   Description                                                                                      
     l       E           TYP  RCUT    TYP  RCUT                                                     
     0    -17.2561639     23  1.700                                                                 
     0     88.4378690     23  1.900                                                                 
     1     -7.0085399     23  1.900                                                                 
     1     88.4378690     23  1.900                                                                 
     2    -10.8846608     23  1.900                                                                 
     2     54.4233040     23  1.900                                                                 
     3     27.2116520     23  1.800                                                                 
  local pseudopotential read in
  partial core-charges read in
  partial kinetic energy density read in
  kinetic energy density of atom read in
  atomic valenz-charges read in
  non local Contribution for L=           0  read in
    real space projection operators read in
  non local Contribution for L=           0  read in
    real space projection operators read in
  non local Contribution for L=           1  read in
    real space projection operators read in
  non local Contribution for L=           1  read in
    real space projection operators read in
  non local Contribution for L=           2  read in
    real space projection operators read in
  non local Contribution for L=           2  read in
    real space projection operators read in
    PAW grid and wavefunctions read in
 
   number of l-projection  operators is LMAX  =           6
   number of lm-projection operators is LMMAX =          18
 
 POTCAR:    PAW_PBE Cl_GW 19Mar2012               
   SHA256 =  3ef3b3169d6a9a89979f58b4cf17d927a58518fc660d8883d88cacaee8175441 Cl_GW/POTCAR          
   COPYR  = (c) Copyright 19Mar2012 Georg Kresse                                                    
   COPYR  = This file is part of the software VASP. Any use, copying, and all other rights are regul
   COPYR  = If you do not have a valid VASP license, you may not use, copy or distribute this file. 
   VRHFIN =Cl: s2p5                                                                                 
   LEXCH  = PE                                                                                      
   EATOM  =   409.7259 eV,   30.1140 Ry                                                             
                                                                                                    
   TITEL  = PAW_PBE Cl_GW 19Mar2012                                                                 
   LULTRA =        F    use ultrasoft PP ?                                                          
   IUNSCR =        1    unscreen: 0-lin 1-nonlin 2-no                                               
   RPACOR =    1.400    partial core radius                                                         
   POMASS =   35.453; ZVAL   =    7.000    mass and valenz                                          
   RCORE  =    1.900    outmost cutoff radius                                                       
   RWIGS  =    1.900; RWIGS  =    1.005    wigner-seitz radius (au A)                               
   ENMAX  =  262.472; ENMIN  =  196.854 eV                                                          
   ICORE  =        3    local potential                                                             
   LCOR   =        T    correct aug charges                                                         
   LPAW   =        T    paw PP                                                                      
   EAUG   =  456.703                                                                                
   DEXC   =    0.000                                                                                
   RMAX   =    1.945    core radius for proj-oper                                                   
   RAUG   =    1.300    factor for augmentation sphere                                              
   RDEP   =    2.020    radius for radial grids                                                     
   RDEPT  =    1.900    core radius for aug-charge                                                  
                                                                                                    
   Atomic configuration                                                                             
    7 entries                                                                                       
     n  l   j            E        occ.                                                              
     1  0  0.50     -2751.1850   2.0000                                                             
     2  0  0.50      -252.6861   2.0000                                                             
     2  1  1.50      -191.6157   6.0000                                                             
     3  0  0.50       -20.6916   2.0000                                                             
     3  1  0.50        -8.5949   5.0000                                                             
     3  2  1.50        -9.5241   0.0000                                                             
     4  3  2.50        -9.5241   0.0000                                                             
   Description                                                                                      
     l       E           TYP  RCUT    TYP  RCUT                                                     
     0    -20.6915657     23  1.700                                                                 
     0     95.2407820     23  1.800                                                                 
     1     -8.5948577     23  1.900                                                                 
     1     95.2407820     23  1.900                                                                 
     2    -10.8846608     23  1.900                                                                 
     2     54.4233040     23  1.900                                                                 
     3     27.2116520     23  1.900                                                                 
  local pseudopotential read in
  partial core-charges read in
  partial kinetic energy density read in
  kinetic energy density of atom read in
  atomic valenz-charges read in
  non local Contribution for L=           0  read in
    real space projection operators read in
  non local Contribution for L=           0  read in
    real space projection operators read in
  non local Contribution for L=           1  read in
    real space projection operators read in
  non local Contribution for L=           1  read in
    real space projection operators read in
  non local Contribution for L=           2  read in
    real space projection operators read in
  non local Contribution for L=           2  read in
    real space projection operators read in
    PAW grid and wavefunctions read in
 
   number of l-projection  operators is LMAX  =           6
   number of lm-projection operators is LMMAX =          18
 
 Optimization of the real space projectors (new method)

 maximal supplied QI-value         = 25.13
 optimisation between [QCUT,QGAM] = [ 11.56, 23.12] = [ 37.43,149.72] Ry 
 Optimized for a Real-space Cutoff    1.28 Angstroem

   l    n(q)    QCUT    max X(q) W(low)/X(q) W(high)/X(q)  e(spline) 
   0      9    11.561    87.733    0.11E-03    0.32E-04    0.56E-06
   0      9    11.561    82.800    0.11E-03    0.35E-04    0.56E-06
   0      9    11.561     2.509    0.22E-03    0.42E-04    0.79E-06
   1      8    11.561    12.580    0.94E-04    0.26E-03    0.21E-06
   1      8    11.561     1.319    0.33E-04    0.15E-03    0.19E-06
   2      8    11.561     1.993    0.36E-04    0.89E-04    0.26E-06
 Optimization of the real space projectors (new method)

 maximal supplied QI-value         = 18.90
 optimisation between [QCUT,QGAM] = [ 11.53, 23.24] = [ 37.21,151.29] Ry 
 Optimized for a Real-space Cutoff    1.21 Angstroem

   l    n(q)    QCUT    max X(q) W(low)/X(q) W(high)/X(q)  e(spline) 
   0      8    11.527     8.355    0.73E-04    0.70E-04    0.26E-07
   0      8    11.527     1.401    0.17E-03    0.17E-03    0.63E-07
   1      8    11.527     4.747    0.13E-03    0.17E-03    0.11E-06
   1      8    11.527     2.025    0.16E-03    0.18E-03    0.12E-06
   2      7    11.527     3.169    0.51E-04    0.25E-03    0.60E-07
   2      7    11.527     3.441    0.82E-04    0.22E-03    0.14E-06
 Optimization of the real space projectors (new method)

 maximal supplied QI-value         = 19.84
 optimisation between [QCUT,QGAM] = [ 11.51, 23.22] = [ 37.09,150.92] Ry 
 Optimized for a Real-space Cutoff    1.49 Angstroem

   l    n(q)    QCUT    max X(q) W(low)/X(q) W(high)/X(q)  e(spline) 
   0     10    11.508     7.541    0.34E-04    0.13E-04    0.69E-07
   0     10    11.508     1.809    0.49E-04    0.27E-04    0.14E-06
   1     10    11.508     4.107    0.27E-05    0.41E-05    0.14E-06
   1     10    11.508     2.196    0.26E-05    0.25E-05    0.22E-06
   2      9    11.508     4.265    0.18E-03    0.11E-03    0.81E-06
   2      9    11.508     1.925    0.97E-04    0.76E-04    0.47E-06
 Optimization of the real space projectors (new method)

 maximal supplied QI-value         = 19.84
 optimisation between [QCUT,QGAM] = [ 11.51, 23.22] = [ 37.09,150.92] Ry 
 Optimized for a Real-space Cutoff    1.21 Angstroem

   l    n(q)    QCUT    max X(q) W(low)/X(q) W(high)/X(q)  e(spline) 
   0      8    11.508     6.761    0.57E-04    0.57E-04    0.35E-07
   0      8    11.508     1.642    0.14E-03    0.14E-03    0.91E-07
   1      8    11.508     3.519    0.20E-04    0.72E-04    0.47E-07
   1      8    11.508     2.150    0.27E-04    0.11E-03    0.89E-07
   2      7    11.508     2.976    0.19E-03    0.33E-03    0.16E-06
   2      7    11.508     1.494    0.14E-03    0.29E-03    0.14E-06
  PAW_PBE Li_sv_GW 25Mar2010            :
 energy of atom  1       EATOM= -200.9989
 kinetic energy error for atom=    0.0127 (will be added to EATOM!!)
  PAW_PBE P_GW 19Mar2012                :
 energy of atom  2       EATOM= -176.0430
 kinetic energy error for atom=    0.0011 (will be added to EATOM!!)
  PAW_PBE S_GW 19Mar2012                :
 energy of atom  3       EATOM= -276.8230
 kinetic energy error for atom=    0.0024 (will be added to EATOM!!)
  PAW_PBE Cl_GW 19Mar2012               :
 energy of atom  4       EATOM= -409.7259
 kinetic energy error for atom=    0.0030 (will be added to EATOM!!)
 
 
 POSCAR: Li24 P4 S20 Cl4
  positions in direct lattice
  velocities in cartesian coordinates
 exchange correlation table for  LEXCH =        8
   RHO(1)=    0.500       N(1)  =     2000
   RHO(2)=  100.500       N(2)  =     4000

 VTST: version 4.1, (05/19/21)

 CHAIN: initializing optimizer
 
 OPT: Using VASP Conjugate-Gradient optimizer
 CHAIN: Read ICHAIN            0
 
 POSCAR: Li24 P4 S20 Cl4
  positions in direct lattice
  velocities in cartesian coordinates
 


--------------------------------------------------------------------------------------------------------


 ion  position               nearest neighbor table
   1  0.983  0.197  0.211-
   2  0.974  0.691  0.710-
   3  0.044  0.150  0.812-
   4  0.010  0.794  0.203-
   5  0.286  0.310  0.974-
   6  0.316  0.657  0.045-
   7  0.786  0.192  0.024-
   8  0.816  0.845  0.952-
   9  0.212  0.984  0.170-
  10  0.316  0.008  0.718-
  11  0.679  0.961  0.662-
  12  0.676  0.052  0.326-
  13  0.281  0.811  0.480-
  14  0.330  0.192  0.513-
  15  0.781  0.691  0.518-
  16  0.830  0.310  0.484-
  17  0.176  0.450  0.672-
  18  0.179  0.540  0.336-
  19  0.815  0.494  0.279-
  20  0.712  0.517  0.827-
  21  0.483  0.305  0.787-
  22  0.474  0.811  0.288-
  23  0.543  0.351  0.185-
  24  0.510  0.707  0.794-
  25  0.497  0.503  0.491-  44 2.05  42 2.05  43 2.06  41 2.06
  26  0.504  0.005  0.004-  38 2.05  39 2.05  37 2.05  40 2.06
  27  0.004  0.496  0.994-  35 2.05  34 2.05  36 2.05  33 2.06
  28  0.997  0.999  0.506-  32 2.05  30 2.05  31 2.06  29 2.06
  29  0.113  0.880  0.641-  28 2.06
  30  0.129  0.113  0.385-  28 2.05
  31  0.866  0.884  0.384-  28 2.06
  32  0.874  0.120  0.628-  28 2.05
  33  0.866  0.630  0.088-  27 2.06
  34  0.897  0.360  0.871-  27 2.05
  35  0.138  0.606  0.871-  27 2.05
  36  0.120  0.392  0.138-  27 2.05
  37  0.620  0.110  0.860-  26 2.05
  38  0.638  0.896  0.127-  26 2.05
  39  0.397  0.142  0.127-  26 2.05
  40  0.366  0.872  0.910-  26 2.06
  41  0.613  0.622  0.357-  25 2.06
  42  0.629  0.388  0.612-  25 2.05
  43  0.366  0.618  0.614-  25 2.06
  44  0.374  0.382  0.369-  25 2.05
  45  0.742  0.744  0.746-
  46  0.759  0.265  0.254-
  47  0.242  0.758  0.251-
  48  0.259  0.237  0.744-
  49  0.994  0.016  0.028-
  50  0.981  0.520  0.497-
  51  0.481  0.982  0.501-
  52  0.495  0.485  0.970-
 
  LATTYP: Found a simple cubic cell.
 ALAT       =     9.6541060979
  
  Lattice vectors:
  
 A1 = (   9.6541060979,   0.0000000000,   0.0000000000)
 A2 = (   0.0000000000,   9.6541060979,   0.0000000000)
 A3 = (   0.0000000000,   0.0000000000,   9.6541060979)


Analysis of symmetry for initial positions (statically):
=====================================================================
 Subroutine PRICEL returns:
 Original cell was already a primitive cell.
 

 Routine SETGRP: Setting up the symmetry group for a 
 simple cubic supercell.


 Subroutine GETGRP returns: Found  1 space group operations
 (whereof  1 operations were pure point group operations)
 out of a pool of 48 trial point group operations.


The static configuration has the point symmetry C_1 .


Analysis of symmetry for dynamics (positions and initial velocities):
=====================================================================
 Subroutine PRICEL returns:
 Original cell was already a primitive cell.
 

 Routine SETGRP: Setting up the symmetry group for a 
 simple cubic supercell.


 Subroutine GETGRP returns: Found  1 space group operations
 (whereof  1 operations were pure point group operations)
 out of a pool of 48 trial point group operations.


The dynamic configuration has the point symmetry C_1 .


Analysis of structural, dynamic, and magnetic symmetry:
=====================================================================
 Subroutine PRICEL returns:
 Original cell was already a primitive cell.
 

 Routine SETGRP: Setting up the symmetry group for a 
 simple cubic supercell.


 Subroutine GETGRP returns: Found  1 space group operations
 (whereof  1 operations were pure point group operations)
 out of a pool of 48 trial point group operations.


The overall configuration has the point symmetry C_1 .


 Subroutine INISYM returns: Found  1 space group operations
 (whereof  1 operations are pure point group operations),
 and found     1 'primitive' translations


----------------------------------------------------------------------------------------

                                     Primitive cell                                     

  volume of cell :     899.7797

  direct lattice vectors                    reciprocal lattice vectors
     9.654106098  0.000000000  0.000000000     0.103582868  0.000000000  0.000000000
     0.000000000  9.654106098  0.000000000     0.000000000  0.103582868  0.000000000
     0.000000000  0.000000000  9.654106098     0.000000000  0.000000000  0.103582868

  length of vectors
     9.654106098  9.654106098  9.654106098     0.103582868  0.103582868  0.103582868

  position of ions in fractional coordinates (direct lattice)
     0.983232441  0.196806303  0.211086379
     0.973915851  0.690675295  0.709946882
     0.043518682  0.150227276  0.812307794
     0.010255239  0.794466845  0.203330988
     0.285971595  0.310020639  0.973719225
     0.315894111  0.657107189  0.045324692
     0.785924958  0.191831699  0.023868682
     0.815793906  0.844612151  0.952488006
     0.212297216  0.984337277  0.169872061
     0.315591820  0.007970701  0.718207072
     0.679240248  0.961441592  0.662001809
     0.675984606  0.052004310  0.325989732
     0.280582559  0.810695708  0.480277430
     0.329629414  0.191540715  0.513386269
     0.780595179  0.690788967  0.517577198
     0.829820476  0.310176788  0.484167939
     0.175807529  0.449720298  0.671771251
     0.179159845  0.540268531  0.335709737
     0.815280187  0.493833530  0.279443524
     0.712329172  0.517249378  0.827474397
     0.483286699  0.304906371  0.786500552
     0.473847197  0.811312716  0.288014502
     0.543404349  0.351382449  0.185284505
     0.510251639  0.707213558  0.794461005
     0.497371598  0.502974064  0.491450728
     0.503931965  0.005220145  0.003573119
     0.003944000  0.496459631  0.994224477
     0.997419440  0.998637337  0.506197698
     0.112768636  0.879969385  0.640766667
     0.128957928  0.113428412  0.385189761
     0.866400678  0.883610523  0.383937152
     0.873589681  0.120077145  0.628395716
     0.866176700  0.629751504  0.087791424
     0.897329325  0.360121521  0.871126360
     0.137677870  0.606171752  0.871327872
     0.120233510  0.391642566  0.138204300
     0.620200933  0.110002279  0.859524089
     0.637629512  0.895546290  0.126504913
     0.397247642  0.141600723  0.126545738
     0.366140333  0.871955038  0.909968294
     0.612671429  0.621873880  0.357005191
     0.629013136  0.388154175  0.612318196
     0.366418848  0.617921548  0.613863521
     0.373550440  0.381643164  0.369193411
     0.742196940  0.743951473  0.746447909
     0.759318513  0.264568150  0.253587585
     0.242203983  0.757766507  0.251332651
     0.259359647  0.237191695  0.744022142
     0.994442269  0.016279252  0.027996741
     0.980721511  0.519575706  0.496939826
     0.480616727  0.982111760  0.500871881
     0.494524350  0.485366605  0.969633812

  ion indices of the primitive-cell ions
   primitive index   ion index
                 1           1
                 2           2
                 3           3
                 4           4
                 5           5
                 6           6
                 7           7
                 8           8
                 9           9
                10          10
                11          11
                12          12
                13          13
                14          14
                15          15
                16          16
                17          17
                18          18
                19          19
                20          20
                21          21
                22          22
                23          23
                24          24
                25          25
                26          26
                27          27
                28          28
                29          29
                30          30
                31          31
                32          32
                33          33
                34          34
                35          35
                36          36
                37          37
                38          38
                39          39
                40          40
                41          41
                42          42
                43          43
                44          44
                45          45
                46          46
                47          47
                48          48
                49          49
                50          50
                51          51
                52          52

----------------------------------------------------------------------------------------

 
 
 KPOINTS: Automatic mesh                          

Automatic generation of k-mesh.
 Grid dimensions read from file:
 generate k-points for:    2    2    2

 Generating k-lattice:

  Cartesian coordinates                     Fractional coordinates (reciprocal lattice)
     0.051791434  0.000000000  0.000000000     0.500000000  0.000000000  0.000000000
     0.000000000  0.051791434  0.000000000     0.000000000  0.500000000  0.000000000
     0.000000000  0.000000000  0.051791434     0.000000000  0.000000000  0.500000000

  Length of vectors
     0.051791434  0.051791434  0.051791434

  Shift w.r.t. Gamma in fractional coordinates (k-lattice)
     0.500000000  0.500000000  0.500000000

 
 Subroutine IBZKPT returns following result:
 ===========================================
 
 Found      4 irreducible k-points:
 
 Following reciprocal coordinates:
            Coordinates               Weight
  0.250000  0.250000  0.250000      2.000000
 -0.250000  0.250000  0.250000      2.000000
 -0.250000 -0.250000  0.250000      2.000000
  0.250000 -0.250000  0.250000      2.000000
 
 Following cartesian coordinates:
            Coordinates               Weight
  0.025896  0.025896  0.025896      2.000000
 -0.025896  0.025896  0.025896      2.000000
 -0.025896 -0.025896  0.025896      2.000000
  0.025896 -0.025896  0.025896      2.000000
 


--------------------------------------------------------------------------------------------------------




 Dimension of arrays:
   k-points           NKPTS =      4   k-points in BZ     NKDIM =      4   number of bands    NBANDS=    176
   number of dos      NEDOS =    301   number of ions     NIONS =     52
   non local maximal  LDIM  =      6   non local SUM 2l+1 LMDIM =     18
   total plane-waves  NPLWV = 373248
   max r-space proj   IRMAX =   5787   max aug-charges    IRDMAX=  17705
   dimension x,y,z NGX =    72 NGY =   72 NGZ =   72
   dimension x,y,z NGXF=   144 NGYF=  144 NGZF=  144
   support grid    NGXF=   144 NGYF=  144 NGZF=  144
   ions per type =              24   4  20   4
   NGX,Y,Z   is equivalent  to a cutoff of  12.40, 12.40, 12.40 a.u.
   NGXF,Y,Z  is equivalent  to a cutoff of  24.80, 24.80, 24.80 a.u.

 SYSTEM =  unknown system                          
 POSCAR =  Li24 P4 S20 Cl4                         

 Startparameter for this run:
   NWRITE =      2    write-flag & timer
   PREC   = accu      normal or accurate (medium, high low for compatibility)
   ISTART =      0    job   : 0-new  1-cont  2-samecut
   ICHARG =      2    charge: 1-file 2-atom 10-const
   ISPIN  =      2    spin polarized calculation?
   LNONCOLLINEAR =      F non collinear calculations
   LSORBIT =      F    spin-orbit coupling
   INIWAV =      1    electr: 0-lowe 1-rand  2-diag
   LASPH  =      T    aspherical Exc in radial PAW
 Electronic Relaxation 1
   ENCUT  =  520.0 eV  38.22 Ry    6.18 a.u.  17.95 17.95 17.95*2*pi/ulx,y,z
   ENINI  =  520.0     initial cutoff
   ENAUG  = 1041.7 eV  augmentation charge cutoff
   NELM   =    100;   NELMIN=  2; NELMDL=-10     # of ELM steps 
   EDIFF  = 0.1E-05   stopping-criterion for ELM
   LREAL  =      T    real-space projection
   NLSPLINE    = F    spline interpolate recip. space projectors
   LCOMPAT=      F    compatible to vasp.4.4
   GGA_COMPAT  = T    GGA compatible to vasp.4.4-vasp.4.6
   LMAXPAW     = -100 max onsite density
   LMAXMIX     =    4 max onsite mixed and CHGCAR
   VOSKOWN=      0    Vosko Wilk Nusair interpolation
   ROPT   =   -0.00025  -0.00025  -0.00025  -0.00025
 Ionic relaxation
   EDIFFG = -.1E-02   stopping-criterion for IOM
   NSW    =   1000    number of steps for IOM
   NBLOCK =      1;   KBLOCK =   1000    inner block; outer block 
   IBRION =      2    ionic relax: 0-MD 1-quasi-New 2-CG
   NFREE  =      1    steps in history (QN), initial steepest desc. (CG)
   ISIF   =      2    stress and relaxation
   IWAVPR =     11    prediction:  0-non 1-charg 2-wave 3-comb
   ISYM   =      2    0-nonsym 1-usesym 2-fastsym
   LCORR  =      T    Harris-Foulkes like correction to forces

   POTIM  = 0.2000    time-step for ionic-motion
   TEIN   =    0.0    initial temperature
   TEBEG  =    0.0;   TEEND  =   0.0 temperature during run
   SMASS  =  -3.00    Nose mass-parameter (am)
   estimated Nose-frequenzy (Omega)   =  0.10E-29 period in steps = 0.31E+47 mass=  -0.213E-26a.u.
   SCALEE = 1.0000    scale energy and forces
   NPACO  =    256;   APACO  = 10.0  distance and # of slots for P.C.
   PSTRESS=    0.0 pullay stress

  Mass of Ions in am
   POMASS =   7.01 30.97 32.07 35.45
  Ionic Valenz
   ZVAL   =   3.00  5.00  6.00  7.00
  Atomic Wigner-Seitz radii
   RWIGS  =  -1.00 -1.00 -1.00 -1.00
  virtual crystal weights 
   VCA    =   1.00  1.00  1.00  1.00
   NELECT =     240.0000    total number of electrons
   NUPDOWN=      -1.0000    fix difference up-down

 DOS related values:
   EMIN   =  10.00;   EMAX   =-10.00  energy-range for DOS
   EFERMI =   0.00;   METHOD = LEGACY      
   ISMEAR =     0;   SIGMA  =   0.03  broadening in eV -4-tet -1-fermi 0-gaus

 Electronic relaxation 2 (details)
   IALGO  =     68    algorithm
   LDIAG  =      T    sub-space diagonalisation (order eigenvalues)
   LSUBROT=      F    optimize rotation matrix (better conditioning)
   TURBO    =      0    0=normal 1=particle mesh
   IRESTART =      0    0=no restart 2=restart with 2 vectors
   NREBOOT  =      0    no. of reboots
   NMIN     =      0    reboot dimension
   EREF     =   0.00    reference energy to select bands
   IMIX   =      4    mixing-type and parameters
     AMIX     =   0.40;   BMIX     =  1.00
     AMIX_MAG =   1.60;   BMIX_MAG =  1.00
     AMIN     =   0.10
     WC   =   100.;   INIMIX=   1;  MIXPRE=   1;  MAXMIX= -45

 Intra band minimization:
   WEIMIN = 0.0010     energy-eigenvalue tresh-hold
   EBREAK =  0.14E-08  absolut break condition
   DEPER  =   0.30     relativ break condition  

   TIME   =   0.40     timestep for ELM

  volume/ion in A,a.u.               =      17.30       116.77
  Fermi-wavevector in a.u.,A,eV,Ry     =   1.053820  1.991431 15.109773  1.110537
  Thomas-Fermi vector in A             =   2.188957
 
 Write flags
   LWAVE        =      F    write WAVECAR
   LDOWNSAMPLE  =      F    k-point downsampling of WAVECAR
   LCHARG       =      F    write CHGCAR
   LVTOT        =      F    write LOCPOT, total local potential
   LVHAR        =      F    write LOCPOT, Hartree potential only
   LELF         =      F    write electronic localiz. function (ELF)
   LORBIT       =      0    0 simple, 1 ext, 2 COOP (PROOUT), +10 PAW based schemes


 Dipole corrections
   LMONO  =      F    monopole corrections only (constant potential shift)
   LDIPOL =      F    correct potential (dipole corrections)
   IDIPOL =      0    1-x, 2-y, 3-z, 4-all directions 
   EPSILON=  1.0000000 bulk dielectric constant

 Exchange correlation treatment:
   GGA     =    PE    GGA type
   LEXCH   =     8    internal setting for exchange type
   LIBXC   =     F    Libxc                    
   VOSKOWN =     0    Vosko Wilk Nusair interpolation
   LHFCALC =     F    Hartree Fock is set to
   LHFONE  =     F    Hartree Fock one center treatment
   AEXX    =    0.0000 exact exchange contribution

 Linear response parameters
   LEPSILON=     F    determine dielectric tensor
   LRPA    =     F    only Hartree local field effects (RPA)
   LNABLA  =     F    use nabla operator in PAW spheres
   LVEL    =     F    velocity operator in full k-point grid
   CSHIFT  =0.1000    complex shift for real part using Kramers Kronig
   OMEGAMAX=  -1.0    maximum frequency
   DEG_THRESHOLD= 0.2000000E-02 threshold for treating states as degnerate
   RTIME   =   -0.100 relaxation time in fs
  (WPLASMAI=    0.000 imaginary part of plasma frequency in eV, 0.658/RTIME)
   DFIELD  = 0.0000000 0.0000000 0.0000000 field for delta impulse in time
 
  Optional k-point grid parameters
   LKPOINTS_OPT  =     F    use optional k-point grid
   KPOINTS_OPT_MODE=     1    mode for optional k-point grid
 
 Orbital magnetization related:
   ORBITALMAG=     F  switch on orbital magnetization
   LCHIMAG   =     F  perturbation theory with respect to B field
   DQ        =  0.001000  dq finite difference perturbation B field
   LLRAUG    =     F  two centre corrections for induced B field
   LBONE     =     F  B-component reconstruction in AE one-centre
   LVGVCALC  =     T  calculate vGv susceptibility
   LVGVAPPL  =     F  apply vGv susceptibility instead of pGv for G=0

 Random number generation:
   RANDOM_GENERATOR = DEFAULT
   PCG_SEED         = not used


--------------------------------------------------------------------------------------------------------


 conjugate gradient relaxation of ions
 charge density and potential will be updated during run
 spin polarized calculation
 RMM-DIIS sequential band-by-band and
  variant of blocked Davidson during initial phase
 perform sub-space diagonalisation
    before iterative eigenvector-optimisation
 modified Broyden-mixing scheme, WC =      100.0
 initial mixing is a Kerker type mixing with AMIX =  0.4000 and BMIX =      1.0000
 Hartree-type preconditioning will be used
 using additional bands           56
 real space projection scheme for non local part
 use partial core corrections
 calculate Harris-corrections to forces 
   (improved forces if not selfconsistent)
 use gradient corrections 
 use of overlap-Matrix (Vanderbilt PP)
 Gauss-broadening in eV      SIGMA  =   0.03


--------------------------------------------------------------------------------------------------------


  energy-cutoff  :      520.00
  volume of cell :      899.78
      direct lattice vectors                 reciprocal lattice vectors
     9.654106098  0.000000000  0.000000000     0.103582868  0.000000000  0.000000000
     0.000000000  9.654106098  0.000000000     0.000000000  0.103582868  0.000000000
     0.000000000  0.000000000  9.654106098     0.000000000  0.000000000  0.103582868

  length of vectors
     9.654106098  9.654106098  9.654106098     0.103582868  0.103582868  0.103582868


 
 k-points in units of 2pi/SCALE and weight: Automatic mesh                          
   0.02589572  0.02589572  0.02589572       0.250
  -0.02589572  0.02589572  0.02589572       0.250
  -0.02589572 -0.02589572  0.02589572       0.250
   0.02589572 -0.02589572  0.02589572       0.250
 
 k-points in reciprocal lattice and weights: Automatic mesh                          
   0.25000000  0.25000000  0.25000000       0.250
  -0.25000000  0.25000000  0.25000000       0.250
  -0.25000000 -0.25000000  0.25000000       0.250
   0.25000000 -0.25000000  0.25000000       0.250
 
 position of ions in fractional coordinates (direct lattice) 
   0.98323244  0.19680630  0.21108638
   0.97391585  0.69067529  0.70994688
   0.04351868  0.15022728  0.81230779
   0.01025524  0.79446685  0.20333099
   0.28597159  0.31002064  0.97371922
   0.31589411  0.65710719  0.04532469
   0.78592496  0.19183170  0.02386868
   0.81579391  0.84461215  0.95248801
   0.21229722  0.98433728  0.16987206
   0.31559182  0.00797070  0.71820707
   0.67924025  0.96144159  0.66200181
   0.67598461  0.05200431  0.32598973
   0.28058256  0.81069571  0.48027743
   0.32962941  0.19154072  0.51338627
   0.78059518  0.69078897  0.51757720
   0.82982048  0.31017679  0.48416794
   0.17580753  0.44972030  0.67177125
   0.17915984  0.54026853  0.33570974
   0.81528019  0.49383353  0.27944352
   0.71232917  0.51724938  0.82747440
   0.48328670  0.30490637  0.78650055
   0.47384720  0.81131272  0.28801450
   0.54340435  0.35138245  0.18528450
   0.51025164  0.70721356  0.79446100
   0.49737160  0.50297406  0.49145073
   0.50393196  0.00522014  0.00357312
   0.00394400  0.49645963  0.99422448
   0.99741944  0.99863734  0.50619770
   0.11276864  0.87996939  0.64076667
   0.12895793  0.11342841  0.38518976
   0.86640068  0.88361052  0.38393715
   0.87358968  0.12007714  0.62839572
   0.86617670  0.62975150  0.08779142
   0.89732933  0.36012152  0.87112636
   0.13767787  0.60617175  0.87132787
   0.12023351  0.39164257  0.13820430
   0.62020093  0.11000228  0.85952409
   0.63762951  0.89554629  0.12650491
   0.39724764  0.14160072  0.12654574
   0.36614033  0.87195504  0.90996829
   0.61267143  0.62187388  0.35700519
   0.62901314  0.38815418  0.61231820
   0.36641885  0.61792155  0.61386352
   0.37355044  0.38164316  0.36919341
   0.74219694  0.74395147  0.74644791
   0.75931851  0.26456815  0.25358759
   0.24220398  0.75776651  0.25133265
   0.25935965  0.23719169  0.74402214
   0.99444227  0.01627925  0.02799674
   0.98072151  0.51957571  0.49693983
   0.48061673  0.98211176  0.50087188
   0.49452435  0.48536661  0.96963381
 
 position of ions in cartesian coordinates  (Angst):
   9.49223031  1.89998893  2.03785030
   9.40228695  6.66785257  6.85390252
   0.42013397  1.45031006  7.84210563
   0.09900517  7.66986721  1.96297893
   2.76080012  2.99297215  9.40038871
   3.04967526  6.34378252  0.43756939
   7.58740293  1.85196358  0.23043078
   7.87576092  8.15397532  9.19542027
   2.04953985  9.50289651  1.63996290
   3.04675691  0.07694999  6.93364727
   6.55745742  9.28185914  6.39103570
   6.52602711  0.50205512  3.14713946
   2.70877379  7.82654238  4.63664926
   3.18227733  1.84915439  4.95628551
   7.53594867  6.66894998  4.99674519
   8.01117492  2.99447962  4.67420865
   1.69726454  4.34164747  6.48535093
   1.72962815  5.21580972  3.24097742
   7.87080143  4.76752129  2.69777742
   6.87690140  4.99358037  7.98852562
   4.66570107  2.94359845  7.59295977
   4.57457112  7.83249904  2.78052256
   5.24608324  3.39228344  1.78875627
   4.92602346  6.82751472  7.66981083
   4.80167817  4.85576498  4.74451747
   4.86501265  0.05039583  0.03449527
   0.03807580  4.79287395  9.59834859
   9.62919310  9.64095080  4.88688628
   1.08868038  8.49531781  6.18602938
   1.24497352  1.09504992  3.71866282
   8.36432407  8.53046973  3.70657000
   8.43372747  1.15923750  6.06659891
   8.36216176  6.07968783  0.84754772
   8.66291251  3.47665138  8.40994631
   1.32915677  5.85204641  8.41189172
   1.16074706  3.78095888  1.33423897
   5.98748561  1.06197368  8.29793675
   6.15574296  8.64569890  1.22129185
   3.83507088  1.36702840  1.22168598
   3.53475762  8.41794645  8.78493046
   5.91479497  6.00363641  3.44656599
   6.07255955  3.74728159  5.91138483
   3.53744644  5.96548019  5.92630356
   3.60629558  3.68442359  3.56423236
   7.16524800  7.18218645  7.20628731
   7.33054149  2.55416899  2.44816145
   2.33826295  7.31555826  2.42639208
   2.50388555  2.28987379  7.18286870
   9.60045117  0.15716163  0.27028350
   9.46798952  5.01603899  4.79750980
   4.63992487  9.48141113  4.83547028
   4.77419055  4.68578070  9.36094769
 


--------------------------------------------------------------------------------------------------------


 k-point   1 :   0.2500 0.2500 0.2500  plane waves:   24252
 k-point   2 :  -0.2500 0.2500 0.2500  plane waves:   24252
 k-point   3 :  -0.2500-0.2500 0.2500  plane waves:   24252
 k-point   4 :   0.2500-0.2500 0.2500  plane waves:   24252

 maximum and minimum number of plane-waves per node :       778      744

 maximum number of plane-waves:     24252
 maximum index in each direction: 
   IXMAX=   18   IYMAX=   18   IZMAX=   17
   IXMIN=  -18   IYMIN=  -18   IZMIN=  -18


 real space projection operators:
  total allocation   :      28407.53 KBytes
  max/ min on nodes  :       1185.92        718.34


 parallel 3D FFT for wavefunctions:
    minimum data exchange during FFTs selected (reduces bandwidth)
 parallel 3D FFT for charge:
    minimum data exchange during FFTs selected (reduces bandwidth)


 total amount of memory used by VASP MPI-rank0    48238. kBytes
=======================================================================

   base      :      30000. kBytes
   nonlr-proj:       6578. kBytes
   fftplans  :       1747. kBytes
   grid      :       5278. kBytes
   one-center:         62. kBytes
   wavefun   :       4573. kBytes
 
     INWAV:  cpu time      0.0001: real time      0.0001
 Broyden mixing: mesh for mixing (old mesh)
   NGX = 35   NGY = 35   NGZ = 35
  (NGX  =144   NGY  =144   NGZ  =144)
  gives a total of  42875 points

 initial charge density was supplied:
 charge density of overlapping atoms calculated
 number of electron     240.0000000 magnetization      52.0000000
 keeping initial charge density in first step


--------------------------------------------------------------------------------------------------------


 Maximum index for non-local projection operator          585
 Maximum index for augmentation-charges         1023 (set IRDMAX)


--------------------------------------------------------------------------------------------------------


 First call to EWALD:  gamma=   0.184
 Maximum number of real-space cells 3x 3x 3
 Maximum number of reciprocal cells 3x 3x 3

    FEWALD:  cpu time      0.0030: real time      0.0035


--------------------------------------- Ionic step        1  -------------------------------------------




--------------------------------------- Iteration      1(   1)  ---------------------------------------


    POTLOK:  cpu time      0.0548: real time      0.0670
    SETDIJ:  cpu time      0.4262: real time      0.4393
     EDDAV:  cpu time      2.4427: real time      2.6758
       DOS:  cpu time      0.0022: real time      0.0036
    --------------------------------------------
      LOOP:  cpu time      2.9260: real time      3.1858

 eigenvalue-minimisations  :  3080
 total energy-change (2. order) : 0.1587918E+04  (-0.1135875E+05)
 number of electron     240.0000000 magnetization      52.0000000
 augmentation part      240.0000000 magnetization      52.0000000

 Free energy of the ion-electron system (eV)
  ---------------------------------------------------
  alpha Z        PSCENC =       301.69328848
  Ewald energy   TEWEN  =     -8836.08404316
  -Hartree energ DENC   =     -2097.71148556
  -exchange      EXHF   =         0.00000000
  -V(xc)+E(xc)   XCENC  =       534.32204022
  PAW double counting   =      8141.38806575    -8271.61346273
  entropy T*S    EENTRO =        -0.00727058
  eigenvalues    EBANDS =      -887.20947544
  atomic energy  EATOM  =     12703.13999606
  Solvation  Ediel_sol  =         0.00000000
  ---------------------------------------------------
  free energy    TOTEN  =      1587.91765305 eV

  energy without entropy =     1587.92492362  energy(sigma->0) =     1587.92128833


--------------------------------------------------------------------------------------------------------




--------------------------------------- Iteration      1(   2)  ---------------------------------------


     EDDAV:  cpu time      2.6071: real time      2.6334
       DOS:  cpu time      0.0004: real time      0.0004
    --------------------------------------------
      LOOP:  cpu time      2.6075: real time      2.6339

 eigenvalue-minimisations  :  3856
 total energy-change (2. order) :-0.1643531E+04  (-0.1545751E+04)
 number of electron     240.0000000 magnetization      52.0000000
 augmentation part      240.0000000 magnetization      52.0000000

 Free energy of the ion-electron system (eV)
  ---------------------------------------------------
  alpha Z        PSCENC =       301.69328848
  Ewald energy   TEWEN  =     -8836.08404316
  -Hartree energ DENC   =     -2097.71148556
  -exchange      EXHF   =         0.00000000
  -V(xc)+E(xc)   XCENC  =       534.32204022
  PAW double counting   =      8141.38806575    -8271.61346273
  entropy T*S    EENTRO =        -0.00000000
  eigenvalues    EBANDS =     -2530.74799271
  atomic energy  EATOM  =     12703.13999606
  Solvation  Ediel_sol  =         0.00000000
  ---------------------------------------------------
  free energy    TOTEN  =       -55.61359365 eV

  energy without entropy =      -55.61359365  energy(sigma->0) =      -55.61359365


--------------------------------------------------------------------------------------------------------




--------------------------------------- Iteration      1(   3)  ---------------------------------------


     EDDAV:  cpu time      2.5626: real time      2.5824
       DOS:  cpu time      0.0004: real time      0.0004
    --------------------------------------------
      LOOP:  cpu time      2.5630: real time      2.5827

 eigenvalue-minimisations  :  3768
 total energy-change (2. order) :-0.1725161E+03  (-0.1704754E+03)
 number of electron     240.0000000 magnetization      52.0000000
 augmentation part      240.0000000 magnetization      52.0000000

 Free energy of the ion-electron system (eV)
  ---------------------------------------------------
  alpha Z        PSCENC =       301.69328848
  Ewald energy   TEWEN  =     -8836.08404316
  -Hartree energ DENC   =     -2097.71148556
  -exchange      EXHF   =         0.00000000
  -V(xc)+E(xc)   XCENC  =       534.32204022
  PAW double counting   =      8141.38806575    -8271.61346273
  entropy T*S    EENTRO =        -0.00000000
  eigenvalues    EBANDS =     -2703.26413647
  atomic energy  EATOM  =     12703.13999606
  Solvation  Ediel_sol  =         0.00000000
  ---------------------------------------------------
  free energy    TOTEN  =      -228.12973741 eV

  energy without entropy =     -228.12973741  energy(sigma->0) =     -228.12973741


--------------------------------------------------------------------------------------------------------




--------------------------------------- Iteration      1(   4)  ---------------------------------------


     EDDAV:  cpu time      3.1339: real time      3.2002
       DOS:  cpu time      0.0004: real time      0.0004
    --------------------------------------------
      LOOP:  cpu time      3.1343: real time      3.2006

 eigenvalue-minimisations  :  4736
 total energy-change (2. order) :-0.1357794E+02  (-0.1355450E+02)
 number of electron     240.0000000 magnetization      52.0000000
 augmentation part      240.0000000 magnetization      52.0000000

 Free energy of the ion-electron system (eV)
  ---------------------------------------------------
  alpha Z        PSCENC =       301.69328848
  Ewald energy   TEWEN  =     -8836.08404316
  -Hartree energ DENC   =     -2097.71148556
  -exchange      EXHF   =         0.00000000
  -V(xc)+E(xc)   XCENC  =       534.32204022
  PAW double counting   =      8141.38806575    -8271.61346273
  entropy T*S    EENTRO =        -0.00000000
  eigenvalues    EBANDS =     -2716.84207573
  atomic energy  EATOM  =     12703.13999606
  Solvation  Ediel_sol  =         0.00000000
  ---------------------------------------------------
  free energy    TOTEN  =      -241.70767667 eV

  energy without entropy =     -241.70767667  energy(sigma->0) =     -241.70767667


--------------------------------------------------------------------------------------------------------




--------------------------------------- Iteration      1(   5)  ---------------------------------------


     EDDAV:  cpu time      2.9292: real time      2.9532
       DOS:  cpu time      0.0004: real time      0.0004
    --------------------------------------------
      LOOP:  cpu time      2.9296: real time      2.9537

 eigenvalue-minimisations  :  4464
 total energy-change (2. order) :-0.2181655E+00  (-0.2180668E+00)
 number of electron     240.0000000 magnetization      52.0000000
 augmentation part      240.0000000 magnetization      52.0000000

 Free energy of the ion-electron system (eV)
  ---------------------------------------------------
  alpha Z        PSCENC =       301.69328848
  Ewald energy   TEWEN  =     -8836.08404316
  -Hartree energ DENC   =     -2097.71148556
  -exchange      EXHF   =         0.00000000
  -V(xc)+E(xc)   XCENC  =       534.32204022
  PAW double counting   =      8141.38806575    -8271.61346273
  entropy T*S    EENTRO =        -0.00000000
  eigenvalues    EBANDS =     -2717.06024122
  atomic energy  EATOM  =     12703.13999606
  Solvation  Ediel_sol  =         0.00000000
  ---------------------------------------------------
  free energy    TOTEN  =      -241.92584216 eV

  energy without entropy =     -241.92584216  energy(sigma->0) =     -241.92584216


--------------------------------------------------------------------------------------------------------




--------------------------------------- Iteration      1(   6)  ---------------------------------------


     EDDAV:  cpu time      3.0233: real time      3.0471
       DOS:  cpu time      0.0004: real time      0.0004
    --------------------------------------------
      LOOP:  cpu time      3.0237: real time      3.0476

 eigenvalue-minimisations  :  4648
 total energy-change (2. order) :-0.1198499E-01  (-0.1198380E-01)
 number of electron     240.0000000 magnetization      52.0000000
 augmentation part      240.0000000 magnetization      52.0000000

 Free energy of the ion-electron system (eV)
  ---------------------------------------------------
  alpha Z        PSCENC =       301.69328848
  Ewald energy   TEWEN  =     -8836.08404316
  -Hartree energ DENC   =     -2097.71148556
  -exchange      EXHF   =         0.00000000
  -V(xc)+E(xc)   XCENC  =       534.32204022
  PAW double counting   =      8141.38806575    -8271.61346273
  entropy T*S    EENTRO =        -0.00000000
  eigenvalues    EBANDS =     -2717.07222621
  atomic energy  EATOM  =     12703.13999606
  Solvation  Ediel_sol  =         0.00000000
  ---------------------------------------------------
  free energy    TOTEN  =      -241.93782715 eV

  energy without entropy =     -241.93782715  energy(sigma->0) =     -241.93782715


--------------------------------------------------------------------------------------------------------




--------------------------------------- Iteration      1(   7)  ---------------------------------------


     EDDAV:  cpu time      2.9999: real time      3.0292
       DOS:  cpu time      0.0004: real time      0.0004
    --------------------------------------------
      LOOP:  cpu time      3.0002: real time      3.0296

 eigenvalue-minimisations  :  4584
 total energy-change (2. order) :-0.3813803E-03  (-0.3813568E-03)
 number of electron     240.0000000 magnetization      52.0000000
 augmentation part      240.0000000 magnetization      52.0000000

 Free energy of the ion-electron system (eV)
  ---------------------------------------------------
  alpha Z        PSCENC =       301.69328848
  Ewald energy   TEWEN  =     -8836.08404316
  -Hartree energ DENC   =     -2097.71148556
  -exchange      EXHF   =         0.00000000
  -V(xc)+E(xc)   XCENC  =       534.32204022
  PAW double counting   =      8141.38806575    -8271.61346273
  entropy T*S    EENTRO =        -0.00000000
  eigenvalues    EBANDS =     -2717.07260759
  atomic energy  EATOM  =     12703.13999606
  Solvation  Ediel_sol  =         0.00000000
  ---------------------------------------------------
  free energy    TOTEN  =      -241.93820853 eV

  energy without entropy =     -241.93820853  energy(sigma->0) =     -241.93820853


--------------------------------------------------------------------------------------------------------




--------------------------------------- Iteration      1(   8)  ---------------------------------------


     EDDAV:  cpu time      2.9835: real time      3.0055
       DOS:  cpu time      0.0004: real time      0.0004
    --------------------------------------------
      LOOP:  cpu time      2.9838: real time      3.0059

 eigenvalue-minimisations  :  4560
 total energy-change (2. order) :-0.2207590E-04  (-0.2207541E-04)
 number of electron     240.0000000 magnetization      52.0000000
 augmentation part      240.0000000 magnetization      52.0000000

 Free energy of the ion-electron system (eV)
  ---------------------------------------------------
  alpha Z        PSCENC =       301.69328848
  Ewald energy   TEWEN  =     -8836.08404316
  -Hartree energ DENC   =     -2097.71148556
  -exchange      EXHF   =         0.00000000
  -V(xc)+E(xc)   XCENC  =       534.32204022
  PAW double counting   =      8141.38806575    -8271.61346273
  entropy T*S    EENTRO =        -0.00000000
  eigenvalues    EBANDS =     -2717.07262966
  atomic energy  EATOM  =     12703.13999606
  Solvation  Ediel_sol  =         0.00000000
  ---------------------------------------------------
  free energy    TOTEN  =      -241.93823061 eV

  energy without entropy =     -241.93823061  energy(sigma->0) =     -241.93823061


--------------------------------------------------------------------------------------------------------




--------------------------------------- Iteration      1(   9)  ---------------------------------------


     EDDAV:  cpu time      2.9144: real time      2.9362
       DOS:  cpu time      0.0004: real time      0.0004
    --------------------------------------------
      LOOP:  cpu time      2.9148: real time      2.9366

 eigenvalue-minimisations  :  4440
 total energy-change (2. order) :-0.1413844E-05  (-0.1413713E-05)
 number of electron     240.0000000 magnetization      52.0000000
 augmentation part      240.0000000 magnetization      52.0000000

 Free energy of the ion-electron system (eV)
  ---------------------------------------------------
  alpha Z        PSCENC =       301.69328848
  Ewald energy   TEWEN  =     -8836.08404316
  -Hartree energ DENC   =     -2097.71148556
  -exchange      EXHF   =         0.00000000
  -V(xc)+E(xc)   XCENC  =       534.32204022
  PAW double counting   =      8141.38806575    -8271.61346273
  entropy T*S    EENTRO =        -0.00000000
  eigenvalues    EBANDS =     -2717.07263108
  atomic energy  EATOM  =     12703.13999606
  Solvation  Ediel_sol  =         0.00000000
  ---------------------------------------------------
  free energy    TOTEN  =      -241.93823202 eV

  energy without entropy =     -241.93823202  energy(sigma->0) =     -241.93823202


--------------------------------------------------------------------------------------------------------




--------------------------------------- Iteration      1(  10)  ---------------------------------------


     EDDAV:  cpu time      1.9476: real time      1.9627
       DOS:  cpu time      0.0004: real time      0.0004
    CHARGE:  cpu time      0.0674: real time      0.0729
    MIXING:  cpu time      0.0019: real time      0.0036
    --------------------------------------------
      LOOP:  cpu time      2.0173: real time      2.0396

 eigenvalue-minimisations  :  2632
 total energy-change (2. order) :-0.6274968E-07  (-0.6229302E-07)
 number of electron     240.0000048 magnetization      27.2441978
 augmentation part        1.4925415 magnetization      27.6864813

 Broyden mixing:
  rms(total) = 0.64191E+01    rms(broyden)= 0.64185E+01
  rms(prec ) = 0.66578E+01
  weight for this iteration     100.00

 Free energy of the ion-electron system (eV)
  ---------------------------------------------------
  alpha Z        PSCENC =       301.69328848
  Ewald energy   TEWEN  =     -8836.08404316
  -Hartree energ DENC   =     -2097.71148556
  -exchange      EXHF   =         0.00000000
  -V(xc)+E(xc)   XCENC  =       534.32204022
  PAW double counting   =      8141.38806575    -8271.61346273
  entropy T*S    EENTRO =        -0.00000000
  eigenvalues    EBANDS =     -2717.07263114
  atomic energy  EATOM  =     12703.13999606
  Solvation  Ediel_sol  =         0.00000000
  ---------------------------------------------------
  free energy    TOTEN  =      -241.93823208 eV

  energy without entropy =     -241.93823208  energy(sigma->0) =     -241.93823208


--------------------------------------------------------------------------------------------------------




--------------------------------------- Iteration      1(  11)  ---------------------------------------


    POTLOK:  cpu time      0.0544: real time      0.0552
    SETDIJ:  cpu time      0.3982: real time      0.4012
    EDDIAG:  cpu time      0.3652: real time      0.3683
  RMM-DIIS:  cpu time      1.1404: real time      1.1489
    ORTHCH:  cpu time      0.0660: real time      0.0667
       DOS:  cpu time      0.0006: real time      0.0006
    CHARGE:  cpu time      0.0650: real time      0.0674
    MIXING:  cpu time      0.0012: real time      0.0448
    --------------------------------------------
      LOOP:  cpu time      2.0910: real time      2.1532

 eigenvalue-minimisations  :  2816
 total energy-change (2. order) : 0.5466333E+01  (-0.4654282E+01)
 number of electron     240.0000048 magnetization      16.3167059
 augmentation part        1.7042954 magnetization      16.4998385

 Broyden mixing:
  rms(total) = 0.33042E+01    rms(broyden)= 0.33040E+01
  rms(prec ) = 0.34181E+01
  weight for this iteration     100.00

 eigenvalues of (default mixing * dielectric matrix)
  average eigenvalue GAMMA=   0.7252
  0.7252

 Free energy of the ion-electron system (eV)
  ---------------------------------------------------
  alpha Z        PSCENC =       301.69328848
  Ewald energy   TEWEN  =     -8836.08404316
  -Hartree energ DENC   =     -2145.26592294
  -exchange      EXHF   =         0.00000000
  -V(xc)+E(xc)   XCENC  =       542.52766912
  PAW double counting   =      8928.64304810    -9064.94706645
  entropy T*S    EENTRO =        -0.00000000
  eigenvalues    EBANDS =     -2666.17886822
  atomic energy  EATOM  =     12703.13999606
  Solvation  Ediel_sol  =         0.00000000
  ---------------------------------------------------
  free energy    TOTEN  =      -236.47189901 eV

  energy without entropy =     -236.47189901  energy(sigma->0) =     -236.47189901


--------------------------------------------------------------------------------------------------------




--------------------------------------- Iteration      1(  12)  ---------------------------------------


    POTLOK:  cpu time      0.0535: real time      0.0543
    SETDIJ:  cpu time      0.4018: real time      0.4038
    EDDIAG:  cpu time      0.3570: real time      0.3590
  RMM-DIIS:  cpu time      1.1989: real time      1.2079
    ORTHCH:  cpu time      0.0686: real time      0.0694
       DOS:  cpu time      0.0005: real time      0.0005
    CHARGE:  cpu time      0.0649: real time      0.0666
    MIXING:  cpu time      0.0011: real time      0.0011
    --------------------------------------------
      LOOP:  cpu time      2.1463: real time      2.1626

 eigenvalue-minimisations  :  2951
 total energy-change (2. order) :-0.1959150E+02  (-0.2089663E+01)
 number of electron     240.0000048 magnetization       0.4811803
 augmentation part        1.8033902 magnetization       0.8209216

 Broyden mixing:
  rms(total) = 0.20247E+01    rms(broyden)= 0.20247E+01
  rms(prec ) = 0.20855E+01
  weight for this iteration     100.00

 eigenvalues of (default mixing * dielectric matrix)
  average eigenvalue GAMMA=   1.1579
  1.6449  0.6710

 Free energy of the ion-electron system (eV)
  ---------------------------------------------------
  alpha Z        PSCENC =       301.69328848
  Ewald energy   TEWEN  =     -8836.08404316
  -Hartree energ DENC   =     -2168.96987575
  -exchange      EXHF   =         0.00000000
  -V(xc)+E(xc)   XCENC  =       536.23810037
  PAW double counting   =      9281.62609655    -9421.52131890
  entropy T*S    EENTRO =        -0.00000000
  eigenvalues    EBANDS =     -2652.18564157
  atomic energy  EATOM  =     12703.13999606
  Solvation  Ediel_sol  =         0.00000000
  ---------------------------------------------------
  free energy    TOTEN  =      -256.06339793 eV

  energy without entropy =     -256.06339793  energy(sigma->0) =     -256.06339793


--------------------------------------------------------------------------------------------------------




--------------------------------------- Iteration      1(  13)  ---------------------------------------


    POTLOK:  cpu time      0.0529: real time      0.0538
    SETDIJ:  cpu time      0.3997: real time      0.4014
    EDDIAG:  cpu time      0.3565: real time      0.3588
  RMM-DIIS:  cpu time      1.1799: real time      1.1884
    ORTHCH:  cpu time      0.0666: real time      0.0675
       DOS:  cpu time      0.0004: real time      0.0004
    CHARGE:  cpu time      0.0650: real time      0.0667
    MIXING:  cpu time      0.0011: real time      0.0011
    --------------------------------------------
      LOOP:  cpu time      2.1221: real time      2.1381

 eigenvalue-minimisations  :  2907
 total energy-change (2. order) :-0.2477491E+01  (-0.8860303E+00)
 number of electron     240.0000049 magnetization      -1.8827038
 augmentation part        1.9034202 magnetization      -1.7791795

 Broyden mixing:
  rms(total) = 0.66815E+00    rms(broyden)= 0.66815E+00
  rms(prec ) = 0.70075E+00
  weight for this iteration     100.00

 eigenvalues of (default mixing * dielectric matrix)
  average eigenvalue GAMMA=   1.3038
  2.5105  0.7480  0.6528

 Free energy of the ion-electron system (eV)
  ---------------------------------------------------
  alpha Z        PSCENC =       301.69328848
  Ewald energy   TEWEN  =     -8836.08404316
  -Hartree energ DENC   =     -2196.27370850
  -exchange      EXHF   =         0.00000000
  -V(xc)+E(xc)   XCENC  =       537.79832495
  PAW double counting   =      9784.82643854    -9928.69585001
  entropy T*S    EENTRO =        -0.00000000
  eigenvalues    EBANDS =     -2624.94533488
  atomic energy  EATOM  =     12703.13999606
  Solvation  Ediel_sol  =         0.00000000
  ---------------------------------------------------
  free energy    TOTEN  =      -258.54088852 eV

  energy without entropy =     -258.54088852  energy(sigma->0) =     -258.54088852


--------------------------------------------------------------------------------------------------------




--------------------------------------- Iteration      1(  14)  ---------------------------------------


    POTLOK:  cpu time      0.0524: real time      0.0533
    SETDIJ:  cpu time      0.4034: real time      0.4049
    EDDIAG:  cpu time      0.3539: real time      0.3563
  RMM-DIIS:  cpu time      1.5195: real time      1.5311
    ORTHCH:  cpu time      0.0672: real time      0.0676
       DOS:  cpu time      0.0005: real time      0.0005
    CHARGE:  cpu time      0.0646: real time      0.0659
    MIXING:  cpu time      0.0011: real time      0.0011
    --------------------------------------------
      LOOP:  cpu time      2.4625: real time      2.4805

 eigenvalue-minimisations  :  3749
 total energy-change (2. order) :-0.1901450E+00  (-0.1914202E+00)
 number of electron     240.0000049 magnetization      -0.8749077
 augmentation part        1.8738050 magnetization      -0.8479144

 Broyden mixing:
  rms(total) = 0.32127E+00    rms(broyden)= 0.32127E+00
  rms(prec ) = 0.35544E+00
  weight for this iteration     100.00

 eigenvalues of (default mixing * dielectric matrix)
  average eigenvalue GAMMA=   1.2679
  2.6201  1.1702  0.6898  0.5917

 Free energy of the ion-electron system (eV)
  ---------------------------------------------------
  alpha Z        PSCENC =       301.69328848
  Ewald energy   TEWEN  =     -8836.08404316
  -Hartree energ DENC   =     -2197.71747557
  -exchange      EXHF   =         0.00000000
  -V(xc)+E(xc)   XCENC  =       538.24315245
  PAW double counting   =      9861.37712270   -10006.04175645
  entropy T*S    EENTRO =        -0.00000000
  eigenvalues    EBANDS =     -2623.34131806
  atomic energy  EATOM  =     12703.13999606
  Solvation  Ediel_sol  =         0.00000000
  ---------------------------------------------------
  free energy    TOTEN  =      -258.73103354 eV

  energy without entropy =     -258.73103354  energy(sigma->0) =     -258.73103354


--------------------------------------------------------------------------------------------------------




--------------------------------------- Iteration      1(  15)  ---------------------------------------


    POTLOK:  cpu time      0.0520: real time      0.0529
    SETDIJ:  cpu time      0.3962: real time      0.3977
    EDDIAG:  cpu time      0.3546: real time      0.3565
  RMM-DIIS:  cpu time      1.2595: real time      1.2689
    ORTHCH:  cpu time      0.0669: real time      0.0672
       DOS:  cpu time      0.0004: real time      0.0005
    CHARGE:  cpu time      0.0647: real time      0.0664
    MIXING:  cpu time      0.0012: real time      0.0012
    --------------------------------------------
      LOOP:  cpu time      2.1955: real time      2.2114

 eigenvalue-minimisations  :  3082
 total energy-change (2. order) : 0.2273875E-01  (-0.3312020E-01)
 number of electron     240.0000049 magnetization      -0.2375453
 augmentation part        1.8253679 magnetization      -0.2112314

 Broyden mixing:
  rms(total) = 0.67630E-01    rms(broyden)= 0.67627E-01
  rms(prec ) = 0.79762E-01
  weight for this iteration     100.00

 eigenvalues of (default mixing * dielectric matrix)
  average eigenvalue GAMMA=   1.2728
  2.5412  1.5894  0.9456  0.6851  0.6024

 Free energy of the ion-electron system (eV)
  ---------------------------------------------------
  alpha Z        PSCENC =       301.69328848
  Ewald energy   TEWEN  =     -8836.08404316
  -Hartree energ DENC   =     -2193.39574591
  -exchange      EXHF   =         0.00000000
  -V(xc)+E(xc)   XCENC  =       537.89407696
  PAW double counting   =      9833.26639514    -9977.74493248
  entropy T*S    EENTRO =        -0.00000000
  eigenvalues    EBANDS =     -2627.47732988
  atomic energy  EATOM  =     12703.13999606
  Solvation  Ediel_sol  =         0.00000000
  ---------------------------------------------------
  free energy    TOTEN  =      -258.70829479 eV

  energy without entropy =     -258.70829479  energy(sigma->0) =     -258.70829479


--------------------------------------------------------------------------------------------------------




--------------------------------------- Iteration      1(  16)  ---------------------------------------


    POTLOK:  cpu time      0.0521: real time      0.0530
    SETDIJ:  cpu time      0.4017: real time      0.4029
    EDDIAG:  cpu time      0.3561: real time      0.3581
  RMM-DIIS:  cpu time      1.2635: real time      1.2731
    ORTHCH:  cpu time      0.0667: real time      0.0673
       DOS:  cpu time      0.0005: real time      0.0005
    CHARGE:  cpu time      0.0645: real time      0.0654
    MIXING:  cpu time      0.0012: real time      0.0012
    --------------------------------------------
      LOOP:  cpu time      2.2063: real time      2.2214

 eigenvalue-minimisations  :  3084
 total energy-change (2. order) :-0.2005238E-01  (-0.1007194E-01)
 number of electron     240.0000049 magnetization      -0.1097686
 augmentation part        1.8032179 magnetization      -0.0957095

 Broyden mixing:
  rms(total) = 0.30579E-01    rms(broyden)= 0.30576E-01
  rms(prec ) = 0.37021E-01
  weight for this iteration     100.00

 eigenvalues of (default mixing * dielectric matrix)
  average eigenvalue GAMMA=   1.2501
  2.4596  1.9395  1.0364  0.6208  0.6993  0.7450

 Free energy of the ion-electron system (eV)
  ---------------------------------------------------
  alpha Z        PSCENC =       301.69328848
  Ewald energy   TEWEN  =     -8836.08404316
  -Hartree energ DENC   =     -2192.91899213
  -exchange      EXHF   =         0.00000000
  -V(xc)+E(xc)   XCENC  =       537.81083346
  PAW double counting   =      9821.40097471    -9965.64977009
  entropy T*S    EENTRO =        -0.00000000
  eigenvalues    EBANDS =     -2628.12063451
  atomic energy  EATOM  =     12703.13999606
[...]
  0.360  -0.370  -0.001   0.529  -0.084  -0.092   0.004  -0.001  -0.001   0.004  -0.003  -0.005  -0.005   0.000
  0.405  -0.417  -0.001  -0.084   0.524   0.045  -0.001   0.004   0.000  -0.005  -0.004   0.002   0.005   0.005
 -0.316   0.324   0.001  -0.092   0.045   0.862  -0.001   0.000   0.007   0.006  -0.005   0.005   0.005  -0.009
  0.003  -0.002  -0.000   0.004  -0.001  -0.001   0.000  -0.000  -0.000   0.000  -0.000  -0.000  -0.000   0.000
  0.004  -0.003  -0.000  -0.001   0.004   0.000  -0.000   0.000   0.000  -0.000  -0.000   0.000   0.000   0.000
 -0.002   0.002   0.000  -0.001   0.000   0.007  -0.000   0.000   0.000   0.000  -0.000   0.000   0.000  -0.000
 -0.012   0.012   0.000   0.004  -0.005   0.006   0.000  -0.000   0.000   0.000  -0.000  -0.000  -0.000  -0.000
 -0.008   0.008   0.000  -0.003  -0.004  -0.005  -0.000  -0.000  -0.000  -0.000   0.000   0.000  -0.000  -0.000
 -0.011   0.012   0.000  -0.005   0.002   0.005  -0.000   0.000   0.000  -0.000   0.000   0.000   0.000  -0.000
  0.007  -0.007  -0.000  -0.005   0.005   0.005  -0.000   0.000   0.000  -0.000  -0.000   0.000   0.000   0.000
  0.020  -0.020  -0.000   0.000   0.005  -0.009   0.000   0.000  -0.000  -0.000  -0.000  -0.000   0.000   0.000
 total augmentation occupancy for first ion, spin component:           2
 -0.000   0.000   0.000   0.000  -0.000  -0.000   0.000  -0.000   0.000   0.000   0.000  -0.000  -0.000   0.000
  0.000  -0.000  -0.000  -0.000   0.000   0.000  -0.000   0.000   0.000  -0.000  -0.000   0.000   0.000  -0.000
  0.000  -0.000  -0.000  -0.000   0.000  -0.000  -0.000   0.000  -0.000  -0.000   0.000   0.000   0.000   0.000
  0.000  -0.000  -0.000  -0.000   0.000  -0.000  -0.000   0.000  -0.000  -0.000  -0.000   0.000   0.000   0.000
 -0.000   0.000   0.000   0.000  -0.000   0.000   0.000  -0.000   0.000  -0.000  -0.000  -0.000   0.000   0.000
 -0.000   0.000  -0.000  -0.000   0.000   0.000   0.000   0.000   0.000   0.000   0.000   0.000   0.000   0.000
  0.000  -0.000  -0.000  -0.000   0.000   0.000  -0.000   0.000   0.000  -0.000  -0.000   0.000   0.000   0.000
 -0.000   0.000   0.000   0.000  -0.000   0.000   0.000  -0.000   0.000   0.000   0.000   0.000  -0.000  -0.000
  0.000   0.000  -0.000  -0.000   0.000   0.000   0.000   0.000   0.000   0.000  -0.000  -0.000   0.000   0.000
  0.000  -0.000  -0.000  -0.000  -0.000   0.000  -0.000   0.000   0.000   0.000  -0.000  -0.000   0.000  -0.000
  0.000  -0.000   0.000  -0.000  -0.000   0.000  -0.000   0.000  -0.000  -0.000  -0.000  -0.000  -0.000  -0.000
 -0.000   0.000   0.000   0.000  -0.000   0.000   0.000   0.000  -0.000  -0.000  -0.000   0.000   0.000   0.000
 -0.000   0.000   0.000   0.000   0.000   0.000   0.000  -0.000   0.000   0.000  -0.000   0.000   0.000   0.000
  0.000  -0.000   0.000   0.000   0.000   0.000   0.000  -0.000   0.000  -0.000  -0.000   0.000   0.000   0.000


------------------------ aborting loop because EDIFF is reached ----------------------------------------


    CHARGE:  cpu time      0.0645: real time      0.0649
    FORLOC:  cpu time      0.0038: real time      0.0038
    FORNL :  cpu time      0.3928: real time      0.3950
    STRESS:  cpu time      1.1779: real time      1.1848
    FORCOR:  cpu time      0.0504: real time      0.0508
    FORHAR:  cpu time      0.0084: real time      0.0085
    MIXING:  cpu time      0.0007: real time      0.0007
    OFIELD:  cpu time      0.0000: real time      0.0000

 ---------------------------------------------------------------------------------------------

         DFTD3 V3.0 Rev 1        
 Edisp (eV)  -13.59845

 E6    (eV) :    -8.3807
 E8    (eV) :    -5.2178
 % E8        : 38.37
    FORVDW:  cpu time      0.2906: real time      0.2923

  FORCE on cell =-STRESS in cart. coord.  units (eV):
  Direction    XX          YY          ZZ          XY          YZ          ZX
  --------------------------------------------------------------------------------------
  Alpha Z   301.69329   301.69329   301.69329
  Ewald   -2885.29365 -3019.67497 -2931.22578     0.07345   -28.21969    -0.07760
  Hartree   756.92524   703.24140   735.29205     0.03615   -12.22964    -0.06138
  E(xc)    -947.65686  -948.00205  -947.73798     0.00012    -0.02692     0.00002
  Local   -1573.07601 -1402.30279 -1510.25730    -0.11108    38.78758     0.15023
  n-local  1481.11909  1482.57088  1481.11972     0.00410    -0.68946    -0.00999
  augment  -356.38696  -357.55440  -356.66913    -0.00092     0.08146     0.00122
  Kinetic  3236.79473  3254.62312  3242.28814     0.00714     0.30800    -0.01759
  Fock        0.00000     0.00000     0.00000     0.00000     0.00000     0.00000
  vdW       -14.43471   -14.39726   -14.41161     0.00001    -0.00054    -0.00004
  -------------------------------------------------------------------------------------
  Total      -0.31583     0.19722     0.09140     0.00896    -1.98922    -0.01514
  in kB      -0.56238     0.35118     0.16274     0.01595    -3.54207    -0.02695
  external pressure =       -0.02 kB  Pullay stress =        0.00 kB


 VOLUME and BASIS-vectors are now :
 -----------------------------------------------------------------------------
  energy-cutoff  :      520.00
  volume of cell :      899.78
      direct lattice vectors                 reciprocal lattice vectors
     9.654106098  0.000000000  0.000000000     0.103582868  0.000000000  0.000000000
     0.000000000  9.654106098  0.000000000     0.000000000  0.103582868  0.000000000
     0.000000000  0.000000000  9.654106098     0.000000000  0.000000000  0.103582868

  length of vectors
     9.654106098  9.654106098  9.654106098     0.103582868  0.103582868  0.103582868


 FORCES acting on ions
    electron-ion (+dipol)            ewald-force                    non-local-force                 convergence-correction
 -----------------------------------------------------------------------------------------------
   -.533E+01 -.657E+00 -.173E+01   0.448E+01 0.157E+01 0.279E+01   0.851E+00 -.919E+00 -.107E+01   -.624E-04 0.127E-04 -.147E-03
   -.317E+01 0.101E+01 -.239E+01   0.266E+01 0.179E+00 0.338E+01   0.507E+00 -.120E+01 -.989E+00   -.305E-04 0.898E-04 0.879E-05
   -.231E+01 0.982E+01 -.608E+01   0.308E+01 -.866E+01 0.492E+01   -.773E+00 -.116E+01 0.116E+01   -.731E-04 0.520E-04 0.189E-04
   0.236E+01 0.193E+01 0.695E+01   -.161E+01 -.283E+01 -.597E+01   -.745E+00 0.895E+00 -.985E+00   -.376E-04 -.266E-03 0.751E-04
   0.352E+01 0.380E+00 -.415E+01   -.408E+01 -.146E+01 0.356E+01   0.566E+00 0.108E+01 0.587E+00   0.119E-04 0.216E-04 0.317E-04
   -.113E+02 0.520E+01 -.576E+01   0.101E+02 -.385E+01 0.661E+01   0.120E+01 -.135E+01 -.851E+00   -.324E-04 -.297E-04 0.140E-03
   0.351E+01 -.367E+00 0.416E+01   -.407E+01 0.144E+01 -.357E+01   0.566E+00 -.108E+01 -.585E+00   0.875E-05 -.191E-05 -.733E-04
   -.112E+02 -.516E+01 0.575E+01   0.100E+02 0.381E+01 -.660E+01   0.119E+01 0.135E+01 0.850E+00   -.267E-04 0.104E-04 -.192E-03
   0.166E+01 -.351E+01 0.914E+01   -.716E+00 0.260E+01 -.802E+01   -.944E+00 0.911E+00 -.112E+01   0.138E-03 0.740E-04 -.182E-03
   -.470E+01 0.633E+01 -.122E-01   0.342E+01 -.520E+01 0.147E+01   0.128E+01 -.112E+01 -.146E+01   -.435E-04 -.623E-04 0.132E-05
   0.657E+01 -.311E+01 0.722E+01   -.558E+01 0.230E+01 -.594E+01   -.978E+00 0.815E+00 -.128E+01   0.405E-04 -.320E-04 0.424E-04
   0.121E+02 -.547E+01 -.146E+02   -.106E+02 0.655E+01 0.131E+02   -.151E+01 -.108E+01 0.152E+01   -.342E-04 0.692E-04 -.228E-04
   -.107E+01 0.667E+00 -.189E+01   -.256E-01 -.169E+01 0.119E+01   0.109E+01 0.103E+01 0.699E+00   -.286E-04 -.248E-04 0.136E-03
   -.852E+01 -.132E+01 0.575E+01   0.743E+01 0.245E+01 -.537E+01   0.109E+01 -.114E+01 -.381E+00   0.663E-04 0.689E-04 0.636E-04
   -.110E+01 -.635E+00 0.188E+01   0.310E-02 0.166E+01 -.117E+01   0.109E+01 -.103E+01 -.700E+00   0.441E-05 -.583E-05 -.256E-04
   -.854E+01 0.130E+01 -.573E+01   0.745E+01 -.244E+01 0.534E+01   0.109E+01 0.114E+01 0.379E+00   0.935E-05 -.534E-04 0.104E-03
   0.121E+02 0.547E+01 0.146E+02   -.106E+02 -.654E+01 -.131E+02   -.151E+01 0.108E+01 -.151E+01   -.138E-04 -.909E-04 0.356E-05
   0.658E+01 0.311E+01 -.720E+01   -.560E+01 -.229E+01 0.592E+01   -.978E+00 -.815E+00 0.128E+01   0.493E-04 0.537E-04 -.886E-05
   -.471E+01 -.632E+01 -.254E-01   0.344E+01 0.519E+01 -.144E+01   0.128E+01 0.112E+01 0.147E+01   -.192E-04 0.304E-04 -.743E-04
   0.162E+01 0.352E+01 -.915E+01   -.671E+00 -.261E+01 0.803E+01   -.946E+00 -.913E+00 0.112E+01   0.120E-03 -.114E-03 0.798E-04
   -.537E+01 0.680E+00 0.173E+01   0.451E+01 -.160E+01 -.279E+01   0.855E+00 0.919E+00 0.107E+01   -.361E-04 0.678E-05 0.772E-04
   -.319E+01 -.103E+01 0.240E+01   0.268E+01 -.163E+00 -.340E+01   0.509E+00 0.120E+01 0.990E+00   -.412E-04 -.250E-04 -.342E-05
   -.236E+01 -.984E+01 0.603E+01   0.313E+01 0.868E+01 -.487E+01   -.772E+00 0.116E+01 -.116E+01   -.665E-04 -.991E-04 -.379E-04
   0.235E+01 -.195E+01 -.695E+01   -.160E+01 0.284E+01 0.597E+01   -.746E+00 -.893E+00 0.984E+00   -.107E-04 0.167E-03 -.676E-04
   -.838E+00 0.215E+01 0.331E+00   0.590E+00 -.239E+01 -.494E+00   0.244E+00 0.236E+00 0.156E+00   0.996E-05 0.646E-04 0.426E-04
   0.398E+01 0.470E+01 0.330E+01   -.386E+01 -.459E+01 -.299E+01   -.117E+00 -.116E+00 -.311E+00   -.170E-04 0.551E-04 -.452E-04
   0.407E+01 -.468E+01 -.332E+01   -.395E+01 0.457E+01 0.301E+01   -.120E+00 0.112E+00 0.312E+00   0.552E-04 -.784E-04 -.105E-03
   -.822E+00 -.211E+01 -.316E+00   0.576E+00 0.235E+01 0.476E+00   0.243E+00 -.243E+00 -.154E+00   -.359E-04 -.356E-04 0.596E-04
   -.215E+02 0.346E+02 -.629E+02   0.236E+02 -.375E+02 0.669E+02   -.211E+01 0.294E+01 -.405E+01   0.690E-04 -.104E-03 0.889E-04
   -.427E+02 -.505E+02 0.249E+02   0.463E+02 0.540E+02 -.275E+02   -.365E+01 -.352E+01 0.261E+01   -.190E-03 -.169E-03 0.304E-03
   0.406E+02 0.337E+02 0.386E+02   -.442E+02 -.362E+02 -.418E+02   0.359E+01 0.248E+01 0.326E+01   0.105E-03 0.344E-04 0.258E-03
   0.393E+02 -.427E+02 -.416E+02   -.421E+02 0.453E+02 0.448E+02   0.276E+01 -.268E+01 -.318E+01   0.929E-04 0.766E-04 0.113E-03
   0.574E+02 -.397E+02 -.200E+02   -.620E+02 0.423E+02 0.218E+02   0.460E+01 -.260E+01 -.176E+01   0.107E-04 -.106E-03 -.576E-05
   0.309E+02 0.390E+02 0.517E+02   -.330E+02 -.419E+02 -.556E+02   0.212E+01 0.295E+01 0.398E+01   0.509E-04 -.118E-03 0.178E-04
   -.428E+02 -.527E+02 0.295E+02   0.462E+02 0.554E+02 -.320E+02   -.338E+01 -.268E+01 0.247E+01   -.218E-03 -.209E-03 0.756E-04
   -.386E+02 0.289E+02 -.517E+02   0.418E+02 -.312E+02 0.552E+02   -.316E+01 0.235E+01 -.350E+01   0.504E-04 0.405E-04 -.271E-03
   -.386E+02 -.289E+02 0.517E+02   0.418E+02 0.312E+02 -.552E+02   -.316E+01 -.235E+01 0.350E+01   0.452E-04 0.298E-04 0.162E-03
   -.428E+02 0.527E+02 -.295E+02   0.462E+02 -.554E+02 0.320E+02   -.338E+01 0.268E+01 -.247E+01   -.705E-04 0.112E-03 -.786E-04
   0.309E+02 -.390E+02 -.516E+02   -.330E+02 0.419E+02 0.556E+02   0.213E+01 -.295E+01 -.398E+01   0.126E-03 0.162E-03 -.166E-03
   0.573E+02 0.397E+02 0.201E+02   -.619E+02 -.423E+02 -.219E+02   0.460E+01 0.259E+01 0.176E+01   0.828E-04 0.220E-03 -.231E-04
   -.215E+02 -.347E+02 0.628E+02   0.236E+02 0.376E+02 -.669E+02   -.210E+01 -.295E+01 0.405E+01   -.106E-03 -.615E-04 0.207E-03
   -.427E+02 0.506E+02 -.249E+02   0.464E+02 -.541E+02 0.275E+02   -.365E+01 0.353E+01 -.260E+01   -.146E-04 0.714E-04 -.420E-04
   0.405E+02 -.337E+02 -.387E+02   -.441E+02 0.361E+02 0.419E+02   0.359E+01 -.247E+01 -.326E+01   0.548E-05 0.141E-04 -.148E-03
   0.393E+02 0.426E+02 0.416E+02   -.421E+02 -.453E+02 -.448E+02   0.276E+01 0.267E+01 0.319E+01   0.298E-04 -.884E-04 -.121E-03
   0.187E+01 -.109E+02 -.977E+01   -.190E+01 0.111E+02 0.998E+01   0.352E-01 -.191E+00 -.197E+00   0.187E-03 0.174E-03 0.134E-03
   0.176E+02 0.118E+01 -.545E+01   -.180E+02 -.132E+01 0.552E+01   0.451E+00 0.151E+00 -.663E-01   -.213E-03 -.689E-04 -.118E-03
   0.185E+01 0.109E+02 0.975E+01   -.188E+01 -.111E+02 -.996E+01   0.342E-01 0.189E+00 0.197E+00   0.112E-03 -.237E-03 0.913E-05
   0.176E+02 -.117E+01 0.544E+01   -.180E+02 0.132E+01 -.551E+01   0.450E+00 -.152E+00 0.673E-01   -.118E-03 0.832E-04 0.441E-04
   -.169E+02 0.235E+02 0.295E+02   0.172E+02 -.238E+02 -.300E+02   -.316E+00 0.315E+00 0.518E+00   -.181E-03 0.561E-03 -.488E-03
   -.203E+02 0.150E+02 -.334E+01   0.205E+02 -.151E+02 0.343E+01   -.269E+00 0.112E+00 -.938E-01   0.915E-04 0.181E-04 0.193E-03
   -.204E+02 -.151E+02 0.340E+01   0.207E+02 0.152E+02 -.349E+01   -.268E+00 -.116E+00 0.932E-01   0.613E-06 -.283E-04 0.597E-04
   -.170E+02 -.236E+02 -.295E+02   0.173E+02 0.239E+02 0.300E+02   -.320E+00 -.316E+00 -.517E+00   -.843E-04 -.550E-03 0.173E-03
 -----------------------------------------------------------------------------------------------
   -.486E+01 0.214E-01 -.989E-02   -.675E-13 -.142E-13 -.320E-13   0.488E+01 -.337E-01 0.160E-01   -.232E-03 -.287E-03 0.276E-03
 
 
 POSITION                                       TOTAL-FORCE (eV/Angst)
 -----------------------------------------------------------------------------------
      9.49224      1.89999      2.03784         0.000071     -0.000008      0.000023
      9.40227      6.66781      6.85385        -0.000075     -0.000122     -0.000102
      0.42015      1.45021      7.84208         0.000085     -0.000329     -0.000071
      0.09899      7.67001      1.96276        -0.000028      0.000433     -0.000712
      2.76078      2.99293      9.40042        -0.000048     -0.000065      0.000063
      3.04961      6.34378      0.43761        -0.000130      0.000039      0.000066
      7.58738      1.85197      0.23042        -0.000058      0.000011      0.000003
      7.87573      8.15397      9.19536        -0.000067     -0.000014     -0.000174
      2.04958      9.50298      1.64011         0.000144      0.000298      0.000486
      3.04682      0.07693      6.93363         0.000195      0.000007     -0.000013
      6.55739      9.28182      6.39102        -0.000232     -0.000150     -0.000080
      6.52603      0.50206      3.14711         0.000047      0.000021     -0.000071
      2.70877      7.82653      4.63668         0.000016     -0.000001      0.000001
      3.18231      1.84917      4.95631         0.000076      0.000058      0.000040
      7.53592      6.66899      4.99669        -0.000070      0.000097     -0.000214
      8.01118      2.99444      4.67421         0.000049     -0.000087     -0.000045
      1.69729      4.34165      6.48536         0.000078      0.000003      0.000034
      1.72958      5.21586      3.24100        -0.000180      0.000200      0.000062
      7.87092      4.76753      2.69783         0.000433      0.000027      0.000121
      6.87693      4.99352      7.98844         0.000095     -0.000163     -0.000293
      4.66570      2.94361      7.59299        -0.000023      0.000050      0.000045
      4.57457      7.83249      2.78053        -0.000010     -0.000026     -0.000021
      5.24613      3.39242      1.78880         0.000173      0.000506      0.000118
      4.92601      6.82741      7.66996        -0.000037     -0.000281      0.000482
      4.80170      4.85580      4.74452        -0.000024     -0.000134     -0.000094
      4.86501      0.05035      0.03446         0.000034      0.000167      0.000152
      0.03813      4.79291      9.59834        -0.000172      0.000002     -0.000060
      9.62916      9.64103      4.88682         0.000223     -0.000509      0.000211
      1.08872      8.49527      6.18613        -0.000016      0.000074     -0.000024
      1.24496      1.09512      3.71874        -0.000503     -0.000089      0.000341
      8.36434      8.53045      3.70650         0.000312      0.000299      0.000052
      8.43367      1.15918      6.06663        -0.000064     -0.000093     -0.000150
      8.36208      6.07971      0.84752         0.000172     -0.000196     -0.000177
      8.66293      3.47657      8.40990         0.000117      0.000007     -0.000034
      1.32915      5.85207      8.41187        -0.000347     -0.000259      0.000341
      1.16076      3.78098      1.33429        -0.000182      0.000269     -0.000270
      5.98750      1.06197      8.29789        -0.000224     -0.000236      0.000172
      6.15577      8.64566      1.22130        -0.000180      0.000093     -0.000242
      3.83512      1.36711      1.22176         0.000115     -0.000117     -0.000065
      3.53471      8.41793      8.78496         0.000222      0.000263      0.000194
      5.91480      6.00359      3.44649        -0.000195     -0.000291      0.000187
      6.07256      3.74720      5.91136        -0.000215      0.000043     -0.000174
      3.53746      5.96550      5.92635         0.000250     -0.000071     -0.000048
      3.60621      3.68443      3.56421        -0.000044      0.000133      0.000084
      7.16521      7.18214      7.20624        -0.000087     -0.000083     -0.000131
      7.33054      2.55419      2.44816         0.000160      0.000014     -0.000022
      2.33822      7.31560      2.42642        -0.000034      0.000146      0.000012
      2.50388      2.28985      7.18289         0.000113      0.000018      0.000060
      9.60050      0.15708      0.27029         0.000011      0.000009      0.000002
      9.46799      5.01602      4.79754         0.000039     -0.000020     -0.000044
      4.63993      9.48143      4.83542         0.000029      0.000022      0.000008
      4.77421      4.68587      9.36096        -0.000016      0.000032     -0.000029
 -----------------------------------------------------------------------------------
    total drift:                                0.017245     -0.012649      0.006392


--------------------------------------------------------------------------------------------------------



  FREE ENERGIE OF THE ION-ELECTRON SYSTEM (eV)
  ---------------------------------------------------
  free  energy   TOTEN  =      -272.33449465 eV

  energy  without entropy=     -272.33449465  energy(sigma->0) =     -272.33449465
 
 d Force = 0.3760098E-06[ 0.262E-06, 0.490E-06]  d Energy = 0.9596878E-06-0.584E-06
 d Force = 0.1305905E-01[ 0.131E-01, 0.131E-01]  d Ewald  = 0.1305905E-01 0.382E-10


--------------------------------------------------------------------------------------------------------


    POTLOK:  cpu time      0.4530: real time      0.4544


--------------------------------------------------------------------------------------------------------


 stress matrix after NEB project (eV)
     -0.31583      0.00896     -0.01514
      0.00896      0.19722     -1.98922
     -0.01514     -1.98922      0.09140
  FORCES: max atom, RMS     0.000834    0.000311
  FORCE total and by dimension    0.002245    0.000712
  Stress total and by dimension    2.839297    1.989220


--------------------------------------------------------------------------------------------------------


  
 reached required accuracy - stopping structural energy minimisation
     LOOP+:  cpu time     11.5014: real time     11.6669
    4ORBIT:  cpu time      0.0000: real time      0.0000

 total amount of memory used by VASP MPI-rank0    48238. kBytes
=======================================================================

   base      :      30000. kBytes
   nonlr-proj:       6578. kBytes
   fftplans  :       1747. kBytes
   grid      :       5278. kBytes
   one-center:         62. kBytes
   wavefun   :       4573. kBytes
 
  
  
 General timing and accounting informations for this job:
 ========================================================
  
                  Total CPU time used (sec):      108.870
                            User time (sec):      107.668
                          System time (sec):        1.202
                         Elapsed time (sec):      114.707
  
                   Maximum memory used (kb):      385728.
                   Average memory used (kb):          N/A
  
                          Minor page faults:        62936
                          Major page faults:          136
                 Voluntary context switches:         3835
