<?xml version="1.0" encoding="ISO-8859-1"?>
<modeling>
 <generator>
  <i name="program" type="string">vasp </i>
  <i name="version" type="string">6.4.1  </i>
  <i name="subversion" type="string">05Apr23 (build Jun 07 2023 15:38:11) complex                          parallel </i>
  <i name="platform" type="string">LinuxIFC </i>
  <i name="date" type="string">2023 10 19 </i>
  <i name="time" type="string">14:30:09 </i>
 </generator>
 <incar>
  <i type="string" name="PREC">Accu</i>
  <i type="string" name="ALGO">F</i>
  <i type="logical" name="LDIAG"> T  </i>
  <i type="int" name="ISPIN">     2</i>
  <i type="int" name="NELM">   100</i>
  <i type="int" name="NELMDL">   -10</i>
  <i type="int" name="IBRION">     2</i>
  <i name="EDIFF">      0.00000100</i>
  <i name="EDIFFG">     -0.00100000</i>
  <i type="int" name="NSW">  1000</i>
  <i type="int" name="ISIF">     2</i>
  <i name="ENCUT">    520.00000000</i>
  <i name="POTIM">      0.20000000</i>
  <i type="string" name="LREAL">Auto</i>
  <i type="logical" name="LPLANE"> T  </i>
  <i type="int" name="ISMEAR">     0</i>
  <i name="SIGMA">      0.03000000</i>
  <i type="int" name="LMAXMIX">     4</i>
  <i type="logical" name="LWAVE"> F  </i>
  <i type="logical" name="LCHARG"> F  </i>
  <i type="logical" name="LASPH"> T  </i>
  <i type="string" name="GGA">PE</i>
  <i type="int" name="IVDW">    12</i>
 </incar>
 <primitive_cell>
  <structure name="primitive_cell" >
   <crystal>
    <varray name="basis" >
     <v>       9.65410610       0.00000000       0.00000000 </v>
     <v>       0.00000000       9.65410610       0.00000000 </v>
     <v>       0.00000000       0.00000000       9.65410610 </v>
    </varray>
    <i name="volume">    899.77972346 </i>
    <varray name="rec_basis" >
     <v>       0.10358287       0.00000000       0.00000000 </v>
     <v>       0.00000000       0.10358287       0.00000000 </v>
     <v>       0.00000000       0.00000000       0.10358287 </v>
    </varray>
   </crystal>
   <varray name="positions" >
    <v>       0.98323244       0.19680630       0.21108638 </v>
    <v>       0.97391585       0.69067529       0.70994688 </v>
    <v>       0.04351868       0.15022728       0.81230779 </v>
    <v>       0.01025524       0.79446685       0.20333099 </v>
    <v>       0.28597159       0.31002064       0.97371922 </v>
    <v>       0.31589411       0.65710719       0.04532469 </v>
    <v>       0.78592496       0.19183170       0.02386868 </v>
    <v>       0.81579391       0.84461215       0.95248801 </v>
    <v>       0.21229722       0.98433728       0.16987206 </v>
    <v>       0.31559182       0.00797070       0.71820707 </v>
    <v>       0.67924025       0.96144159       0.66200181 </v>
    <v>       0.67598461       0.05200431       0.32598973 </v>
    <v>       0.28058256       0.81069571       0.48027743 </v>
    <v>       0.32962941       0.19154072       0.51338627 </v>
    <v>       0.78059518       0.69078897       0.51757720 </v>
    <v>       0.82982048       0.31017679       0.48416794 </v>
    <v>       0.17580753       0.44972030       0.67177125 </v>
    <v>       0.17915984       0.54026853       0.33570974 </v>
    <v>       0.81528019       0.49383353       0.27944352 </v>
    <v>       0.71232917       0.51724938       0.82747440 </v>
    <v>       0.48328670       0.30490637       0.78650055 </v>
    <v>       0.47384720       0.81131272       0.28801450 </v>
    <v>       0.54340435       0.35138245       0.18528450 </v>
    <v>       0.51025164       0.70721356       0.79446100 </v>
    <v>       0.49737160       0.50297406       0.49145073 </v>
    <v>       0.50393196       0.00522014       0.00357312 </v>
    <v>       0.00394400       0.49645963       0.99422448 </v>
    <v>       0.99741944       0.99863734       0.50619770 </v>
    <v>       0.11276864       0.87996939       0.64076667 </v>
    <v>       0.12895793       0.11342841       0.38518976 </v>
    <v>       0.86640068       0.88361052       0.38393715 </v>
    <v>       0.87358968       0.12007714       0.62839572 </v>
    <v>       0.86617670       0.62975150       0.08779142 </v>
    <v>       0.89732933       0.36012152       0.87112636 </v>
    <v>       0.13767787       0.60617175       0.87132787 </v>
    <v>       0.12023351       0.39164257       0.13820430 </v>
    <v>       0.62020093       0.11000228       0.85952409 </v>
    <v>       0.63762951       0.89554629       0.12650491 </v>
    <v>       0.39724764       0.14160072       0.12654574 </v>
    <v>       0.36614033       0.87195504       0.90996829 </v>
    <v>       0.61267143       0.62187388       0.35700519 </v>
    <v>       0.62901314       0.38815418       0.61231820 </v>
    <v>       0.36641885       0.61792155       0.61386352 </v>
    <v>       0.37355044       0.38164316       0.36919341 </v>
    <v>       0.74219694       0.74395147       0.74644791 </v>
    <v>       0.75931851       0.26456815       0.25358759 </v>
    <v>       0.24220398       0.75776651       0.25133265 </v>
    <v>       0.25935965       0.23719169       0.74402214 </v>
    <v>       0.99444227       0.01627925       0.02799674 </v>
    <v>       0.98072151       0.51957571       0.49693983 </v>
    <v>       0.48061673       0.98211176       0.50087188 </v>
    <v>       0.49452435       0.48536661       0.96963381 </v>
   </varray>
  </structure>
  <varray name="primitive_index" >
   <v type="int" >        1 </v>
   <v type="int" >        2 </v>
   <v type="int" >        3 </v>
   <v type="int" >        4 </v>
   <v type="int" >        5 </v>
   <v type="int" >        6 </v>
   <v type="int" >        7 </v>
   <v type="int" >        8 </v>
   <v type="int" >        9 </v>
   <v type="int" >       10 </v>
   <v type="int" >       11 </v>
   <v type="int" >       12 </v>
   <v type="int" >       13 </v>
   <v type="int" >       14 </v>
   <v type="int" >       15 </v>
   <v type="int" >       16 </v>
   <v type="int" >       17 </v>
   <v type="int" >       18 </v>
   <v type="int" >       19 </v>
   <v type="int" >       20 </v>
   <v type="int" >       21 </v>
   <v type="int" >       22 </v>
   <v type="int" >       23 </v>
   <v type="int" >       24 </v>
   <v type="int" >       25 </v>
   <v type="int" >       26 </v>
   <v type="int" >       27 </v>
   <v type="int" >       28 </v>
   <v type="int" >       29 </v>
   <v type="int" >       30 </v>
   <v type="int" >       31 </v>
   <v type="int" >       32 </v>
   <v type="int" >       33 </v>
   <v type="int" >       34 </v>
   <v type="int" >       35 </v>
   <v type="int" >       36 </v>
   <v type="int" >       37 </v>
   <v type="int" >       38 </v>
   <v type="int" >       39 </v>
   <v type="int" >       40 </v>
   <v type="int" >       41 </v>
   <v type="int" >       42 </v>
   <v type="int" >       43 </v>
   <v type="int" >       44 </v>
   <v type="int" >       45 </v>
   <v type="int" >       46 </v>
   <v type="int" >       47 </v>
   <v type="int" >       48 </v>
   <v type="int" >       49 </v>
   <v type="int" >       50 </v>
   <v type="int" >       51 </v>
   <v type="int" >       52 </v>
  </varray>
 </primitive_cell>
 <kpoints>
  <generation param="Monkhorst-Pack">
   <v type="int" name="divisions">       2        2        2 </v>
   <v name="usershift">      0.00000000       0.00000000       0.00000000 </v>
   <v name="genvec1">      0.50000000       0.00000000       0.00000000 </v>
   <v name="genvec2">      0.00000000       0.50000000       0.00000000 </v>
   <v name="genvec3">      0.00000000       0.00000000       0.50000000 </v>
   <v name="shift">      0.50000000       0.50000000       0.50000000 </v>
  </generation>
  <varray name="kpointlist" >
   <v>       0.25000000       0.25000000       0.25000000 </v>
   <v>      -0.25000000       0.25000000       0.25000000 </v>
   <v>      -0.25000000      -0.25000000       0.25000000 </v>
   <v>       0.25000000      -0.25000000       0.25000000 </v>
  </varray>
  <varray name="weights" >
   <v>       0.25000000 </v>
   <v>       0.25000000 </v>
   <v>       0.25000000 </v>
   <v>       0.25000000 </v>
  </varray>
 </kpoints>
 <parameters>
  <separator name="general" >
   <i type="string" name="SYSTEM">unknown system</i>
   <i type="logical" name="LCOMPAT"> F  </i>
  </separator>
  <separator name="electronic" >
   <i type="string" name="PREC">accu</i>
   <i name="ENMAX">    520.00000000</i>
   <i name="ENAUG">   1041.69900000</i>
   <i name="EDIFF">      0.00000100</i>
   <i type="int" name="IALGO">    68</i>
   <i type="int" name="IWAVPR">    11</i>
   <i type="int" name="NBANDS">   176</i>
   <i type="int" name="NBANDSLOW">    -1</i>
   <i type="int" name="NBANDSHIGH">    -1</i>
   <i name="NELECT">    240.00000000</i>
   <i type="int" name="TURBO">     0</i>
   <i type="int" name="IRESTART">     0</i>
   <i type="int" name="NREBOOT">     0</i>
   <i type="int" name="NMIN">     0</i>
   <i name="EREF">      0.00000000</i>
   <separator name="electronic smearing" >
    <i type="int" name="ISMEAR">     0</i>
    <i name="SIGMA">      0.03000000</i>
    <i name="KSPACING">      0.50000000</i>
    <i type="logical" name="KGAMMA"> T  </i>
    <i type="logical" name="KBLOWUP"> T  </i>
   </separator>
   <separator name="electronic projectors" >
    <i type="logical" name="LREAL"> T  </i>
    <v name="ROPT">     -0.00025000     -0.00025000     -0.00025000     -0.00025000</v>
    <i type="int" name="LMAXPAW">  -100</i>
    <i type="int" name="LMAXMIX">     4</i>
    <i type="logical" name="NLSPLINE"> F  </i>
   </separator>
   <separator name="electronic startup" >
    <i type="int" name="ISTART">     0</i>
    <i type="int" name="ICHARG">     2</i>
    <i type="int" name="INIWAV">     1</i>
   </separator>
   <separator name="electronic spin" >
    <i type="int" name="ISPIN">     2</i>
    <i type="logical" name="LNONCOLLINEAR"> F  </i>
    <v name="MAGMOM">      1.00000000      1.00000000      1.00000000      1.00000000      1.00000000      1.00000000      1.00000000      1.00000000      1.00000000      1.00000000      1.00000000      1.00000000      1.00000000      1.00000000      1.00000000      1.00000000      1.00000000      1.00000000      1.00000000      1.00000000
      1.00000000      1.00000000      1.00000000      1.00000000      1.00000000      1.00000000      1.00000000      1.00000000      1.00000000      1.00000000      1.00000000      1.00000000      1.00000000      1.00000000      1.00000000      1.00000000      1.00000000      1.00000000      1.00000000      1.00000000
      1.00000000      1.00000000      1.00000000      1.00000000      1.00000000      1.00000000      1.00000000      1.00000000      1.00000000      1.00000000      1.00000000      1.00000000</v>
    <i name="NUPDOWN">     -1.00000000</i>
    <i type="logical" name="LSORBIT"> F  </i>
    <v name="SAXIS">      0.00000000      0.00000000      1.00000000</v>
    <i type="logical" name="LSPIRAL"> F  </i>
    <v name="QSPIRAL">      0.00000000      0.00000000      0.00000000</v>
    <i type="logical" name="LZEROZ"> F  </i>
   </separator>
   <separator name="electronic exchange-correlation" >
    <i type="logical" name="LASPH"> T  </i>
    <i type="logical" name="LMETAGGA"> F  </i>
   </separator>
   <separator name="electronic convergence" >
    <i type="int" name="NELM">   100</i>
    <i type="int" name="NELMDL">   -10</i>
    <i type="int" name="NELMIN">     2</i>
    <i name="ENINI">    520.00000000</i>
    <separator name="electronic convergence detail" >
     <i type="logical" name="LDIAG"> T  </i>
     <i type="logical" name="LSUBROT"> F  </i>
     <i name="WEIMIN">      0.00100000</i>
     <i name="EBREAK">      0.00000000</i>
     <i name="DEPER">      0.30000000</i>
     <i type="int" name="NRMM">     4</i>
     <i name="TIME">      0.40000000</i>
    </separator>
   </separator>
   <separator name="electronic mixer" >
    <i name="AMIX">      0.40000000</i>
    <i name="BMIX">      1.00000000</i>
    <i name="AMIN">      0.10000000</i>
    <i name="AMIX_MAG">      1.60000000</i>
    <i name="BMIX_MAG">      1.00000000</i>
    <separator name="electronic mixer details" >
     <i type="int" name="IMIX">     4</i>
     <i type="logical" name="MIXFIRST"> F  </i>
     <i type="int" name="MAXMIX">   -45</i>
     <i name="WC">    100.00000000</i>
     <i type="int" name="INIMIX">     1</i>
     <i type="int" name="MIXPRE">     1</i>
     <i type="int" name="MREMOVE">     5</i>
    </separator>
   </separator>
   <separator name="electronic dipolcorrection" >
    <i type="logical" name="LDIPOL"> F  </i>
    <i type="logical" name="LMONO"> F  </i>
    <i type="int" name="IDIPOL">     0</i>
    <i name="EPSILON">      1.00000000</i>
    <v name="DIPOL">   -100.00000000   -100.00000000   -100.00000000</v>
    <i name="EFIELD">      0.00000000</i>
   </separator>
  </separator>
  <separator name="grids" >
   <i type="int" name="NGX">    72</i>
   <i type="int" name="NGY">    72</i>
   <i type="int" name="NGZ">    72</i>
   <i type="int" name="NGXF">   144</i>
   <i type="int" name="NGYF">   144</i>
   <i type="int" name="NGZF">   144</i>
   <i type="logical" name="ADDGRID"> F  </i>
  </separator>
  <separator name="ionic" >
   <i type="int" name="NSW">  1000</i>
   <i type="int" name="IBRION">     2</i>
   <i type="int" name="MDALGO">     0</i>
   <i type="int" name="ISIF">     2</i>
   <i name="PSTRESS">      0.00000000</i>
   <i name="EDIFFG">     -0.00100000</i>
   <i type="int" name="NFREE">     1</i>
   <i name="POTIM">      0.20000000</i>
   <i name="SMASS">     -3.00000000</i>
   <i name="SCALEE">      1.00000000</i>
  </separator>
  <separator name="ionic md" >
   <i name="TEBEG">      0.00010000</i>
   <i name="TEEND">      0.00010000</i>
   <i type="int" name="NBLOCK">     1</i>
   <i type="int" name="KBLOCK">  1000</i>
   <i type="int" name="NPACO">   256</i>
   <i name="APACO">     10.00000000</i>
  </separator>
  <separator name="symmetry" >
   <i type="int" name="ISYM">     2</i>
   <i name="SYMPREC">      0.00001000</i>
  </separator>
  <separator name="dos" >
   <i type="int" name="LORBIT">     0</i>
   <v name="RWIGS">     -1.00000000     -1.00000000     -1.00000000     -1.00000000</v>
   <i type="int" name="NEDOS">   301</i>
   <i name="EMIN">     10.00000000</i>
   <i name="EMAX">    -10.00000000</i>
   <i name="EFERMI">      0.00000000</i>
  </separator>
  <separator name="writing" >
   <i type="int" name="NWRITE">     2</i>
   <i type="logical" name="LWAVE"> F  </i>
   <i type="logical" name="LDOWNSAMPLE"> F  </i>
   <i type="logical" name="LCHARG"> F  </i>
   <i type="logical" name="LPARD"> F  </i>
   <i type="logical" name="LVTOT"> F  </i>
   <i type="logical" name="LVHAR"> F  </i>
   <i type="logical" name="LELF"> F  </i>
   <i type="logical" name="LOPTICS"> F  </i>
   <v name="STM">      0.00000000      0.00000000      0.00000000      0.00000000      0.00000000      0.00000000      0.00000000</v>
  </separator>
  <separator name="performance" >
   <i type="int" name="NPAR">     4</i>
   <i type="int" name="NSIM">     4</i>
   <i type="int" name="NBLK">    -1</i>
   <i type="logical" name="LPLANE"> T  </i>
   <i type="logical" name="LSCALAPACK"> T  </i>
   <i type="logical" name="LSCAAWARE"> F  </i>
   <i type="logical" name="LSCALU"> F  </i>
   <i type="logical" name="LASYNC"> F  </i>
   <i type="logical" name="LORBITALREAL"> F  </i>
  </separator>
  <separator name="miscellaneous" >
   <i type="int" name="IDIOT">     3</i>
   <i type="int" name="PHON_NSTRUCT">    -1</i>
   <i type="logical" name="LMUSIC"> F  </i>
   <v name="POMASS">      7.01000000     30.97400000     32.06600000     35.45300000</v>
   <v name="DARWINR">      0.00000000      0.00000000      0.00000000      0.00000000</v>
   <v name="DARWINV">      1.00000000      1.00000000      1.00000000      1.00000000</v>
   <i type="logical" name="LCORR"> T  </i>
  </separator>
  <i type="logical" name="GGA_COMPAT"> T  </i>
  <i type="logical" name="LBERRY"> F  </i>
  <i type="int" name="ICORELEVEL">     0</i>
  <i type="logical" name="LDAU"> F  </i>
  <i type="int" name="I_CONSTRAINED_M">     0</i>
  <separator name="electronic exchange-correlation" >
   <i type="string" name="GGA">PE</i>
   <i type="int" name="VOSKOWN">     0</i>
   <i type="logical" name="LHFCALC"> F  </i>
   <i type="string" name="PRECFOCK"></i>
   <i type="logical" name="LSYMGRAD"> F  </i>
   <i type="logical" name="LHFONE"> F  </i>
   <i type="logical" name="LRHFCALC"> F  </i>
   <i type="logical" name="LTHOMAS"> F  </i>
   <i type="logical" name="LMODELHF"> F  </i>
   <i type="logical" name="LFOCKACE"> F  </i>
   <i name="ENCUT4O">     -1.00000000</i>
   <i type="int" name="EXXOEP">     0</i>
   <i type="int" name="FOURORBIT">     0</i>
   <i name="AEXX">      0.00000000</i>
   <i name="HFALPHA">      0.00000000</i>
   <i name="MCALPHA">      0.00000000</i>
   <i name="ALDAX">      1.00000000</i>
   <i name="AGGAX">      1.00000000</i>
   <i name="ALDAC">      1.00000000</i>
   <i name="AGGAC">      1.00000000</i>
   <i type="int" name="NKREDX">     1</i>
   <i type="int" name="NKREDY">     1</i>
   <i type="int" name="NKREDZ">     1</i>
   <i type="logical" name="SHIFTRED"> F  </i>
   <i type="logical" name="ODDONLY"> F  </i>
   <i type="logical" name="EVENONLY"> F  </i>
   <i type="int" name="LMAXFOCK">     0</i>
   <i type="int" name="NMAXFOCKAE">     0</i>
   <i type="logical" name="LFOCKAEDFT"> F  </i>
   <i name="HFSCREEN">      0.00000000</i>
   <i name="HFSCREENC">      0.00000000</i>
   <i type="int" name="NBANDSGWLOW">     0</i>
  </separator>
  <separator name="vdW DFT" >
   <i type="logical" name="LUSE_VDW"> F  </i>
   <i type="int" name="IVDW_NL">     1</i>
   <i type="logical" name="LSPIN_VDW"> F  </i>
   <i name="Zab_VDW">     -0.84910000</i>
   <i name="PARAM1">      0.12340000</i>
   <i name="PARAM2">      1.00000000</i>
   <i name="PARAM3">      0.00000000</i>
  </separator>
  <separator name="model GW" >
   <i type="int" name="MODEL_GW">     0</i>
   <i name="MODEL_EPS0">     10.38207373</i>
   <i name="MODEL_ALPHA">      1.00000000</i>
  </separator>
  <separator name="linear response parameters" >
   <i type="logical" name="LEPSILON"> F  </i>
   <i type="logical" name="LRPA"> F  </i>
   <i type="logical" name="LNABLA"> F  </i>
   <i type="logical" name="LVEL"> F  </i>
   <i name="CSHIFT">      0.10000000</i>
   <i name="OMEGAMAX">     -1.00000000</i>
   <i name="DEG_THRESHOLD">      0.00200000</i>
   <i name="RTIME">     -0.10000000</i>
   <i name="WPLASMAI">      0.00000000</i>
   <v name="DFIELD">      0.00000000      0.00000000      0.00000000</v>
   <v name="WPLASMA">      0.00000000      0.00000000      0.00000000      0.00000000      0.00000000      0.00000000      0.00000000      0.00000000      0.00000000</v>
  </separator>
  <separator name="orbital magnetization" >
   <i type="logical" name="NUCIND"> F  </i>
   <v name="MAGPOS">      0.00000000      0.00000000      0.00000000</v>
   <i type="logical" name="LNICSALL"> T  </i>
   <i type="logical" name="ORBITALMAG"> F  </i>
   <i type="logical" name="LMAGBLOCH"> F  </i>
   <i type="logical" name="LCHIMAG"> F  </i>
   <i type="logical" name="LGAUGE"> T  </i>
   <i type="int" name="MAGATOM">     0</i>
   <v name="MAGDIPOL">      0.00000000      0.00000000      0.00000000</v>
   <v name="AVECCONST">      0.00000000      0.00000000      0.00000000</v>
  </separator>
  <separator name="response functions" >
   <i type="logical" name="LALL_IN_ONE"> F  </i>
   <i type="int" name="IALL_IN_ONE">    -1</i>
   <i type="int" name="NBANDS_WAVE">    -1</i>
   <i type="logical" name="LFINITE_TEMPERATURE"> F  </i>
   <i type="logical" name="LADDER"> F  </i>
   <i type="logical" name="LRPAFORCE"> F  </i>
   <i type="logical" name="LFXC"> F  </i>
   <i type="logical" name="LHARTREE"> T  </i>
   <i type="int" name="IBSE">     0</i>
   <v type="int" name="KPOINT">    -1     0     0     0</v>
   <i type="logical" name="LTCTC"> F  </i>
   <i type="logical" name="LTCTE"> F  </i>
   <i type="logical" name="LTETE"> F  </i>
   <i type="logical" name="LTRIPLET"> F  </i>
   <i type="logical" name="LFXCEPS"> F  </i>
   <i type="logical" name="LFXHEG"> F  </i>
   <i type="int" name="NATURALO">     2</i>
   <i type="logical" name="LHOLEGF"> F  </i>
   <i type="logical" name="L2ORDER"> F  </i>
   <i type="logical" name="LDMP1"> F  </i>
   <i type="logical" name="LMP2LT"> F  </i>
   <i type="logical" name="LSMP2LT"> F  </i>
   <i type="logical" name="LGWLF"> F  </i>
   <i name="ENCUTGW">     -1.60000002</i>
   <i name="ENCUTGWSOFT">     -1.60000002</i>
   <i name="ENCUTLF">     -1.00000000</i>
   <i type="logical" name="LESF_SPLINES"> F  </i>
   <i type="int" name="LMAXMP2">    -1</i>
   <i name="SCISSOR">      0.00000000</i>
   <i type="int" name="NOMEGA">     0</i>
   <i type="int" name="NOMEGAR">     0</i>
   <i type="int" name="NBANDSGW">    -1</i>
   <i type="int" name="NBANDSO">    -1</i>
   <i type="int" name="NBANDSV">    -1</i>
   <i type="int" name="NELMGW">     1</i>
   <i type="int" name="NELMHF">     1</i>
   <i type="int" name="DIM">     3</i>
   <i type="int" name="IESPILON">     4</i>
   <i type="int" name="ANTIRES">     0</i>
   <i name="OMEGAMAX">    -30.00000000</i>
   <i name="OMEGAMIN">    -30.00000000</i>
   <i name="OMEGATL">   -200.00000000</i>
   <i type="int" name="OMEGAGRID">     0</i>
   <i name="CSHIFT">     -0.10000000</i>
   <i type="logical" name="LSELFENERGY"> F  </i>
   <i type="logical" name="LSPECTRAL"> F  </i>
   <i type="logical" name="LSPECTRALGW"> F  </i>
   <i type="logical" name="LSINGLES"> F  </i>
   <i type="logical" name="LFERMIGW"> F  </i>
   <i type="logical" name="ODDONLYGW"> F  </i>
   <i type="logical" name="EVENONLYGW"> F  </i>
   <i type="int" name="NKREDLFX">     1</i>
   <i type="int" name="NKREDLFY">     1</i>
   <i type="int" name="NKREDLFZ">     1</i>
   <i type="int" name="MAXMEM">  2800</i>
   <i type="int" name="TELESCOPE">     0</i>
   <i type="int" name="NTAUPAR">    -1</i>
   <i type="int" name="NOMEGAPAR">    -1</i>
   <i name="DAMP_NEWTON">      0.80000001</i>
   <i name="LAMBDA">      1.00000000</i>
  </separator>
  <separator name="External order field" >
   <i name="OFIELD_KAPPA">      0.00000000</i>
   <v name="OFIELD_K">      0.00000000      0.00000000      0.00000000</v>
   <i name="OFIELD_Q6_NEAR">      0.00000000</i>
   <i name="OFIELD_Q6_FAR">      0.00000000</i>
   <i name="OFIELD_A">      0.00000000</i>
  </separator>
  <separator name="optional k-points parameters" >
   <i type="int" name="KPOINTS_OPT_MODE">     1</i>
   <i type="logical" name="LKPOINTS_OPT"> F  </i>
  </separator>
 </parameters>
 <atominfo>
  <atoms>      52 </atoms>
  <types>       4 </types>
  <array name="atoms" >
   <dimension dim="1">ion</dimension>
   <field type="string">element</field>
   <field type="int">atomtype</field>
   <set>
    <rc><c>Li</c><c>   1</c></rc>
    <rc><c>Li</c><c>   1</c></rc>
    <rc><c>Li</c><c>   1</c></rc>
    <rc><c>Li</c><c>   1</c></rc>
    <rc><c>Li</c><c>   1</c></rc>
    <rc><c>Li</c><c>   1</c></rc>
    <rc><c>Li</c><c>   1</c></rc>
    <rc><c>Li</c><c>   1</c></rc>
    <rc><c>Li</c><c>   1</c></rc>
    <rc><c>Li</c><c>   1</c></rc>
    <rc><c>Li</c><c>   1</c></rc>
    <rc><c>Li</c><c>   1</c></rc>
    <rc><c>Li</c><c>   1</c></rc>
    <rc><c>Li</c><c>   1</c></rc>
    <rc><c>Li</c><c>   1</c></rc>
    <rc><c>Li</c><c>   1</c></rc>
    <rc><c>Li</c><c>   1</c></rc>
    <rc><c>Li</c><c>   1</c></rc>
    <rc><c>Li</c><c>   1</c></rc>
    <rc><c>Li</c><c>   1</c></rc>
    <rc><c>Li</c><c>   1</c></rc>
    <rc><c>Li</c><c>   1</c></rc>
    <rc><c>Li</c><c>   1</c></rc>
    <rc><c>Li</c><c>   1</c></rc>
    <rc><c>P </c><c>   2</c></rc>
    <rc><c>P </c><c>   2</c></rc>
    <rc><c>P </c><c>   2</c></rc>
    <rc><c>P </c><c>   2</c></rc>
    <rc><c>S </c><c>   3</c></rc>
    <rc><c>S </c><c>   3</c></rc>
    <rc><c>S </c><c>   3</c></rc>
    <rc><c>S </c><c>   3</c></rc>
    <rc><c>S </c><c>   3</c></rc>
    <rc><c>S </c><c>   3</c></rc>
    <rc><c>S </c><c>   3</c></rc>
    <rc><c>S </c><c>   3</c></rc>
    <rc><c>S </c><c>   3</c></rc>
    <rc><c>S </c><c>   3</c></rc>
    <rc><c>S </c><c>   3</c></rc>
    <rc><c>S </c><c>   3</c></rc>
    <rc><c>S </c><c>   3</c></rc>
    <rc><c>S </c><c>   3</c></rc>
    <rc><c>S </c><c>   3</c></rc>
    <rc><c>S </c><c>   3</c></rc>
    <rc><c>S </c><c>   3</c></rc>
    <rc><c>S </c><c>   3</c></rc>
    <rc><c>S </c><c>   3</c></rc>
    <rc><c>S </c><c>   3</c></rc>
    <rc><c>Cl</c><c>   4</c></rc>
    <rc><c>Cl</c><c>   4</c></rc>
    <rc><c>Cl</c><c>   4</c></rc>
    <rc><c>Cl</c><c>   4</c></rc>
   </set>
  </array>
  <array name="atomtypes" >
   <dimension dim="1">type</dimension>
   <field type="int">atomspertype</field>
   <field type="string">element</field>
   <field>mass</field>
   <field>valence</field>
   <field type="string">pseudopotential</field>
   <set>
    <rc><c>  24</c><c>Li</c><c>      7.01000000</c><c>      3.00000000</c><c>  PAW_PBE Li_sv_GW 25Mar2010            </c></rc>
    <rc><c>   4</c><c>P </c><c>     30.97400000</c><c>      5.00000000</c><c>  PAW_PBE P_GW 19Mar2012                </c></rc>
    <rc><c>  20</c><c>S </c><c>     32.06600000</c><c>      6.00000000</c><c>  PAW_PBE S_GW 19Mar2012                </c></rc>
    <rc><c>   4</c><c>Cl</c><c>     35.45300000</c><c>      7.00000000</c><c>  PAW_PBE Cl_GW 19Mar2012               </c></rc>
   </set>
  </array>
 </atominfo>
 <structure name="initialpos" >
  <crystal>
   <varray name="basis" >
    <v>       9.65410610       0.00000000       0.00000000 </v>
    <v>       0.00000000       9.65410610       0.00000000 </v>
    <v>       0.00000000       0.00000000       9.65410610 </v>
   </varray>
   <i name="volume">    899.77972346 </i>
   <varray name="rec_basis" >
    <v>       0.10358287       0.00000000       0.00000000 </v>
    <v>       0.00000000       0.10358287       0.00000000 </v>
    <v>       0.00000000       0.00000000       0.10358287 </v>
   </varray>
  </crystal>
  <varray name="positions" >
   <v>       0.98323244       0.19680630       0.21108638 </v>
   <v>       0.97391585       0.69067529       0.70994688 </v>
   <v>       0.04351868       0.15022728       0.81230779 </v>
   <v>       0.01025524       0.79446685       0.20333099 </v>
   <v>       0.28597159       0.31002064       0.97371922 </v>
   <v>       0.31589411       0.65710719       0.04532469 </v>
   <v>       0.78592496       0.19183170       0.02386868 </v>
   <v>       0.81579391       0.84461215       0.95248801 </v>
   <v>       0.21229722       0.98433728       0.16987206 </v>
   <v>       0.31559182       0.00797070       0.71820707 </v>
   <v>       0.67924025       0.96144159       0.66200181 </v>
   <v>       0.67598461       0.05200431       0.32598973 </v>
   <v>       0.28058256       0.81069571       0.48027743 </v>
   <v>       0.32962941       0.19154072       0.51338627 </v>
   <v>       0.78059518       0.69078897       0.51757720 </v>
   <v>       0.82982048       0.31017679       0.48416794 </v>
   <v>       0.17580753       0.44972030       0.67177125 </v>
   <v>       0.17915984       0.54026853       0.33570974 </v>
   <v>       0.81528019       0.49383353       0.27944352 </v>
   <v>       0.71232917       0.51724938       0.82747440 </v>
   <v>       0.48328670       0.30490637       0.78650055 </v>
   <v>       0.47384720       0.81131272       0.28801450 </v>
   <v>       0.54340435       0.35138245       0.18528450 </v>
   <v>       0.51025164       0.70721356       0.79446100 </v>
   <v>       0.49737160       0.50297406       0.49145073 </v>
   <v>       0.50393196       0.00522014       0.00357312 </v>
   <v>       0.00394400       0.49645963       0.99422448 </v>
   <v>       0.99741944       0.99863734       0.50619770 </v>
   <v>       0.11276864       0.87996939       0.64076667 </v>
   <v>       0.12895793       0.11342841       0.38518976 </v>
   <v>       0.86640068       0.88361052       0.38393715 </v>
   <v>       0.87358968       0.12007714       0.62839572 </v>
   <v>       0.86617670       0.62975150       0.08779142 </v>
   <v>       0.89732933       0.36012152       0.87112636 </v>
   <v>       0.13767787       0.60617175       0.87132787 </v>
   <v>       0.12023351       0.39164257       0.13820430 </v>
   <v>       0.62020093       0.11000228       0.85952409 </v>
   <v>       0.63762951       0.89554629       0.12650491 </v>
   <v>       0.39724764       0.14160072       0.12654574 </v>
   <v>       0.36614033       0.87195504       0.90996829 </v>
   <v>       0.61267143       0.62187388       0.35700519 </v>
   <v>       0.62901314       0.38815418       0.61231820 </v>
   <v>       0.36641885       0.61792155       0.61386352 </v>
   <v>       0.37355044       0.38164316       0.36919341 </v>
   <v>       0.74219694       0.74395147       0.74644791 </v>
   <v>       0.75931851       0.26456815       0.25358759 </v>
   <v>       0.24220398       0.75776651       0.25133265 </v>
   <v>       0.25935965       0.23719169       0.74402214 </v>
   <v>       0.99444227       0.01627925       0.02799674 </v>
   <v>       0.98072151       0.51957571       0.49693983 </v>
   <v>       0.48061673       0.98211176       0.50087188 </v>
   <v>       0.49452435       0.48536661       0.96963381 </v>
  </varray>
 </structure>
 <calculation>
  <scstep>
   <time name="dav">    2.44    2.68</time>
   <time name="total">    2.93    3.19</time>
   <energy>
    <i name="alphaZ">    301.69328848 </i>
    <i name="ewald">  -8836.08404316 </i>
    <i name="hartreedc">  -2097.71148556 </i>
    <i name="XCdc">    534.32204022 </i>
    <i name="pawpsdc">   8141.38806575 </i>
    <i name="pawaedc">  -8271.61346273 </i>
    <i name="eentropy">     -0.00727058 </i>
    <i name="bandstr">   -887.20947544 </i>
    <i name="atom">  12703.13999606 </i>
    <i name="e_fr_energy">   1587.91765305 </i>
    <i name="e_wo_entrp">   1587.92492362 </i>
    <i name="e_0_energy">   1587.92128833 </i>
   </energy>
  </scstep>
  <scstep>
   <time name="dav">    2.61    2.63</time>
   <time name="total">    2.61    2.63</time>
   <energy>
    <i name="e_fr_energy">    -55.61359365 </i>
    <i name="e_wo_entrp">    -55.61359365 </i>
    <i name="e_0_energy">    -55.61359365 </i>
   </energy>
  </scstep>
  <scstep>
   <time name="dav">    2.56    2.58</time>
   <time name="total">    2.56    2.58</time>
   <energy>
    <i name="e_fr_energy">   -228.12973741 </i>
    <i name="e_wo_entrp">   -228.12973741 </i>
    <i name="e_0_energy">   -228.12973741 </i>
   </energy>
  </scstep>
  <scstep>
   <time name="dav">    3.13    3.20</time>
   <time name="total">    3.13    3.20</time>
   <energy>
    <i name="e_fr_energy">   -241.70767667 </i>
    <i name="e_wo_entrp">   -241.70767667 </i>
    <i name="e_0_energy">   -241.70767667 </i>
   </energy>
  </scstep>
  <scstep>
   <time name="dav">    2.93    2.95</time>
   <time name="total">    2.93    2.95</time>
   <energy>
    <i name="e_fr_energy">   -241.92584216 </i>
    <i name="e_wo_entrp">   -241.92584216 </i>
    <i name="e_0_energy">   -241.92584216 </i>
   </energy>
  </scstep>
  <scstep>
   <time name="dav">    3.02    3.05</time>
   <time name="total">    3.02    3.05</time>
   <energy>
    <i name="e_fr_energy">   -241.93782715 </i>
    <i name="e_wo_entrp">   -241.93782715 </i>
    <i name="e_0_energy">   -241.93782715 </i>
   </energy>
  </scstep>
  <scstep>
   <time name="dav">    3.00    3.03</time>
   <time name="total">    3.00    3.03</time>
   <energy>
    <i name="e_fr_energy">   -241.93820853 </i>
    <i name="e_wo_entrp">   -241.93820853 </i>
    <i name="e_0_energy">   -241.93820853 </i>
   </energy>
  </scstep>
  <scstep>
   <time name="dav">    2.98    3.01</time>
   <time name="total">    2.98    3.01</time>
   <energy>
    <i name="e_fr_energy">   -241.93823061 </i>
    <i name="e_wo_entrp">   -241.93823061 </i>
    <i name="e_0_energy">   -241.93823061 </i>
   </energy>
  </scstep>
  <scstep>
   <time name="dav">    2.91    2.94</time>
   <time name="total">    2.91    2.94</time>
   <energy>
    <i name="e_fr_energy">   -241.93823202 </i>
    <i name="e_wo_entrp">   -241.93823202 </i>
    <i name="e_0_energy">   -241.93823202 </i>
   </energy>
  </scstep>
  <scstep>
   <time name="dav">    1.95    1.96</time>
   <time name="total">    2.02    2.04</time>
   <energy>
    <i name="e_fr_energy">   -241.93823208 </i>
    <i name="e_wo_entrp">   -241.93823208 </i>
    <i name="e_0_energy">   -241.93823208 </i>
   </energy>
  </scstep>
  <scstep>
   <time name="diag">    0.37    0.37</time>
   <time name="diis">    1.14    1.15</time>
   <time name="orth">    0.07    0.07</time>
   <time name="total">    2.09    2.15</time>
   <energy>
    <i name="e_fr_energy">   -236.47189901 </i>
    <i name="e_wo_entrp">   -236.47189901 </i>
    <i name="e_0_energy">   -236.47189901 </i>
   </energy>
  </scstep>
  <scstep>
   <time name="diag">    0.36    0.36</time>
   <time name="diis">    1.20    1.21</time>
   <time name="orth">    0.07    0.07</time>
   <time name="total">    2.15    2.16</time>
   <energy>
    <i name="e_fr_energy">   -256.06339793 </i>
    <i name="e_wo_entrp">   -256.06339793 </i>
    <i name="e_0_energy">   -256.06339793 </i>
   </energy>
  </scstep>
  <scstep>
   <time name="diag">    0.36    0.36</time>
   <time name="diis">    1.18    1.19</time>
   <time name="orth">    0.07    0.07</time>
   <time name="total">    2.12    2.14</time>
   <energy>
    <i name="e_fr_energy">   -258.54088852 </i>
    <i name="e_wo_entrp">   -258.54088852 </i>
    <i name="e_0_energy">   -258.54088852 </i>
   </energy>
  </scstep>
  <scstep>
   <time name="diag">    0.35    0.36</time>
   <time name="diis">    1.52    1.53</time>
   <time name="orth">    0.07    0.07</time>
   <time name="total">    2.46    2.48</time>
   <energy>
    <i name="e_fr_energy">   -258.73103354 </i>
    <i name="e_wo_entrp">   -258.73103354 </i>
    <i name="e_0_energy">   -258.73103354 </i>
   </energy>
  </scstep>
  <scstep>
   <time name="diag">    0.35    0.36</time>
   <time name="diis">    1.26    1.27</time>
   <time name="orth">    0.07    0.07</time>
   <time name="total">    2.20    2.21</time>
   <energy>
    <i name="e_fr_energy">   -258.70829479 </i>
    <i name="e_wo_entrp">   -258.70829479 </i>
    <i name="e_0_energy">   -258.70829479 </i>
   </energy>
  </scstep>
  <scstep>
   <time name="diag">    0.36    0.36</time>
   <time name="diis">    1.26    1.27</time>
   <time name="orth">    0.07    0.07</time>
   <time name="total">    2.21    2.22</time>
   <energy>
    <i name="e_fr_energy">   -258.72834717 </i>
    <i name="e_wo_entrp">   -258.72834717 </i>
    <i name="e_0_energy">   -258.72834717 </i>
   </energy>
  </scstep>
  <scstep>
   <time name="diag">    0.35    0.36</time>
   <time name="diis">    1.42    1.43</time>
   <time name="orth">    0.07    0.07</time>
   <time name="total">    2.36    2.37</time>
   <energy>
    <i name="e_fr_energy">   -258.73419532 </i>
    <i name="e_wo_entrp">   -258.73419532 </i>
    <i name="e_0_energy">   -258.73419532 </i>
   </energy>
  </scstep>
  <scstep>
   <time name="diag">    0.36    0.36</time>
   <time name="diis">    1.36    1.38</time>
   <time name="orth">    0.07    0.07</time>
   <time name="total">    2.31    2.32</time>
   <energy>
    <i name="e_fr_energy">   -258.73547326 </i>
    <i name="e_wo_entrp">   -258.73547326 </i>
    <i name="e_0_energy">   -258.73547326 </i>
   </energy>
  </scstep>
  <scstep>
   <time name="diag">    0.35    0.36</time>
   <time name="diis">    1.61    1.62</time>
   <time name="orth">    0.07    0.07</time>
   <time name="total">    2.55    2.57</time>
   <energy>
    <i name="e_fr_energy">   -258.73593022 </i>
    <i name="e_wo_entrp">   -258.73593022 </i>
    <i name="e_0_energy">   -258.73593022 </i>
   </energy>
  </scstep>
  <scstep>
   <time name="diag">    0.36    0.36</time>
   <time name="diis">    1.56    1.57</time>
   <time name="orth">    0.07    0.07</time>
   <time name="total">    2.50    2.52</time>
   <energy>
    <i name="e_fr_energy">   -258.73601831 </i>
    <i name="e_wo_entrp">   -258.73601831 </i>
    <i name="e_0_energy">   -258.73601831 </i>
   </energy>
  </scstep>
  <scstep>
   <time name="diag">    0.36    0.36</time>
   <time name="diis">    1.36    1.37</time>
   <time name="orth">    0.07    0.07</time>
   <time name="total">    2.30    2.32</time>
   <energy>
    <i name="e_fr_energy">   -258.73603473 </i>
    <i name="e_wo_entrp">   -258.73603473 </i>
    <i name="e_0_energy">   -258.73603473 </i>
   </energy>
  </scstep>
  <scstep>
   <time name="diag">    0.35    0.36</time>
   <time name="diis">    1.55    1.57</time>
   <time name="orth">    0.07    0.07</time>
   <time name="total">    2.50    2.51</time>
   <energy>
    <i name="e_fr_energy">   -258.73604117 </i>
    <i name="e_wo_entrp">   -258.73604117 </i>
    <i name="e_0_energy">   -258.73604117 </i>
   </energy>
  </scstep>
  <scstep>
   <time name="diag">    0.35    0.36</time>
   <time name="diis">    1.25    1.26</time>
   <time name="orth">    0.07    0.07</time>
   <time name="total">    2.19    2.20</time>
   <energy>
    <i name="e_fr_energy">   -258.73604097 </i>
    <i name="e_wo_entrp">   -258.73604097 </i>
    <i name="e_0_energy">   -258.73604097 </i>
   </energy>
  </scstep>
  <scstep>
   <time name="diag">    0.36    0.36</time>
   <time name="diis">    0.97    0.98</time>
   <time name="orth">    0.07    0.07</time>
   <time name="total">    1.85    1.86</time>
   <energy>
    <i name="alphaZ">    301.69328848 </i>
    <i name="ewald">  -8836.08404316 </i>
    <i name="hartreedc">  -2195.51112516 </i>
    <i name="XCdc">    537.90527924 </i>
    <i name="pawpsdc">   9818.50591301 </i>
    <i name="pawaedc">  -9962.51140135 </i>
    <i name="eentropy">     -0.00000000 </i>
    <i name="bandstr">  -2625.87394730 </i>
    <i name="atom">  12703.13999606 </i>
    <i name="e_fr_energy">   -258.73604019 </i>
    <i name="e_wo_entrp">   -258.73604019 </i>
    <i name="e_0_energy">   -258.73604019 </i>
   </energy>
  </scstep>
  <structure>
   <crystal>
    <varray name="basis" >
     <v>       9.65410610       0.00000000       0.00000000 </v>
     <v>       0.00000000       9.65410610       0.00000000 </v>
     <v>       0.00000000       0.00000000       9.65410610 </v>
    </varray>
    <i name="volume">    899.77972346 </i>
    <varray name="rec_basis" >
     <v>       0.10358287       0.00000000       0.00000000 </v>
     <v>       0.00000000       0.10358287       0.00000000 </v>
     <v>       0.00000000       0.00000000       0.10358287 </v>
    </varray>
   </crystal>
   <varray name="positions" >
    <v>       0.98323244       0.19680630       0.21108638 </v>
    <v>       0.97391585       0.69067529       0.70994688 </v>
    <v>       0.04351868       0.15022728       0.81230779 </v>
    <v>       0.01025524       0.79446685       0.20333099 </v>
    <v>       0.28597159       0.31002064       0.97371922 </v>
    <v>       0.31589411       0.65710719       0.04532469 </v>
    <v>       0.78592496       0.19183170       0.02386868 </v>
    <v>       0.81579391       0.84461215       0.95248801 </v>
    <v>       0.21229722       0.98433728       0.16987206 </v>
    <v>       0.31559182       0.00797070       0.71820707 </v>
    <v>       0.67924025       0.96144159       0.66200181 </v>
    <v>       0.67598461       0.05200431       0.32598973 </v>
    <v>       0.28058256       0.81069571       0.48027743 </v>
    <v>       0.32962941       0.19154072       0.51338627 </v>
    <v>       0.78059518       0.69078897       0.51757720 </v>
    <v>       0.82982048       0.31017679       0.48416794 </v>
    <v>       0.17580753       0.44972030       0.67177125 </v>
    <v>       0.17915984       0.54026853       0.33570974 </v>
    <v>       0.81528019       0.49383353       0.27944352 </v>
    <v>       0.71232917       0.51724938       0.82747440 </v>
    <v>       0.48328670       0.30490637       0.78650055 </v>
    <v>       0.47384720       0.81131272       0.28801450 </v>
    <v>       0.54340435       0.35138245       0.18528450 </v>
    <v>       0.51025164       0.70721356       0.79446100 </v>
    <v>       0.49737160       0.50297406       0.49145073 </v>
    <v>       0.50393196       0.00522014       0.00357312 </v>
    <v>       0.00394400       0.49645963       0.99422448 </v>
    <v>       0.99741944       0.99863734       0.50619770 </v>
    <v>       0.11276864       0.87996939       0.64076667 </v>
    <v>       0.12895793       0.11342841       0.38518976 </v>
    <v>       0.86640068       0.88361052       0.38393715 </v>
    <v>       0.87358968       0.12007714       0.62839572 </v>
    <v>       0.86617670       0.62975150       0.08779142 </v>
    <v>       0.89732933       0.36012152       0.87112636 </v>
    <v>       0.13767787       0.60617175       0.87132787 </v>
    <v>       0.12023351       0.39164257       0.13820430 </v>
    <v>       0.62020093       0.11000228       0.85952409 </v>
    <v>       0.63762951       0.89554629       0.12650491 </v>
    <v>       0.39724764       0.14160072       0.12654574 </v>
    <v>       0.36614033       0.87195504       0.90996829 </v>
    <v>       0.61267143       0.62187388       0.35700519 </v>
    <v>       0.62901314       0.38815418       0.61231820 </v>
    <v>       0.36641885       0.61792155       0.61386352 </v>
    <v>       0.37355044       0.38164316       0.36919341 </v>
    <v>       0.74219694       0.74395147       0.74644791 </v>
    <v>       0.75931851       0.26456815       0.25358759 </v>
    <v>       0.24220398       0.75776651       0.25133265 </v>
    <v>       0.25935965       0.23719169       0.74402214 </v>
    <v>       0.99444227       0.01627925       0.02799674 </v>
    <v>       0.98072151       0.51957571       0.49693983 </v>
    <v>       0.48061673       0.98211176       0.50087188 </v>
    <v>       0.49452435       0.48536661       0.96963381 </v>
   </varray>
  </structure>
  <varray name="forces" >
   <v>       0.00009205      -0.00003752      -0.00007441 </v>
   <v>      -0.00011389      -0.00040135      -0.00044560 </v>
   <v>       0.00014484      -0.00086877      -0.00021070 </v>
   <v>      -0.00009027       0.00136901      -0.00195569 </v>
   <v>      -0.00019065      -0.00032495       0.00027856 </v>
   <v>      -0.00062643      -0.00001451       0.00027624 </v>
   <v>      -0.00020077       0.00005976      -0.00008587 </v>
   <v>      -0.00035325      -0.00000325      -0.00055134 </v>
   <v>       0.00035967       0.00081338       0.00143886 </v>
   <v>       0.00061439      -0.00011167      -0.00014696 </v>
   <v>      -0.00066482      -0.00035604      -0.00014128 </v>
   <v>       0.00010300      -0.00001171      -0.00024212 </v>
   <v>       0.00003602      -0.00012056       0.00020335 </v>
   <v>       0.00019705       0.00013966       0.00016035 </v>
   <v>      -0.00027899       0.00037172      -0.00061090 </v>
   <v>       0.00008075      -0.00041184       0.00000338 </v>
   <v>       0.00024020       0.00005190       0.00016492 </v>
   <v>      -0.00050980       0.00049745       0.00019342 </v>
   <v>       0.00109025       0.00009733       0.00048501 </v>
   <v>       0.00024916      -0.00056639      -0.00082046 </v>
   <v>       0.00001299       0.00012084       0.00031670 </v>
   <v>      -0.00000448      -0.00016010       0.00004554 </v>
   <v>       0.00043226       0.00133305       0.00042405 </v>
   <v>      -0.00014270      -0.00094197       0.00138605 </v>
   <v>       0.00070510       0.00112929       0.00002887 </v>
   <v>      -0.00006050      -0.00109741      -0.00101287 </v>
   <v>       0.00173559       0.00103286      -0.00011407 </v>
   <v>      -0.00080211       0.00237051      -0.00239864 </v>
   <v>       0.00121340      -0.00149638       0.00218735 </v>
   <v>      -0.00063656       0.00022586       0.00135147 </v>
   <v>       0.00016968      -0.00018265      -0.00055545 </v>
   <v>      -0.00051092      -0.00062467       0.00034674 </v>
   <v>      -0.00112796       0.00047566      -0.00011347 </v>
   <v>      -0.00030469      -0.00148067      -0.00107764 </v>
   <v>      -0.00048925      -0.00004147       0.00005469 </v>
   <v>       0.00012173       0.00019461       0.00058601 </v>
   <v>       0.00030544       0.00006120      -0.00066917 </v>
   <v>       0.00041589      -0.00050735       0.00028546 </v>
   <v>       0.00008867       0.00139299       0.00127993 </v>
   <v>      -0.00032486      -0.00000193       0.00052293 </v>
   <v>      -0.00016243      -0.00064870      -0.00055277 </v>
   <v>       0.00011320      -0.00100454      -0.00011444 </v>
   <v>      -0.00004148       0.00022834       0.00054205 </v>
   <v>      -0.00125255      -0.00041445      -0.00068505 </v>
   <v>      -0.00036744      -0.00034028      -0.00033193 </v>
   <v>      -0.00014994       0.00025680      -0.00002818 </v>
   <v>      -0.00047503       0.00030457       0.00020533 </v>
   <v>      -0.00020202      -0.00027153       0.00014893 </v>
   <v>       0.00059313      -0.00114003      -0.00035900 </v>
   <v>       0.00027447      -0.00051831       0.00045282 </v>
   <v>       0.00034365       0.00034117      -0.00059864 </v>
   <v>       0.00035118       0.00123307       0.00052766 </v>
  </varray>
  <varray name="stress" >
   <v>      -0.53643438       0.01085265      -0.02110104 </v>
   <v>       0.01085259       0.37992162      -3.53982914 </v>
   <v>      -0.02110121      -3.53982829       0.19117716 </v>
  </varray>
  <energy>
   <i name="e_fr_energy">   -272.33449083 </i>
   <i name="e_wo_entrp">   -272.33449083 </i>
   <i name="e_0_energy">   -272.33449083 </i>
  </energy>
  <time name="totalsc">   62.94   63.79</time>
 </calculation>
 <calculation>
  <scstep>
   <time name="dav">    2.25    2.27</time>
   <time name="total">    2.78    2.80</time>
   <energy>
    <i name="alphaZ">    301.69328848 </i>
    <i name="ewald">  -8836.10385231 </i>
    <i name="hartreedc">  -2195.49892768 </i>
    <i name="XCdc">    537.90490946 </i>
    <i name="pawpsdc">   9818.49489741 </i>
    <i name="pawaedc">  -9962.50036845 </i>
    <i name="eentropy">     -0.00000000 </i>
    <i name="bandstr">  -2625.86598394 </i>
    <i name="atom">  12703.13999606 </i>
    <i name="e_fr_energy">   -258.73604097 </i>
    <i name="e_wo_entrp">   -258.73604097 </i>
    <i name="e_0_energy">   -258.73604097 </i>
   </energy>
  </scstep>
  <scstep>
   <time name="diag">    0.36    0.37</time>
   <time name="diis">    0.86    0.87</time>
   <time name="orth">    0.07    0.07</time>
   <time name="total">    1.75    1.77</time>
   <energy>
    <i name="alphaZ">    301.69328848 </i>
    <i name="ewald">  -8836.10385231 </i>
    <i name="hartreedc">  -2195.50022317 </i>
    <i name="XCdc">    537.90474832 </i>
    <i name="pawpsdc">   9818.46204479 </i>
    <i name="pawaedc">  -9962.46713982 </i>
    <i name="eentropy">     -0.00000000 </i>
    <i name="bandstr">  -2625.86490355 </i>
    <i name="atom">  12703.13999606 </i>
    <i name="e_fr_energy">   -258.73604120 </i>
    <i name="e_wo_entrp">   -258.73604120 </i>
    <i name="e_0_energy">   -258.73604120 </i>
   </energy>
  </scstep>
  <structure>
   <crystal>
    <varray name="basis" >
     <v>       9.65410610       0.00000000       0.00000000 </v>
     <v>       0.00000000       9.65410610       0.00000000 </v>
     <v>       0.00000000       0.00000000       9.65410610 </v>
    </varray>
    <i name="volume">    899.77972346 </i>
    <varray name="rec_basis" >
     <v>       0.10358287       0.00000000       0.00000000 </v>
     <v>       0.00000000       0.10358287       0.00000000 </v>
     <v>       0.00000000       0.00000000       0.10358287 </v>
    </varray>
   </crystal>
   <varray name="positions" >
    <v>       0.98323263       0.19680623       0.21108623 </v>
    <v>       0.97391562       0.69067449       0.70994599 </v>
    <v>       0.04351897       0.15022554       0.81230737 </v>
    <v>       0.01025506       0.79446958       0.20332708 </v>
    <v>       0.28597121       0.31001999       0.97371978 </v>
    <v>       0.31589286       0.65710716       0.04532524 </v>
    <v>       0.78592456       0.19183182       0.02386851 </v>
    <v>       0.81579320       0.84461214       0.95248690 </v>
    <v>       0.21229794       0.98433890       0.16987494 </v>
    <v>       0.31559305       0.00797048       0.71820678 </v>
    <v>       0.67923892       0.96144088       0.66200153 </v>
    <v>       0.67598481       0.05200429       0.32598925 </v>
    <v>       0.28058263       0.81069547       0.48027784 </v>
    <v>       0.32962981       0.19154099       0.51338659 </v>
    <v>       0.78059462       0.69078971       0.51757598 </v>
    <v>       0.82982064       0.31017596       0.48416795 </v>
    <v>       0.17580801       0.44972040       0.67177158 </v>
    <v>       0.17915883       0.54026953       0.33571012 </v>
    <v>       0.81528237       0.49383372       0.27944449 </v>
    <v>       0.71232967       0.51724825       0.82747276 </v>
    <v>       0.48328673       0.30490661       0.78650118 </v>
    <v>       0.47384719       0.81131240       0.28801459 </v>
    <v>       0.54340521       0.35138511       0.18528535 </v>
    <v>       0.51025135       0.70721167       0.79446378 </v>
    <v>       0.49737301       0.50297632       0.49145079 </v>
    <v>       0.50393184       0.00521795       0.00357109 </v>
    <v>       0.00394747       0.49646170       0.99422425 </v>
    <v>       0.99741784       0.99864208       0.50619290 </v>
    <v>       0.11277106       0.87996639       0.64077104 </v>
    <v>       0.12895666       0.11342886       0.38519246 </v>
    <v>       0.86640102       0.88361016       0.38393604 </v>
    <v>       0.87358866       0.12007590       0.62839641 </v>
    <v>       0.86617445       0.62975245       0.08779120 </v>
    <v>       0.89732872       0.36011856       0.87112421 </v>
    <v>       0.13767689       0.60617167       0.87132798 </v>
    <v>       0.12023375       0.39164295       0.13820547 </v>
    <v>       0.62020154       0.11000240       0.85952275 </v>
    <v>       0.63763034       0.89554528       0.12650548 </v>
    <v>       0.39724782       0.14160351       0.12654830 </v>
    <v>       0.36613968       0.87195503       0.90996934 </v>
    <v>       0.61267110       0.62187258       0.35700409 </v>
    <v>       0.62901336       0.38815217       0.61231797 </v>
    <v>       0.36641877       0.61792200       0.61386460 </v>
    <v>       0.37354794       0.38164234       0.36919204 </v>
    <v>       0.74219621       0.74395079       0.74644725 </v>
    <v>       0.75931821       0.26456866       0.25358753 </v>
    <v>       0.24220303       0.75776712       0.25133306 </v>
    <v>       0.25935924       0.23719115       0.74402244 </v>
    <v>       0.99444345       0.01627697       0.02799602 </v>
    <v>       0.98072206       0.51957467       0.49694073 </v>
    <v>       0.48061741       0.98211244       0.50087068 </v>
    <v>       0.49452505       0.48536907       0.96963487 </v>
   </varray>
  </structure>
  <varray name="forces" >
   <v>       0.00001437      -0.00001722      -0.00008430 </v>
   <v>      -0.00008100      -0.00019787      -0.00030425 </v>
   <v>       0.00011999      -0.00056542      -0.00010136 </v>
   <v>      -0.00006033       0.00077808      -0.00121551 </v>
   <v>      -0.00004809      -0.00021701       0.00020016 </v>
   <v>      -0.00031643      -0.00005421       0.00025402 </v>
   <v>      -0.00007008       0.00004064      -0.00004957 </v>
   <v>      -0.00016144      -0.00001403      -0.00033053 </v>
   <v>       0.00026924       0.00047969       0.00083664 </v>
   <v>       0.00035312      -0.00011408      -0.00011847 </v>
   <v>      -0.00039673      -0.00026875      -0.00008918 </v>
   <v>       0.00005364       0.00001648      -0.00016105 </v>
   <v>      -0.00003843      -0.00003851       0.00024754 </v>
   <v>       0.00023692       0.00010572       0.00017071 </v>
   <v>      -0.00011596       0.00018565      -0.00029303 </v>
   <v>       0.00008054      -0.00025134       0.00002253 </v>
   <v>       0.00016542      -0.00005446       0.00007338 </v>
   <v>      -0.00027871       0.00029853       0.00016321 </v>
   <v>       0.00076704       0.00000122       0.00027794 </v>
   <v>       0.00019322      -0.00039467      -0.00047664 </v>
   <v>      -0.00000202       0.00010135       0.00023008 </v>
   <v>      -0.00004471      -0.00008213       0.00004763 </v>
   <v>       0.00023684       0.00077786       0.00025716 </v>
   <v>      -0.00003051      -0.00058783       0.00085754 </v>
   <v>       0.00011129       0.00026655       0.00004197 </v>
   <v>      -0.00005741      -0.00025447      -0.00020369 </v>
   <v>       0.00034203       0.00015312      -0.00006707 </v>
   <v>      -0.00021897       0.00043003      -0.00042152 </v>
   <v>       0.00008497      -0.00007919       0.00025716 </v>
   <v>       0.00012897       0.00049233       0.00018794 </v>
   <v>       0.00011919      -0.00021077      -0.00043408 </v>
   <v>      -0.00033894      -0.00029528       0.00020246 </v>
   <v>      -0.00036567      -0.00000413      -0.00009149 </v>
   <v>       0.00014862      -0.00035630      -0.00009643 </v>
   <v>       0.00010556       0.00020917      -0.00027351 </v>
   <v>       0.00007107      -0.00000244       0.00028523 </v>
   <v>       0.00007617       0.00007002      -0.00022826 </v>
   <v>       0.00017332      -0.00014349       0.00009100 </v>
   <v>       0.00036080       0.00033416       0.00027513 </v>
   <v>      -0.00034340      -0.00010665       0.00003181 </v>
   <v>       0.00018444      -0.00014804      -0.00039753 </v>
   <v>      -0.00002934      -0.00044824      -0.00001601 </v>
   <v>       0.00007760       0.00017820       0.00030946 </v>
   <v>      -0.00037152       0.00011275       0.00000080 </v>
   <v>      -0.00018334      -0.00034094      -0.00032543 </v>
   <v>       0.00019704       0.00006865      -0.00009772 </v>
   <v>      -0.00023183       0.00030963       0.00027637 </v>
   <v>       0.00014856      -0.00012487       0.00020526 </v>
   <v>      -0.00007111       0.00025348       0.00068561 </v>
   <v>      -0.00043077       0.00018881      -0.00003091 </v>
   <v>      -0.00040434      -0.00024535       0.00000998 </v>
   <v>      -0.00012885      -0.00023445      -0.00059121 </v>
  </varray>
  <varray name="stress" >
   <v>      -0.54913413       0.01469413      -0.02522465 </v>
   <v>       0.01469415       0.36575556      -3.54188349 </v>
   <v>      -0.02522456      -3.54188253       0.17749193 </v>
  </varray>
  <energy>
   <i name="e_fr_energy">   -272.33449234 </i>
   <i name="e_wo_entrp">   -272.33449234 </i>
   <i name="e_0_energy">   -272.33449234 </i>
  </energy>
  <time name="totalsc">    7.58    7.65</time>
 </calculation>
 <calculation>
  <scstep>
   <time name="dav">    2.18    2.20</time>
   <time name="total">    2.70    2.72</time>
   <energy>
    <i name="alphaZ">    301.69328848 </i>
    <i name="ewald">  -8836.11180313 </i>
    <i name="hartreedc">  -2195.49453082 </i>
    <i name="XCdc">    537.90444979 </i>
    <i name="pawpsdc">   9818.43965120 </i>
    <i name="pawaedc">  -9962.44433834 </i>
    <i name="eentropy">     -0.00000000 </i>
    <i name="bandstr">  -2625.86275458 </i>
    <i name="atom">  12703.13999606 </i>
    <i name="e_fr_energy">   -258.73604134 </i>
    <i name="e_wo_entrp">   -258.73604134 </i>
    <i name="e_0_energy">   -258.73604134 </i>
   </energy>
  </scstep>
  <scstep>
   <time name="diag">    0.36    0.37</time>
   <time name="diis">    0.79    0.80</time>
   <time name="orth">    0.07    0.07</time>
   <time name="total">    1.68    1.69</time>
   <energy>
    <i name="alphaZ">    301.69328848 </i>
    <i name="ewald">  -8836.11180313 </i>
    <i name="hartreedc">  -2195.49379782 </i>
    <i name="XCdc">    537.90431783 </i>
    <i name="pawpsdc">   9818.41846349 </i>
    <i name="pawaedc">  -9962.42294700 </i>
    <i name="eentropy">     -0.00000000 </i>
    <i name="bandstr">  -2625.86355924 </i>
    <i name="atom">  12703.13999606 </i>
    <i name="e_fr_energy">   -258.73604134 </i>
    <i name="e_wo_entrp">   -258.73604134 </i>
    <i name="e_0_energy">   -258.73604134 </i>
   </energy>
  </scstep>
  <structure>
   <crystal>
    <varray name="basis" >
     <v>       9.65410610       0.00000000       0.00000000 </v>
     <v>       0.00000000       9.65410610       0.00000000 </v>
     <v>       0.00000000       0.00000000       9.65410610 </v>
    </varray>
    <i name="volume">    899.77972346 </i>
    <varray name="rec_basis" >
     <v>       0.10358287       0.00000000       0.00000000 </v>
     <v>       0.00000000       0.10358287       0.00000000 </v>
     <v>       0.00000000       0.00000000       0.10358287 </v>
    </varray>
   </crystal>
   <varray name="positions" >
    <v>       0.98323270       0.19680620       0.21108617 </v>
    <v>       0.97391553       0.69067417       0.70994563 </v>
    <v>       0.04351909       0.15022484       0.81230720 </v>
    <v>       0.01025499       0.79447068       0.20332551 </v>
    <v>       0.28597106       0.31001973       0.97372001 </v>
    <v>       0.31589236       0.65710715       0.04532547 </v>
    <v>       0.78592440       0.19183187       0.02386844 </v>
    <v>       0.81579292       0.84461214       0.95248646 </v>
    <v>       0.21229822       0.98433956       0.16987609 </v>
    <v>       0.31559354       0.00797039       0.71820666 </v>
    <v>       0.67923839       0.96144059       0.66200141 </v>
    <v>       0.67598489       0.05200428       0.32598905 </v>
    <v>       0.28058266       0.81069537       0.48027800 </v>
    <v>       0.32962997       0.19154111       0.51338672 </v>
    <v>       0.78059440       0.69079001       0.51757549 </v>
    <v>       0.82982070       0.31017563       0.48416795 </v>
    <v>       0.17580820       0.44972044       0.67177171 </v>
    <v>       0.17915842       0.54026992       0.33571028 </v>
    <v>       0.81528324       0.49383380       0.27944488 </v>
    <v>       0.71232987       0.51724779       0.82747210 </v>
    <v>       0.48328674       0.30490671       0.78650144 </v>
    <v>       0.47384718       0.81131227       0.28801463 </v>
    <v>       0.54340556       0.35138618       0.18528569 </v>
    <v>       0.51025124       0.70721092       0.79446489 </v>
    <v>       0.49737357       0.50297723       0.49145081 </v>
    <v>       0.50393180       0.00521707       0.00357028 </v>
    <v>       0.00394886       0.49646252       0.99422416 </v>
    <v>       0.99741719       0.99864398       0.50619098 </v>
    <v>       0.11277203       0.87996519       0.64077279 </v>
    <v>       0.12895614       0.11342904       0.38519355 </v>
    <v>       0.86640115       0.88361001       0.38393560 </v>
    <v>       0.87358825       0.12007539       0.62839669 </v>
    <v>       0.86617354       0.62975284       0.08779111 </v>
    <v>       0.89732847       0.36011737       0.87112334 </v>
    <v>       0.13767650       0.60617164       0.87132802 </v>
    <v>       0.12023385       0.39164311       0.13820594 </v>
    <v>       0.62020179       0.11000245       0.85952221 </v>
    <v>       0.63763068       0.89554487       0.12650571 </v>
    <v>       0.39724789       0.14160462       0.12654932 </v>
    <v>       0.36613942       0.87195503       0.90996976 </v>
    <v>       0.61267097       0.62187206       0.35700364 </v>
    <v>       0.62901345       0.38815136       0.61231788 </v>
    <v>       0.36641873       0.61792219       0.61386504 </v>
    <v>       0.37354693       0.38164200       0.36919149 </v>
    <v>       0.74219591       0.74395052       0.74644698 </v>
    <v>       0.75931809       0.26456887       0.25358751 </v>
    <v>       0.24220265       0.75776736       0.25133323 </v>
    <v>       0.25935908       0.23719093       0.74402256 </v>
    <v>       0.99444393       0.01627606       0.02799573 </v>
    <v>       0.98072228       0.51957425       0.49694109 </v>
    <v>       0.48061769       0.98211272       0.50087020 </v>
    <v>       0.49452533       0.48537006       0.96963529 </v>
   </varray>
  </structure>
  <varray name="forces" >
   <v>       0.00006451      -0.00001659      -0.00013035 </v>
   <v>      -0.00010604      -0.00026705      -0.00041348 </v>
   <v>       0.00016229      -0.00079504      -0.00017261 </v>
   <v>      -0.00009076       0.00122755      -0.00185326 </v>
   <v>      -0.00011096      -0.00029857       0.00027414 </v>
   <v>      -0.00041326      -0.00005271       0.00030416 </v>
   <v>      -0.00013865       0.00006916      -0.00009563 </v>
   <v>      -0.00021063      -0.00000553      -0.00045110 </v>
   <v>       0.00038055       0.00072281       0.00121091 </v>
   <v>       0.00044462      -0.00013608      -0.00015846 </v>
   <v>      -0.00052595      -0.00032244      -0.00014021 </v>
   <v>       0.00004536       0.00003304      -0.00020444 </v>
   <v>      -0.00003817      -0.00005443       0.00029274 </v>
   <v>       0.00029188       0.00015071       0.00019285 </v>
   <v>      -0.00016244       0.00026539      -0.00040524 </v>
   <v>       0.00009521      -0.00031129       0.00002579 </v>
   <v>       0.00019394      -0.00005357       0.00006776 </v>
   <v>      -0.00037725       0.00038945       0.00019827 </v>
   <v>       0.00107328       0.00003645       0.00039549 </v>
   <v>       0.00027499      -0.00054193      -0.00070615 </v>
   <v>       0.00000037       0.00013027       0.00026139 </v>
   <v>      -0.00003785      -0.00008554       0.00002969 </v>
   <v>       0.00035550       0.00117979       0.00036602 </v>
   <v>      -0.00006234      -0.00086779       0.00126214 </v>
   <v>      -0.00008255      -0.00001380       0.00002877 </v>
   <v>      -0.00004353      -0.00001416       0.00003227 </v>
   <v>      -0.00007152      -0.00007105      -0.00008828 </v>
   <v>      -0.00008450      -0.00004856       0.00013744 </v>
   <v>       0.00004264      -0.00003395       0.00038408 </v>
   <v>       0.00004958       0.00073372       0.00035231 </v>
   <v>       0.00018194      -0.00014051      -0.00061804 </v>
   <v>      -0.00045397      -0.00037647       0.00018397 </v>
   <v>      -0.00048333       0.00004210      -0.00022451 </v>
   <v>       0.00027400      -0.00043213      -0.00019283 </v>
   <v>       0.00008594       0.00030369      -0.00027390 </v>
   <v>       0.00011794       0.00013279       0.00035878 </v>
   <v>       0.00009421      -0.00001545      -0.00034279 </v>
   <v>       0.00018424      -0.00023998       0.00002224 </v>
   <v>       0.00050841       0.00042014       0.00037389 </v>
   <v>      -0.00042171      -0.00012042       0.00013753 </v>
   <v>       0.00013552      -0.00026555      -0.00059589 </v>
   <v>      -0.00005851      -0.00060127      -0.00016001 </v>
   <v>       0.00015208       0.00021130       0.00036732 </v>
   <v>      -0.00049295       0.00019294      -0.00003932 </v>
   <v>      -0.00031610      -0.00040704      -0.00042361 </v>
   <v>       0.00013069       0.00015930      -0.00007980 </v>
   <v>      -0.00036193       0.00040070       0.00026205 </v>
   <v>       0.00003906      -0.00017596       0.00021268 </v>
   <v>       0.00021739      -0.00027157       0.00049735 </v>
   <v>      -0.00027394      -0.00007536       0.00016276 </v>
   <v>      -0.00019979      -0.00005556      -0.00029569 </v>
   <v>       0.00002250       0.00036606      -0.00032920 </v>
  </varray>
  <varray name="stress" >
   <v>      -0.55373889       0.01564761      -0.02613528 </v>
   <v>       0.01564748       0.36081587      -3.54243623 </v>
   <v>      -0.02613541      -3.54243548       0.17281385 </v>
  </varray>
  <energy>
   <i name="e_fr_energy">   -272.33449267 </i>
   <i name="e_wo_entrp">   -272.33449267 </i>
   <i name="e_0_energy">   -272.33449267 </i>
  </energy>
  <time name="totalsc">    7.45    7.52</time>
 </calculation>
 <calculation>
  <scstep>
   <time name="dav">    2.34    2.36</time>
   <time name="total">    2.87    2.90</time>
   <energy>
    <i name="alphaZ">    301.69328848 </i>
    <i name="ewald">  -8836.12770296 </i>
    <i name="hartreedc">  -2195.48087369 </i>
    <i name="XCdc">    537.90393068 </i>
    <i name="pawpsdc">   9818.40710849 </i>
    <i name="pawaedc">  -9962.41148951 </i>
    <i name="eentropy">     -0.00000000 </i>
    <i name="bandstr">  -2625.86029849 </i>
    <i name="atom">  12703.13999606 </i>
    <i name="e_fr_energy">   -258.73604094 </i>
    <i name="e_wo_entrp">   -258.73604094 </i>
    <i name="e_0_energy">   -258.73604094 </i>
   </energy>
  </scstep>
  <scstep>
   <time name="diag">    0.36    0.37</time>
   <time name="diis">    0.78    0.79</time>
   <time name="orth">    0.07    0.07</time>
   <time name="total">    1.67    1.68</time>
   <energy>
    <i name="alphaZ">    301.69328848 </i>
    <i name="ewald">  -8836.12770296 </i>
    <i name="hartreedc">  -2195.47998967 </i>
    <i name="XCdc">    537.90386001 </i>
    <i name="pawpsdc">   9818.38924190 </i>
    <i name="pawaedc">  -9962.39354586 </i>
    <i name="eentropy">     -0.00000000 </i>
    <i name="bandstr">  -2625.86118894 </i>
    <i name="atom">  12703.13999606 </i>
    <i name="e_fr_energy">   -258.73604099 </i>
    <i name="e_wo_entrp">   -258.73604099 </i>
    <i name="e_0_energy">   -258.73604099 </i>
   </energy>
  </scstep>
  <structure>
   <crystal>
    <varray name="basis" >
     <v>       9.65410610       0.00000000       0.00000000 </v>
     <v>       0.00000000       9.65410610       0.00000000 </v>
     <v>       0.00000000       0.00000000       9.65410610 </v>
    </varray>
    <i name="volume">    899.77972346 </i>
    <varray name="rec_basis" >
     <v>       0.10358287       0.00000000       0.00000000 </v>
     <v>       0.00000000       0.10358287       0.00000000 </v>
     <v>       0.00000000       0.00000000       0.10358287 </v>
    </varray>
   </crystal>
   <varray name="positions" >
    <v>       0.98323285       0.19680614       0.21108605 </v>
    <v>       0.97391535       0.69067353       0.70994492 </v>
    <v>       0.04351932       0.15022345       0.81230687 </v>
    <v>       0.01025484       0.79447288       0.20332237 </v>
    <v>       0.28597075       0.31001921       0.97372045 </v>
    <v>       0.31589135       0.65710712       0.04532591 </v>
    <v>       0.78592407       0.19183196       0.02386830 </v>
    <v>       0.81579235       0.84461214       0.95248558 </v>
    <v>       0.21229880       0.98434086       0.16987840 </v>
    <v>       0.31559453       0.00797021       0.71820642 </v>
    <v>       0.67923732       0.96144002       0.66200119 </v>
    <v>       0.67598506       0.05200426       0.32598867 </v>
    <v>       0.28058272       0.81069518       0.48027833 </v>
    <v>       0.32963028       0.19154133       0.51338698 </v>
    <v>       0.78059395       0.69079060       0.51757451 </v>
    <v>       0.82982083       0.31017497       0.48416795 </v>
    <v>       0.17580859       0.44972053       0.67177198 </v>
    <v>       0.17915760       0.54027072       0.33571059 </v>
    <v>       0.81528499       0.49383396       0.27944566 </v>
    <v>       0.71233027       0.51724688       0.82747078 </v>
    <v>       0.48328676       0.30490690       0.78650195 </v>
    <v>       0.47384718       0.81131201       0.28801470 </v>
    <v>       0.54340625       0.35138832       0.18528637 </v>
    <v>       0.51025101       0.70720941       0.79446711 </v>
    <v>       0.49737470       0.50297904       0.49145086 </v>
    <v>       0.50393170       0.00521531       0.00356866 </v>
    <v>       0.00395165       0.49646418       0.99422397 </v>
    <v>       0.99741591       0.99864778       0.50618713 </v>
    <v>       0.11277398       0.87996279       0.64077630 </v>
    <v>       0.12895512       0.11342941       0.38519572 </v>
    <v>       0.86640143       0.88360972       0.38393470 </v>
    <v>       0.87358743       0.12007439       0.62839724 </v>
    <v>       0.86617173       0.62975360       0.08779092 </v>
    <v>       0.89732798       0.36011500       0.87112161 </v>
    <v>       0.13767571       0.60617157       0.87132811 </v>
    <v>       0.12023405       0.39164342       0.13820688 </v>
    <v>       0.62020228       0.11000255       0.85952114 </v>
    <v>       0.63763134       0.89554405       0.12650617 </v>
    <v>       0.39724803       0.14160686       0.12655138 </v>
    <v>       0.36613890       0.87195503       0.90997060 </v>
    <v>       0.61267071       0.62187102       0.35700276 </v>
    <v>       0.62901363       0.38814975       0.61231769 </v>
    <v>       0.36641867       0.61792255       0.61386591 </v>
    <v>       0.37354492       0.38164134       0.36919039 </v>
    <v>       0.74219532       0.74394997       0.74644645 </v>
    <v>       0.75931785       0.26456928       0.25358746 </v>
    <v>       0.24220189       0.75776785       0.25133356 </v>
    <v>       0.25935876       0.23719050       0.74402280 </v>
    <v>       0.99444488       0.01627423       0.02799516 </v>
    <v>       0.98072272       0.51957342       0.49694182 </v>
    <v>       0.48061824       0.98211326       0.50086924 </v>
    <v>       0.49452590       0.48537204       0.96963614 </v>
   </varray>
  </structure>
  <varray name="forces" >
   <v>      -0.00000779      -0.00000001      -0.00014949 </v>
   <v>      -0.00011382      -0.00018671      -0.00038252 </v>
   <v>       0.00013601      -0.00065692      -0.00012299 </v>
   <v>      -0.00009578       0.00090801      -0.00145396 </v>
   <v>      -0.00007033      -0.00029599       0.00027084 </v>
   <v>      -0.00031318      -0.00006916       0.00031748 </v>
   <v>      -0.00009072       0.00006974      -0.00007842 </v>
   <v>      -0.00015921      -0.00002262      -0.00038408 </v>
   <v>       0.00034802       0.00055578       0.00088413 </v>
   <v>       0.00032092      -0.00016115      -0.00014849 </v>
   <v>      -0.00042818      -0.00029807      -0.00011617 </v>
   <v>       0.00000815       0.00004210      -0.00016904 </v>
   <v>      -0.00009465      -0.00003124       0.00034764 </v>
   <v>       0.00031375       0.00014745       0.00020887 </v>
   <v>      -0.00010160       0.00021568      -0.00028126 </v>
   <v>       0.00007504      -0.00025747       0.00005663 </v>
   <v>       0.00015997      -0.00010958       0.00002546 </v>
   <v>      -0.00029197       0.00031124       0.00020021 </v>
   <v>       0.00087169      -0.00000628       0.00027327 </v>
   <v>       0.00025267      -0.00045391      -0.00051205 </v>
   <v>      -0.00001856       0.00011932       0.00023828 </v>
   <v>      -0.00005551      -0.00003542       0.00002068 </v>
   <v>       0.00022403       0.00087640       0.00028632 </v>
   <v>      -0.00001497      -0.00068091       0.00097817 </v>
   <v>      -0.00057188      -0.00070470       0.00002609 </v>
   <v>      -0.00004497       0.00060937       0.00066672 </v>
   <v>      -0.00117425      -0.00072685      -0.00005980 </v>
   <v>       0.00032914      -0.00153706       0.00171630 </v>
   <v>      -0.00088415       0.00104703      -0.00088371 </v>
   <v>       0.00057048       0.00106624      -0.00031222 </v>
   <v>       0.00015397      -0.00009716      -0.00056269 </v>
   <v>      -0.00038041      -0.00022541       0.00010879 </v>
   <v>      -0.00001332      -0.00027681      -0.00035592 </v>
   <v>       0.00072392       0.00032881       0.00045694 </v>
   <v>       0.00048270       0.00054772      -0.00048660 </v>
   <v>       0.00009116       0.00013606       0.00021060 </v>
   <v>      -0.00006959      -0.00013531      -0.00008434 </v>
   <v>      -0.00000906      -0.00004491      -0.00016293 </v>
   <v>       0.00083739      -0.00029374      -0.00024195 </v>
   <v>      -0.00049068      -0.00022439      -0.00006028 </v>
   <v>       0.00026707      -0.00001767      -0.00061946 </v>
   <v>      -0.00019791      -0.00030628      -0.00024329 </v>
   <v>       0.00024825       0.00013284       0.00019864 </v>
   <v>       0.00009087       0.00065113       0.00044227 </v>
   <v>      -0.00024959      -0.00034802      -0.00036271 </v>
   <v>       0.00020570       0.00007316      -0.00006238 </v>
   <v>      -0.00025488       0.00034731       0.00022671 </v>
   <v>       0.00011270      -0.00010084       0.00020458 </v>
   <v>       0.00007341       0.00001815       0.00063441 </v>
   <v>      -0.00035735       0.00021476      -0.00010194 </v>
   <v>      -0.00028087      -0.00016017      -0.00012862 </v>
   <v>      -0.00006180       0.00004645      -0.00047270 </v>
  </varray>
  <varray name="stress" >
   <v>      -0.55713278       0.01893643      -0.02966580 </v>
   <v>       0.01893646       0.35617724      -3.54442966 </v>
   <v>      -0.02966585      -3.54442878       0.16851856 </v>
  </varray>
  <energy>
   <i name="e_fr_energy">   -272.33449272 </i>
   <i name="e_wo_entrp">   -272.33449272 </i>
   <i name="e_0_energy">   -272.33449272 </i>
  </energy>
  <time name="totalsc">    7.59    7.67</time>
 </calculation>
 <calculation>
  <scstep>
   <time name="dav">    2.33    2.34</time>
   <time name="total">    2.85    2.87</time>
   <energy>
    <i name="alphaZ">    301.69328848 </i>
    <i name="ewald">  -8836.13772897 </i>
    <i name="hartreedc">  -2195.47170545 </i>
    <i name="XCdc">    537.90361364 </i>
    <i name="pawpsdc">   9818.37856458 </i>
    <i name="pawaedc">  -9962.38279647 </i>
    <i name="eentropy">     -0.00000000 </i>
    <i name="bandstr">  -2625.85927379 </i>
    <i name="atom">  12703.13999606 </i>
    <i name="e_fr_energy">   -258.73604192 </i>
    <i name="e_wo_entrp">   -258.73604192 </i>
    <i name="e_0_energy">   -258.73604192 </i>
   </energy>
  </scstep>
  <scstep>
   <time name="diag">    0.36    0.36</time>
   <time name="diis">    0.79    0.79</time>
   <time name="orth">    0.07    0.07</time>
   <time name="total">    1.67    1.68</time>
   <energy>
    <i name="alphaZ">    301.69328848 </i>
    <i name="ewald">  -8836.13772897 </i>
    <i name="hartreedc">  -2195.47105798 </i>
    <i name="XCdc">    537.90357174 </i>
    <i name="pawpsdc">   9818.36564457 </i>
    <i name="pawaedc">  -9962.36981922 </i>
    <i name="eentropy">     -0.00000000 </i>
    <i name="bandstr">  -2625.85993676 </i>
    <i name="atom">  12703.13999606 </i>
    <i name="e_fr_energy">   -258.73604208 </i>
    <i name="e_wo_entrp">   -258.73604208 </i>
    <i name="e_0_energy">   -258.73604208 </i>
   </energy>
  </scstep>
  <structure>
   <crystal>
    <varray name="basis" >
     <v>       9.65410610       0.00000000       0.00000000 </v>
     <v>       0.00000000       9.65410610       0.00000000 </v>
     <v>       0.00000000       0.00000000       9.65410610 </v>
    </varray>
    <i name="volume">    899.77972346 </i>
    <varray name="rec_basis" >
     <v>       0.10358287       0.00000000       0.00000000 </v>
     <v>       0.00000000       0.10358287       0.00000000 </v>
     <v>       0.00000000       0.00000000       0.10358287 </v>
    </varray>
   </crystal>
   <varray name="positions" >
    <v>       0.98323294       0.19680609       0.21108559 </v>
    <v>       0.97391493       0.69067259       0.70994344 </v>
    <v>       0.04351983       0.15022079       0.81230631 </v>
    <v>       0.01025450       0.79447675       0.20331644 </v>
    <v>       0.28597035       0.31001809       0.97372145 </v>
    <v>       0.31588983       0.65710694       0.04532702 </v>
    <v>       0.78592361       0.19183221       0.02386801 </v>
    <v>       0.81579154       0.84461208       0.95248397 </v>
    <v>       0.21230009       0.98434321       0.16988230 </v>
    <v>       0.31559605       0.00796968       0.71820588 </v>
    <v>       0.67923547       0.96143886       0.66200073 </v>
    <v>       0.67598520       0.05200435       0.32598796 </v>
    <v>       0.28058253       0.81069496       0.48027943 </v>
    <v>       0.32963129       0.19154186       0.51338768 </v>
    <v>       0.78059337       0.69079158       0.51757308 </v>
    <v>       0.82982111       0.31017385       0.48416810 </v>
    <v>       0.17580927       0.44972032       0.67177224 </v>
    <v>       0.17915627       0.54027209       0.33571132 </v>
    <v>       0.81528845       0.49383406       0.27944691 </v>
    <v>       0.71233119       0.51724508       0.82746854 </v>
    <v>       0.48328673       0.30490734       0.78650291 </v>
    <v>       0.47384703       0.81131173       0.28801481 </v>
    <v>       0.54340732       0.35139208       0.18528759 </v>
    <v>       0.51025080       0.70720660       0.79447118 </v>
    <v>       0.49737412       0.50297863       0.49145095 </v>
    <v>       0.50393151       0.00521552       0.00356911 </v>
    <v>       0.00395079       0.49646360       0.99422369 </v>
    <v>       0.99741577       0.99864678       0.50618854 </v>
    <v>       0.11277323       0.87996361       0.64077671 </v>
    <v>       0.12895578       0.11343232       0.38519655 </v>
    <v>       0.86640201       0.88360926       0.38393265 </v>
    <v>       0.87358588       0.12007309       0.62839792 </v>
    <v>       0.86617036       0.62975348       0.08778991 </v>
    <v>       0.89732942       0.36011406       0.87112147 </v>
    <v>       0.13767633       0.60617288       0.87132697 </v>
    <v>       0.12023442       0.39164399       0.13820810 </v>
    <v>       0.62020247       0.11000229       0.85952014 </v>
    <v>       0.63763182       0.89554334       0.12650611 </v>
    <v>       0.39725021       0.14160779       0.12655230 </v>
    <v>       0.36613730       0.87195447       0.90997107 </v>
    <v>       0.61267118       0.62187021       0.35700056 </v>
    <v>       0.62901328       0.38814780       0.61231695 </v>
    <v>       0.36641923       0.61792315       0.61386705 </v>
    <v>       0.37354366       0.38164246       0.36919068 </v>
    <v>       0.74219427       0.74394871       0.74644515 </v>
    <v>       0.75931819       0.26456977       0.25358727 </v>
    <v>       0.24220069       0.75776907       0.25133436 </v>
    <v>       0.25935880       0.23718993       0.74402348 </v>
    <v>       0.99444577       0.01627292       0.02799631 </v>
    <v>       0.98072216       0.51957334       0.49694211 </v>
    <v>       0.48061795       0.98211327       0.50086821 </v>
    <v>       0.49452616       0.48537362       0.96963559 </v>
   </varray>
  </structure>
  <varray name="forces" >
   <v>       0.00004930      -0.00000163      -0.00004909 </v>
   <v>      -0.00008234      -0.00014471      -0.00021166 </v>
   <v>       0.00009977      -0.00040849      -0.00009273 </v>
   <v>      -0.00004940       0.00060374      -0.00097056 </v>
   <v>      -0.00005781      -0.00013997       0.00012571 </v>
   <v>      -0.00020557      -0.00000215       0.00015107 </v>
   <v>      -0.00007305       0.00004011      -0.00003852 </v>
   <v>      -0.00010527       0.00000040      -0.00026997 </v>
   <v>       0.00021874       0.00040472       0.00062986 </v>
   <v>       0.00025547      -0.00004831      -0.00007313 </v>
   <v>      -0.00027950      -0.00018137      -0.00009555 </v>
   <v>       0.00003886       0.00003619      -0.00011751 </v>
   <v>      -0.00001288      -0.00001229       0.00012012 </v>
   <v>       0.00016006       0.00009150       0.00009423 </v>
   <v>      -0.00008550       0.00015677      -0.00024368 </v>
   <v>       0.00006517      -0.00015714      -0.00000765 </v>
   <v>       0.00011350      -0.00003070       0.00002662 </v>
   <v>      -0.00020493       0.00022680       0.00009502 </v>
   <v>       0.00055200       0.00002042       0.00016125 </v>
   <v>       0.00014612      -0.00024477      -0.00035326 </v>
[...]
       <r>     8.0367    10.4452   144.2958 </r>
       <r>     8.2294    16.4797   147.4703 </r>
       <r>     8.4220    16.6425   150.6775 </r>
       <r>     8.6146    12.8010   153.1445 </r>
       <r>     8.8073    18.5348   156.7152 </r>
       <r>     8.9999    14.5845   159.5271 </r>
       <r>     9.1925    15.0619   162.4294 </r>
       <r>     9.3852    16.0433   165.5211 </r>
       <r>     9.5778    20.1909   169.4112 </r>
       <r>     9.7704    15.9948   172.4923 </r>
       <r>     9.9630    14.4314   175.2727 </r>
       <r>    10.1557     3.7656   176.0000 </r>
       <r>    10.3483     0.0000   176.0000 </r>
       <r>    10.5409     0.0000   176.0000 </r>
       <r>    10.7336     0.0000   176.0000 </r>
       <r>    10.9262     0.0000   176.0000 </r>
       <r>    11.1188     0.0000   176.0000 </r>
       <r>    11.3114     0.0000   176.0000 </r>
       <r>    11.5041     0.0000   176.0000 </r>
       <r>    11.6967     0.0000   176.0000 </r>
       <r>    11.8893     0.0000   176.0000 </r>
       <r>    12.0820     0.0000   176.0000 </r>
       <r>    12.2746     0.0000   176.0000 </r>
       <r>    12.4672     0.0000   176.0000 </r>
       <r>    12.6599     0.0000   176.0000 </r>
      </set>
      <set comment="spin 2">
       <r>   -45.1289     0.0000     0.0000 </r>
       <r>   -44.9363     0.0000     0.0000 </r>
       <r>   -44.7437     0.0000     0.0000 </r>
       <r>   -44.5510     0.0000     0.0000 </r>
       <r>   -44.3584     0.0000     0.0000 </r>
       <r>   -44.1658     0.0000     0.0000 </r>
       <r>   -43.9731     0.0000     0.0000 </r>
       <r>   -43.7805     0.0000     0.0000 </r>
       <r>   -43.5879     0.0000     0.0000 </r>
       <r>   -43.3953     0.0000     0.0000 </r>
       <r>   -43.2026     0.0000     0.0000 </r>
       <r>   -43.0100     0.0000     0.0000 </r>
       <r>   -42.8174     0.0000     0.0000 </r>
       <r>   -42.6247     0.0000     0.0000 </r>
       <r>   -42.4321    32.6182     6.2832 </r>
       <r>   -42.2395    73.1895    20.3886 </r>
       <r>   -42.0469    18.6425    24.0000 </r>
       <r>   -41.8542     0.0000    24.0000 </r>
       <r>   -41.6616     0.0000    24.0000 </r>
       <r>   -41.4690     0.0000    24.0000 </r>
       <r>   -41.2763     0.0000    24.0000 </r>
       <r>   -41.0837     0.0000    24.0000 </r>
       <r>   -40.8911     0.0000    24.0000 </r>
       <r>   -40.6984     0.0000    24.0000 </r>
       <r>   -40.5058     0.0000    24.0000 </r>
       <r>   -40.3132     0.0000    24.0000 </r>
       <r>   -40.1206     0.0000    24.0000 </r>
       <r>   -39.9279     0.0000    24.0000 </r>
       <r>   -39.7353     0.0000    24.0000 </r>
       <r>   -39.5427     0.0000    24.0000 </r>
       <r>   -39.3500     0.0000    24.0000 </r>
       <r>   -39.1574     0.0000    24.0000 </r>
       <r>   -38.9648     0.0000    24.0000 </r>
       <r>   -38.7722     0.0000    24.0000 </r>
       <r>   -38.5795     0.0000    24.0000 </r>
       <r>   -38.3869     0.0000    24.0000 </r>
       <r>   -38.1943     0.0000    24.0000 </r>
       <r>   -38.0016     0.0000    24.0000 </r>
       <r>   -37.8090     0.0000    24.0000 </r>
       <r>   -37.6164     0.0000    24.0000 </r>
       <r>   -37.4238     0.0000    24.0000 </r>
       <r>   -37.2311     0.0000    24.0000 </r>
       <r>   -37.0385     0.0000    24.0000 </r>
       <r>   -36.8459     0.0000    24.0000 </r>
       <r>   -36.6532     0.0000    24.0000 </r>
       <r>   -36.4606     0.0000    24.0000 </r>
       <r>   -36.2680     0.0000    24.0000 </r>
       <r>   -36.0753     0.0000    24.0000 </r>
       <r>   -35.8827     0.0000    24.0000 </r>
       <r>   -35.6901     0.0000    24.0000 </r>
       <r>   -35.4975     0.0000    24.0000 </r>
       <r>   -35.3048     0.0000    24.0000 </r>
       <r>   -35.1122     0.0000    24.0000 </r>
       <r>   -34.9196     0.0000    24.0000 </r>
       <r>   -34.7269     0.0000    24.0000 </r>
       <r>   -34.5343     0.0000    24.0000 </r>
       <r>   -34.3417     0.0000    24.0000 </r>
       <r>   -34.1491     0.0000    24.0000 </r>
       <r>   -33.9564     0.0000    24.0000 </r>
       <r>   -33.7638     0.0000    24.0000 </r>
       <r>   -33.5712     0.0000    24.0000 </r>
       <r>   -33.3785     0.0000    24.0000 </r>
       <r>   -33.1859     0.0000    24.0000 </r>
       <r>   -32.9933     0.0000    24.0000 </r>
       <r>   -32.8007     0.0000    24.0000 </r>
       <r>   -32.6080     0.0000    24.0000 </r>
       <r>   -32.4154     0.0000    24.0000 </r>
       <r>   -32.2228     0.0000    24.0000 </r>
       <r>   -32.0301     0.0000    24.0000 </r>
       <r>   -31.8375     0.0000    24.0000 </r>
       <r>   -31.6449     0.0000    24.0000 </r>
       <r>   -31.4522     0.0000    24.0000 </r>
       <r>   -31.2596     0.0000    24.0000 </r>
       <r>   -31.0670     0.0000    24.0000 </r>
       <r>   -30.8744     0.0000    24.0000 </r>
       <r>   -30.6817     0.0000    24.0000 </r>
       <r>   -30.4891     0.0000    24.0000 </r>
       <r>   -30.2965     0.0000    24.0000 </r>
       <r>   -30.1038     0.0000    24.0000 </r>
       <r>   -29.9112     0.0000    24.0000 </r>
       <r>   -29.7186     0.0000    24.0000 </r>
       <r>   -29.5260     0.0000    24.0000 </r>
       <r>   -29.3333     0.0000    24.0000 </r>
       <r>   -29.1407     0.0000    24.0000 </r>
       <r>   -28.9481     0.0000    24.0000 </r>
       <r>   -28.7554     0.0000    24.0000 </r>
       <r>   -28.5628     0.0000    24.0000 </r>
       <r>   -28.3702     0.0000    24.0000 </r>
       <r>   -28.1775     0.0000    24.0000 </r>
       <r>   -27.9849     0.0000    24.0000 </r>
       <r>   -27.7923     0.0000    24.0000 </r>
       <r>   -27.5997     0.0000    24.0000 </r>
       <r>   -27.4070     0.0000    24.0000 </r>
       <r>   -27.2144     0.0000    24.0000 </r>
       <r>   -27.0218     0.0000    24.0000 </r>
       <r>   -26.8291     0.0000    24.0000 </r>
       <r>   -26.6365     0.0000    24.0000 </r>
       <r>   -26.4439     0.0000    24.0000 </r>
       <r>   -26.2513     0.0000    24.0000 </r>
       <r>   -26.0586     0.0000    24.0000 </r>
       <r>   -25.8660     0.0000    24.0000 </r>
       <r>   -25.6734     0.0000    24.0000 </r>
       <r>   -25.4807     0.0000    24.0000 </r>
       <r>   -25.2881     0.0000    24.0000 </r>
       <r>   -25.0955     0.0000    24.0000 </r>
       <r>   -24.9029     0.0000    24.0000 </r>
       <r>   -24.7102     0.0000    24.0000 </r>
       <r>   -24.5176     0.0000    24.0000 </r>
       <r>   -24.3250     0.0000    24.0000 </r>
       <r>   -24.1323     0.0000    24.0000 </r>
       <r>   -23.9397     0.0000    24.0000 </r>
       <r>   -23.7471     0.0000    24.0000 </r>
       <r>   -23.5544     0.0000    24.0000 </r>
       <r>   -23.3618     0.0000    24.0000 </r>
       <r>   -23.1692     0.0000    24.0000 </r>
       <r>   -22.9766     0.0000    24.0000 </r>
       <r>   -22.7839     0.0000    24.0000 </r>
       <r>   -22.5913     0.0000    24.0000 </r>
       <r>   -22.3987     0.0000    24.0000 </r>
       <r>   -22.2060     0.0000    24.0000 </r>
       <r>   -22.0134     0.0000    24.0000 </r>
       <r>   -21.8208     0.0000    24.0000 </r>
       <r>   -21.6282     0.0000    24.0000 </r>
       <r>   -21.4355     0.0000    24.0000 </r>
       <r>   -21.2429     0.0000    24.0000 </r>
       <r>   -21.0503     0.0000    24.0000 </r>
       <r>   -20.8576     0.0000    24.0000 </r>
       <r>   -20.6650     0.0000    24.0000 </r>
       <r>   -20.4724     0.0000    24.0000 </r>
       <r>   -20.2797     0.0000    24.0000 </r>
       <r>   -20.0871     0.0000    24.0000 </r>
       <r>   -19.8945     0.0000    24.0000 </r>
       <r>   -19.7019     0.0000    24.0000 </r>
       <r>   -19.5092     0.0000    24.0000 </r>
       <r>   -19.3166     0.0000    24.0000 </r>
       <r>   -19.1240     0.0000    24.0000 </r>
       <r>   -18.9313     0.0000    24.0000 </r>
       <r>   -18.7387     0.0000    24.0000 </r>
       <r>   -18.5461     0.0000    24.0000 </r>
       <r>   -18.3535     0.0000    24.0000 </r>
       <r>   -18.1608     0.0000    24.0000 </r>
       <r>   -17.9682     0.0000    24.0000 </r>
       <r>   -17.7756     0.0000    24.0000 </r>
       <r>   -17.5829     0.0000    24.0000 </r>
       <r>   -17.3903     0.0000    24.0000 </r>
       <r>   -17.1977     0.0000    24.0000 </r>
       <r>   -17.0051     0.0000    24.0000 </r>
       <r>   -16.8124     0.0000    24.0000 </r>
       <r>   -16.6198     0.0000    24.0000 </r>
       <r>   -16.4272     0.0000    24.0000 </r>
       <r>   -16.2345     0.0000    24.0000 </r>
       <r>   -16.0419     0.0000    24.0000 </r>
       <r>   -15.8493     0.0000    24.0000 </r>
       <r>   -15.6566     0.0000    24.0000 </r>
       <r>   -15.4640     0.0000    24.0000 </r>
       <r>   -15.2714     0.0000    24.0000 </r>
       <r>   -15.0788     0.0000    24.0000 </r>
       <r>   -14.8861     0.0000    24.0000 </r>
       <r>   -14.6935     0.0000    24.0000 </r>
       <r>   -14.5009     0.0000    24.0000 </r>
       <r>   -14.3082     0.0000    24.0000 </r>
       <r>   -14.1156     0.0000    24.0000 </r>
       <r>   -13.9230     0.0000    24.0000 </r>
       <r>   -13.7304     0.0000    24.0000 </r>
       <r>   -13.5377     0.0000    24.0000 </r>
       <r>   -13.3451     0.0000    24.0000 </r>
       <r>   -13.1525     0.0000    24.0000 </r>
       <r>   -12.9598    11.4062    26.1972 </r>
       <r>   -12.7672     9.3448    28.0000 </r>
       <r>   -12.5746    17.7063    31.4107 </r>
       <r>   -12.3820     3.0590    32.0000 </r>
       <r>   -12.1893     0.0000    32.0000 </r>
       <r>   -11.9967     0.0000    32.0000 </r>
       <r>   -11.8041     0.0000    32.0000 </r>
       <r>   -11.6114     0.0000    32.0000 </r>
       <r>   -11.4188     0.0000    32.0000 </r>
       <r>   -11.2262     0.0000    32.0000 </r>
       <r>   -11.0335     0.0000    32.0000 </r>
       <r>   -10.8409     0.0000    32.0000 </r>
       <r>   -10.6483     0.0000    32.0000 </r>
       <r>   -10.4557     0.0000    32.0000 </r>
       <r>   -10.2630     2.2519    32.4338 </r>
       <r>   -10.0704    17.7367    35.8504 </r>
       <r>    -9.8778    32.1269    42.0390 </r>
       <r>    -9.6851    10.1626    44.0000 </r>
       <r>    -9.4925     0.0000    44.0000 </r>
       <r>    -9.2999     0.0000    44.0000 </r>
       <r>    -9.1073     0.0000    44.0000 </r>
       <r>    -8.9146     0.0000    44.0000 </r>
       <r>    -8.7220     0.0000    44.0000 </r>
       <r>    -8.5294     0.0000    44.0000 </r>
       <r>    -8.3367     3.0647    44.5904 </r>
       <r>    -8.1441    17.7005    48.0000 </r>
       <r>    -7.9515     0.0000    48.0000 </r>
       <r>    -7.7588     0.0000    48.0000 </r>
       <r>    -7.5662     0.0000    48.0000 </r>
       <r>    -7.3736     0.0000    48.0000 </r>
       <r>    -7.1810     0.0000    48.0000 </r>
       <r>    -6.9883     0.0000    48.0000 </r>
       <r>    -6.7957     0.0000    48.0000 </r>
       <r>    -6.6031     0.0000    48.0000 </r>
       <r>    -6.4104     0.0000    48.0000 </r>
       <r>    -6.2178     0.0000    48.0000 </r>
       <r>    -6.0252     5.1886    48.9995 </r>
       <r>    -5.8326     0.0000    49.0000 </r>
       <r>    -5.6399     7.0934    50.3664 </r>
       <r>    -5.4473     8.4773    52.0000 </r>
       <r>    -5.2547     0.0000    52.0000 </r>
       <r>    -5.0620     0.0000    52.0000 </r>
       <r>    -4.8694     0.0000    52.0000 </r>
       <r>    -4.6768     0.0000    52.0000 </r>
       <r>    -4.4842     0.0000    52.0000 </r>
       <r>    -4.2915     0.0000    52.0000 </r>
       <r>    -4.0989     0.0000    52.0000 </r>
       <r>    -3.9063     0.0000    52.0000 </r>
       <r>    -3.7136     0.0000    52.0000 </r>
       <r>    -3.5210     0.0000    52.0000 </r>
       <r>    -3.3284     0.0000    52.0000 </r>
       <r>    -3.1357    13.3937    54.5800 </r>
       <r>    -2.9431     2.1769    55.0000 </r>
       <r>    -2.7505     5.2165    56.0049 </r>
       <r>    -2.5579    10.4263    58.0134 </r>
       <r>    -2.3652    18.0354    61.4876 </r>
       <r>    -2.1726    12.9972    63.9914 </r>
       <r>    -1.9800     0.0367    64.0000 </r>
       <r>    -1.7873     0.0000    64.0000 </r>
       <r>    -1.5947     0.0030    64.0006 </r>
       <r>    -1.4021    21.3962    68.1221 </r>
       <r>    -1.2095    20.1264    71.9998 </r>
       <r>    -1.0168    20.5937    75.9674 </r>
       <r>    -0.8242     0.1269    76.0000 </r>
       <r>    -0.6316     0.0004    76.0001 </r>
       <r>    -0.4389    13.6796    78.6352 </r>
       <r>    -0.2463    10.6496    80.6887 </r>
       <r>    -0.0537    16.4297    83.8537 </r>
       <r>     0.1389    29.1762    89.4772 </r>
       <r>     0.3316    19.4616    93.2369 </r>
       <r>     0.5242    14.3263    96.0000 </r>
       <r>     0.7168     0.9740    96.1876 </r>
       <r>     0.9095    17.6682    99.5910 </r>
       <r>     1.1021    21.0581   103.6497 </r>
       <r>     1.2947    21.5941   107.8097 </r>
       <r>     1.4874    28.6496   113.3287 </r>
       <r>     1.6800    25.3869   118.2211 </r>
       <r>     1.8726     9.2283   119.9999 </r>
       <r>     2.0652     0.0000   120.0000 </r>
       <r>     2.2579     0.0000   120.0000 </r>
       <r>     2.4505     0.0000   120.0000 </r>
       <r>     2.6431     0.0000   120.0000 </r>
       <r>     2.8358     0.0000   120.0000 </r>
       <r>     3.0284     0.0000   120.0000 </r>
       <r>     3.2210     0.0000   120.0000 </r>
       <r>     3.4136     0.0000   120.0000 </r>
       <r>     3.6063     0.0000   120.0000 </r>
       <r>     3.7989     0.0000   120.0000 </r>
       <r>     3.9915     0.0000   120.0000 </r>
       <r>     4.1842     0.0000   120.0000 </r>
       <r>     4.3768     0.0002   120.0000 </r>
       <r>     4.5694     5.1911   121.0000 </r>
       <r>     4.7621     0.0000   121.0000 </r>
       <r>     4.9547     0.0000   121.0000 </r>
       <r>     5.1473     0.0000   121.0000 </r>
       <r>     5.3399    10.0980   122.9452 </r>
       <r>     5.5326     5.4749   124.0000 </r>
       <r>     5.7252     0.0000   124.0000 </r>
       <r>     5.9178     2.3243   124.4477 </r>
       <r>     6.1105    13.7750   127.1012 </r>
       <r>     6.3031    13.6299   129.7285 </r>
       <r>     6.4957     2.2247   130.1570 </r>
       <r>     6.6883    12.7526   132.6135 </r>
       <r>     6.8810    11.6883   134.8650 </r>
       <r>     7.0736     5.8928   136.0007 </r>
       <r>     7.2662     5.1875   137.0000 </r>
       <r>     7.4589     5.8734   138.1314 </r>
       <r>     7.6515    11.8849   140.4259 </r>
       <r>     7.8441     9.6432   142.2837 </r>
       <r>     8.0367    10.4452   144.2958 </r>
       <r>     8.2294    16.4797   147.4703 </r>
       <r>     8.4220    16.6425   150.6775 </r>
       <r>     8.6146    12.8010   153.1445 </r>
       <r>     8.8073    18.5348   156.7152 </r>
       <r>     8.9999    14.5845   159.5271 </r>
       <r>     9.1925    15.0616   162.4294 </r>
       <r>     9.3852    16.0399   165.5204 </r>
       <r>     9.5778    20.1989   169.4120 </r>
       <r>     9.7704    15.9776   172.4898 </r>
       <r>     9.9630    13.8180   175.1519 </r>
       <r>    10.1557     4.3990   176.0000 </r>
       <r>    10.3483     0.0000   176.0000 </r>
       <r>    10.5409     0.0000   176.0000 </r>
       <r>    10.7336     0.0000   176.0000 </r>
       <r>    10.9262     0.0000   176.0000 </r>
       <r>    11.1188     0.0000   176.0000 </r>
       <r>    11.3114     0.0000   176.0000 </r>
       <r>    11.5041     0.0000   176.0000 </r>
       <r>    11.6967     0.0000   176.0000 </r>
       <r>    11.8893     0.0000   176.0000 </r>
       <r>    12.0820     0.0000   176.0000 </r>
       <r>    12.2746     0.0000   176.0000 </r>
       <r>    12.4672     0.0000   176.0000 </r>
       <r>    12.6599     0.0000   176.0000 </r>
      </set>
     </set>
    </array>
   </total>
  </dos>
 </calculation>
 <structure name="finalpos" >
  <crystal>
   <varray name="basis" >
    <v>       9.65410610       0.00000000       0.00000000 </v>
    <v>       0.00000000       9.65410610       0.00000000 </v>
    <v>       0.00000000       0.00000000       9.65410610 </v>
   </varray>
   <i name="volume">    899.77972346 </i>
   <varray name="rec_basis" >
    <v>       0.10358287       0.00000000       0.00000000 </v>
    <v>       0.00000000       0.10358287       0.00000000 </v>
    <v>       0.00000000       0.00000000       0.10358287 </v>
   </varray>
  </crystal>
  <varray name="positions" >
   <v>       0.98323305       0.19680603       0.21108499 </v>
   <v>       0.97391439       0.69067136       0.70994152 </v>
   <v>       0.04352049       0.15021732       0.81230559 </v>
   <v>       0.01025405       0.79448180       0.20330872 </v>
   <v>       0.28596983       0.31001663       0.97372276 </v>
   <v>       0.31588785       0.65710669       0.04532848 </v>
   <v>       0.78592301       0.19183252       0.02386762 </v>
   <v>       0.81579047       0.84461200       0.95248188 </v>
   <v>       0.21230177       0.98434626       0.16988738 </v>
   <v>       0.31559804       0.00796898       0.71820517 </v>
   <v>       0.67923306       0.96143735       0.66200014 </v>
   <v>       0.67598539       0.05200447       0.32598704 </v>
   <v>       0.28058228       0.81069467       0.48028087 </v>
   <v>       0.32963261       0.19154255       0.51338861 </v>
   <v>       0.78059261       0.69079285       0.51757123 </v>
   <v>       0.82982148       0.31017238       0.48416829 </v>
   <v>       0.17581016       0.44972004       0.67177257 </v>
   <v>       0.17915454       0.54027386       0.33571226 </v>
   <v>       0.81529295       0.49383419       0.27944855 </v>
   <v>       0.71233239       0.51724274       0.82746561 </v>
   <v>       0.48328669       0.30490791       0.78650417 </v>
   <v>       0.47384685       0.81131137       0.28801495 </v>
   <v>       0.54340871       0.35139697       0.18528917 </v>
   <v>       0.51025053       0.70720294       0.79447649 </v>
   <v>       0.49737337       0.50297810       0.49145108 </v>
   <v>       0.50393128       0.00521579       0.00356970 </v>
   <v>       0.00394969       0.49646285       0.99422332 </v>
   <v>       0.99741559       0.99864548       0.50619037 </v>
   <v>       0.11277225       0.87996468       0.64077724 </v>
   <v>       0.12895664       0.11343611       0.38519763 </v>
   <v>       0.86640277       0.88360866       0.38392997 </v>
   <v>       0.87358386       0.12007140       0.62839881 </v>
   <v>       0.86616857       0.62975332       0.08778858 </v>
   <v>       0.89733128       0.36011283       0.87112128 </v>
   <v>       0.13767713       0.60617458       0.87132548 </v>
   <v>       0.12023490       0.39164473       0.13820969 </v>
   <v>       0.62020272       0.11000194       0.85951883 </v>
   <v>       0.63763243       0.89554241       0.12650602 </v>
   <v>       0.39725306       0.14160899       0.12655349 </v>
   <v>       0.36613521       0.87195374       0.90997168 </v>
   <v>       0.61267179       0.62186915       0.35699771 </v>
   <v>       0.62901281       0.38814525       0.61231599 </v>
   <v>       0.36641997       0.61792394       0.61386853 </v>
   <v>       0.37354202       0.38164392       0.36919105 </v>
   <v>       0.74219289       0.74394706       0.74644347 </v>
   <v>       0.75931862       0.26457040       0.25358703 </v>
   <v>       0.24219914       0.75777067       0.25133541 </v>
   <v>       0.25935885       0.23718918       0.74402437 </v>
   <v>       0.99444692       0.01627122       0.02799780 </v>
   <v>       0.98072143       0.51957323       0.49694248 </v>
   <v>       0.48061758       0.98211328       0.50086687 </v>
   <v>       0.49452650       0.48537567       0.96963488 </v>
  </varray>
 </structure>
</modeling>
