unknown system                          
           1
     9.654106    0.000000    0.000000
     0.000000    9.654106    0.000000
     0.000000    0.000000    9.654106
   Li   P    S    Cl
    24     4    20     4
Direct configuration=     1
   0.98323244  0.19680630  0.21108638
   0.97391585  0.69067529  0.70994688
   0.04351868  0.15022728  0.81230779
   0.01025524  0.79446685  0.20333099
   0.28597159  0.31002064  0.97371922
   0.31589411  0.65710719  0.04532469
   0.78592496  0.19183170  0.02386868
   0.81579391  0.84461215  0.95248801
   0.21229722  0.98433728  0.16987206
   0.31559182  0.00797070  0.71820707
   0.67924025  0.96144159  0.66200181
   0.67598461  0.05200431  0.32598973
   0.28058256  0.81069571  0.48027743
   0.32962941  0.19154072  0.51338627
   0.78059518  0.69078897  0.51757720
   0.82982048  0.31017679  0.48416794
   0.17580753  0.44972030  0.67177125
   0.17915984  0.54026853  0.33570974
   0.81528019  0.49383353  0.27944352
   0.71232917  0.51724938  0.82747440
   0.48328670  0.30490637  0.78650055
   0.47384720  0.81131272  0.28801450
   0.54340435  0.35138245  0.18528450
   0.51025164  0.70721356  0.79446100
   0.49737160  0.50297406  0.49145073
   0.50393196  0.00522014  0.00357312
   0.00394400  0.49645963  0.99422448
   0.99741944  0.99863734  0.50619770
   0.11276864  0.87996939  0.64076667
   0.12895793  0.11342841  0.38518976
   0.86640068  0.88361052  0.38393715
   0.87358968  0.12007714  0.62839572
   0.86617670  0.62975150  0.08779142
   0.89732933  0.36012152  0.87112636
   0.13767787  0.60617175  0.87132787
   0.12023351  0.39164257  0.13820430
   0.62020093  0.11000228  0.85952409
   0.63762951  0.89554629  0.12650491
   0.39724764  0.14160072  0.12654574
   0.36614033  0.87195504  0.90996829
   0.61267143  0.62187388  0.35700519
   0.62901314  0.38815418  0.61231820
   0.36641885  0.61792155  0.61386352
   0.37355044  0.38164316  0.36919341
   0.74219694  0.74395147  0.74644791
   0.75931851  0.26456815  0.25358759
   0.24220398  0.75776651  0.25133265
   0.25935965  0.23719169  0.74402214
   0.99444227  0.01627925  0.02799674
   0.98072151  0.51957571  0.49693983
   0.48061673  0.98211176  0.50087188
   0.49452435  0.48536661  0.96963381
Direct configuration=     2
   0.98323263  0.19680623  0.21108623
   0.97391562  0.69067449  0.70994599
   0.04351897  0.15022554  0.81230737
   0.01025506  0.79446958  0.20332708
   0.28597121  0.31001999  0.97371978
   0.31589286  0.65710716  0.04532524
   0.78592456  0.19183182  0.02386851
   0.81579320  0.84461214  0.95248690
   0.21229794  0.98433890  0.16987494
   0.31559305  0.00797048  0.71820678
   0.67923892  0.96144088  0.66200153
   0.67598481  0.05200429  0.32598925
   0.28058263  0.81069547  0.48027784
   0.32962981  0.19154099  0.51338659
   0.78059462  0.69078971  0.51757598
   0.82982064  0.31017596  0.48416795
   0.17580801  0.44972040  0.67177158
   0.17915883  0.54026953  0.33571012
   0.81528237  0.49383372  0.27944449
   0.71232967  0.51724825  0.82747276
   0.48328673  0.30490661  0.78650118
   0.47384719  0.81131240  0.28801459
   0.54340521  0.35138511  0.18528535
   0.51025135  0.70721167  0.79446378
   0.49737301  0.50297632  0.49145079
   0.50393184  0.00521795  0.00357109
   0.00394747  0.49646170  0.99422425
   0.99741784  0.99864208  0.50619290
   0.11277106  0.87996639  0.64077104
   0.12895666  0.11342886  0.38519246
   0.86640102  0.88361016  0.38393604
   0.87358866  0.12007590  0.62839641
   0.86617445  0.62975245  0.08779120
   0.89732872  0.36011856  0.87112421
   0.13767689  0.60617167  0.87132798
   0.12023375  0.39164295  0.13820547
   0.62020154  0.11000240  0.85952275
   0.63763034  0.89554528  0.12650548
   0.39724782  0.14160351  0.12654830
   0.36613968  0.87195503  0.90996934
   0.61267110  0.62187258  0.35700409
   0.62901336  0.38815217  0.61231797
   0.36641877  0.61792200  0.61386460
   0.37354794  0.38164234  0.36919204
   0.74219621  0.74395079  0.74644725
   0.75931821  0.26456866  0.25358753
   0.24220303  0.75776712  0.25133306
   0.25935924  0.23719115  0.74402244
   0.99444345  0.01627697  0.02799602
   0.98072206  0.51957467  0.49694073
   0.48061741  0.98211244  0.50087068
   0.49452505  0.48536907  0.96963487
Direct configuration=     3
   0.98323270  0.19680620  0.21108617
   0.97391553  0.69067417  0.70994563
   0.04351909  0.15022484  0.81230720
   0.01025499  0.79447068  0.20332551
   0.28597106  0.31001973  0.97372001
   0.31589236  0.65710715  0.04532547
   0.78592440  0.19183187  0.02386844
   0.81579292  0.84461214  0.95248646
   0.21229822  0.98433956  0.16987609
   0.31559354  0.00797039  0.71820666
   0.67923839  0.96144059  0.66200141
   0.67598489  0.05200428  0.32598905
   0.28058266  0.81069537  0.48027800
   0.32962997  0.19154111  0.51338672
   0.78059440  0.69079001  0.51757549
   0.82982070  0.31017563  0.48416795
   0.17580820  0.44972044  0.67177171
   0.17915842  0.54026992  0.33571028
   0.81528324  0.49383380  0.27944488
   0.71232987  0.51724779  0.82747210
   0.48328674  0.30490671  0.78650144
   0.47384718  0.81131227  0.28801463
   0.54340556  0.35138618  0.18528569
   0.51025124  0.70721092  0.79446489
   0.49737357  0.50297723  0.49145081
   0.50393180  0.00521707  0.00357028
   0.00394886  0.49646252  0.99422416
   0.99741719  0.99864398  0.50619098
   0.11277203  0.87996519  0.64077279
   0.12895614  0.11342904  0.38519355
   0.86640115  0.88361001  0.38393560
   0.87358825  0.12007539  0.62839669
   0.86617354  0.62975284  0.08779111
   0.89732847  0.36011737  0.87112334
   0.13767650  0.60617164  0.87132802
   0.12023385  0.39164311  0.13820594
   0.62020179  0.11000245  0.85952221
   0.63763068  0.89554487  0.12650571
   0.39724789  0.14160462  0.12654932
   0.36613942  0.87195503  0.90996976
   0.61267097  0.62187206  0.35700364
   0.62901345  0.38815136  0.61231788
   0.36641873  0.61792219  0.61386504
   0.37354693  0.38164200  0.36919149
   0.74219591  0.74395052  0.74644698
   0.75931809  0.26456887  0.25358751
   0.24220265  0.75776736  0.25133323
   0.25935908  0.23719093  0.74402256
   0.99444393  0.01627606  0.02799573
   0.98072228  0.51957425  0.49694109
   0.48061769  0.98211272  0.50087020
   0.49452533  0.48537006  0.96963529
Direct configuration=     4
   0.98323285  0.19680614  0.21108605
   0.97391535  0.69067353  0.70994492
   0.04351932  0.15022345  0.81230687
   0.01025484  0.79447288  0.20332237
   0.28597075  0.31001921  0.97372045
   0.31589135  0.65710712  0.04532591
   0.78592407  0.19183196  0.02386830
   0.81579235  0.84461214  0.95248558
   0.21229880  0.98434086  0.16987840
   0.31559453  0.00797021  0.71820642
   0.67923732  0.96144002  0.66200119
   0.67598506  0.05200426  0.32598867
   0.28058272  0.81069518  0.48027833
   0.32963028  0.19154133  0.51338698
   0.78059395  0.69079060  0.51757451
   0.82982083  0.31017497  0.48416795
   0.17580859  0.44972053  0.67177198
   0.17915760  0.54027072  0.33571059
   0.81528499  0.49383396  0.27944566
   0.71233027  0.51724688  0.82747078
   0.48328676  0.30490690  0.78650195
   0.47384718  0.81131201  0.28801470
   0.54340625  0.35138832  0.18528637
   0.51025101  0.70720941  0.79446711
   0.49737470  0.50297904  0.49145086
   0.50393170  0.00521531  0.00356866
   0.00395165  0.49646418  0.99422397
   0.99741591  0.99864778  0.50618713
   0.11277398  0.87996279  0.64077630
   0.12895512  0.11342941  0.38519572
   0.86640143  0.88360972  0.38393470
   0.87358743  0.12007439  0.62839724
   0.86617173  0.62975360  0.08779092
   0.89732798  0.36011500  0.87112161
   0.13767571  0.60617157  0.87132811
   0.12023405  0.39164342  0.13820688
   0.62020228  0.11000255  0.85952114
   0.63763134  0.89554405  0.12650617
   0.39724803  0.14160686  0.12655138
   0.36613890  0.87195503  0.90997060
   0.61267071  0.62187102  0.35700276
   0.62901363  0.38814975  0.61231769
   0.36641867  0.61792255  0.61386591
   0.37354492  0.38164134  0.36919039
   0.74219532  0.74394997  0.74644645
   0.75931785  0.26456928  0.25358746
   0.24220189  0.75776785  0.25133356
   0.25935876  0.23719050  0.74402280
   0.99444488  0.01627423  0.02799516
   0.98072272  0.51957342  0.49694182
   0.48061824  0.98211326  0.50086924
   0.49452590  0.48537204  0.96963614
Direct configuration=     5
   0.98323294  0.19680609  0.21108559
   0.97391493  0.69067259  0.70994344
   0.04351983  0.15022079  0.81230631
   0.01025450  0.79447675  0.20331644
   0.28597035  0.31001809  0.97372145
   0.31588983  0.65710694  0.04532702
   0.78592361  0.19183221  0.02386801
   0.81579154  0.84461208  0.95248397
   0.21230009  0.98434321  0.16988230
   0.31559605  0.00796968  0.71820588
   0.67923547  0.96143886  0.66200073
   0.67598520  0.05200435  0.32598796
   0.28058253  0.81069496  0.48027943
   0.32963129  0.19154186  0.51338768
   0.78059337  0.69079158  0.51757308
   0.82982111  0.31017385  0.48416810
   0.17580927  0.44972032  0.67177224
   0.17915627  0.54027209  0.33571132
   0.81528845  0.49383406  0.27944691
   0.71233119  0.51724508  0.82746854
   0.48328673  0.30490734  0.78650291
   0.47384703  0.81131173  0.28801481
   0.54340732  0.35139208  0.18528759
   0.51025080  0.70720660  0.79447118
   0.49737412  0.50297863  0.49145095
   0.50393151  0.00521552  0.00356911
   0.00395079  0.49646360  0.99422369
   0.99741577  0.99864678  0.50618854
   0.11277323  0.87996361  0.64077671
   0.12895578  0.11343232  0.38519655
   0.86640201  0.88360926  0.38393265
   0.87358588  0.12007309  0.62839792
   0.86617036  0.62975348  0.08778991
   0.89732942  0.36011406  0.87112147
   0.13767633  0.60617288  0.87132697
   0.12023442  0.39164399  0.13820810
   0.62020247  0.11000229  0.85952014
   0.63763182  0.89554334  0.12650611
   0.39725021  0.14160779  0.12655230
   0.36613730  0.87195447  0.90997107
   0.61267118  0.62187021  0.35700056
   0.62901328  0.38814780  0.61231695
   0.36641923  0.61792315  0.61386705
   0.37354366  0.38164246  0.36919068
   0.74219427  0.74394871  0.74644515
   0.75931819  0.26456977  0.25358727
   0.24220069  0.75776907  0.25133436
   0.25935880  0.23718993  0.74402348
   0.99444577  0.01627292  0.02799631
   0.98072216  0.51957334  0.49694211
   0.48061795  0.98211327  0.50086821
   0.49452616  0.48537362  0.96963559
Direct configuration=     6
   0.98323305  0.19680603  0.21108499
   0.97391439  0.69067136  0.70994152
   0.04352049  0.15021732  0.81230559
   0.01025405  0.79448180  0.20330872
   0.28596983  0.31001663  0.97372276
   0.31588785  0.65710669  0.04532848
   0.78592301  0.19183252  0.02386762
   0.81579047  0.84461200  0.95248188
   0.21230177  0.98434626  0.16988738
   0.31559804  0.00796898  0.71820517
   0.67923306  0.96143735  0.66200014
   0.67598539  0.05200447  0.32598704
   0.28058228  0.81069467  0.48028087
   0.32963261  0.19154255  0.51338861
   0.78059261  0.69079285  0.51757123
   0.82982148  0.31017238  0.48416829
   0.17581016  0.44972004  0.67177257
   0.17915454  0.54027386  0.33571226
   0.81529295  0.49383419  0.27944855
   0.71233239  0.51724274  0.82746561
   0.48328669  0.30490791  0.78650417
   0.47384685  0.81131137  0.28801495
   0.54340871  0.35139697  0.18528917
   0.51025053  0.70720294  0.79447649
   0.49737337  0.50297810  0.49145108
   0.50393128  0.00521579  0.00356970
   0.00394969  0.49646285  0.99422332
   0.99741559  0.99864548  0.50619037
   0.11277225  0.87996468  0.64077724
   0.12895664  0.11343611  0.38519763
   0.86640277  0.88360866  0.38392997
   0.87358386  0.12007140  0.62839881
   0.86616857  0.62975332  0.08778858
   0.89733128  0.36011283  0.87112128
   0.13767713  0.60617458  0.87132548
   0.12023490  0.39164473  0.13820969
   0.62020272  0.11000194  0.85951883
   0.63763243  0.89554241  0.12650602
   0.39725306  0.14160899  0.12655349
   0.36613521  0.87195374  0.90997168
   0.61267179  0.62186915  0.35699771
   0.62901281  0.38814525  0.61231599
   0.36641997  0.61792394  0.61386853
   0.37354202  0.38164392  0.36919105
   0.74219289  0.74394706  0.74644347
   0.75931862  0.26457040  0.25358703
   0.24219914  0.75777067  0.25133541
   0.25935885  0.23718918  0.74402437
   0.99444692  0.01627122  0.02799780
   0.98072143  0.51957323  0.49694248
   0.48061758  0.98211328  0.50086687
   0.49452650  0.48537567  0.96963488
