  52  52   0   4
  0.1775939E+02  0.9738165E-09  0.9738165E-09  0.9738165E-09  0.2000000E-15
  1.000000000000000E-004
  CAR 
 unknown system                          
     12.32078019    -45.34381853  301      1.77296401      1.00000000
    -45.344  0.0000E+00  0.0000E+00  0.0000E+00  0.0000E+00
    -45.152  0.0000E+00  0.0000E+00  0.0000E+00  0.0000E+00
    -44.959  0.0000E+00  0.0000E+00  0.0000E+00  0.0000E+00
    -44.767  0.0000E+00  0.0000E+00  0.0000E+00  0.0000E+00
    -44.575  0.0000E+00  0.0000E+00  0.0000E+00  0.0000E+00
    -44.383  0.0000E+00  0.0000E+00  0.0000E+00  0.0000E+00
    -44.191  0.0000E+00  0.0000E+00  0.0000E+00  0.0000E+00
    -43.998  0.0000E+00  0.0000E+00  0.0000E+00  0.0000E+00
    -43.806  0.0000E+00  0.0000E+00  0.0000E+00  0.0000E+00
    -43.614  0.0000E+00  0.0000E+00  0.0000E+00  0.0000E+00
    -43.422  0.0000E+00  0.0000E+00  0.0000E+00  0.0000E+00
    -43.229  0.0000E+00  0.0000E+00  0.0000E+00  0.0000E+00
    -43.037  0.0000E+00  0.0000E+00  0.0000E+00  0.0000E+00
    -42.845  0.4689E-10  0.4689E-10  0.9013E-11  0.9013E-11
    -42.653  0.2622E-01  0.2622E-01  0.5040E-02  0.5040E-02
    -42.461  0.7508E-01  0.7508E-01  0.1948E-01  0.1948E-01
    -42.268  0.2351E-01  0.2351E-01  0.2400E-01  0.2400E-01
    -42.076  0.0000E+00  0.0000E+00  0.2400E-01  0.2400E-01
    -41.884  0.0000E+00  0.0000E+00  0.2400E-01  0.2400E-01
    -41.692  0.0000E+00  0.0000E+00  0.2400E-01  0.2400E-01
    -41.500  0.0000E+00  0.0000E+00  0.2400E-01  0.2400E-01
    -41.307  0.0000E+00  0.0000E+00  0.2400E-01  0.2400E-01
    -41.115  0.0000E+00  0.0000E+00  0.2400E-01  0.2400E-01
    -40.923  0.0000E+00  0.0000E+00  0.2400E-01  0.2400E-01
    -40.731  0.0000E+00  0.0000E+00  0.2400E-01  0.2400E-01
    -40.538  0.0000E+00  0.0000E+00  0.2400E-01  0.2400E-01
    -40.346  0.0000E+00  0.0000E+00  0.2400E-01  0.2400E-01
    -40.154  0.0000E+00  0.0000E+00  0.2400E-01  0.2400E-01
    -39.962  0.0000E+00  0.0000E+00  0.2400E-01  0.2400E-01
    -39.770  0.0000E+00  0.0000E+00  0.2400E-01  0.2400E-01
    -39.577  0.0000E+00  0.0000E+00  0.2400E-01  0.2400E-01
    -39.385  0.0000E+00  0.0000E+00  0.2400E-01  0.2400E-01
    -39.193  0.0000E+00  0.0000E+00  0.2400E-01  0.2400E-01
    -39.001  0.0000E+00  0.0000E+00  0.2400E-01  0.2400E-01
    -38.808  0.0000E+00  0.0000E+00  0.2400E-01  0.2400E-01
    -38.616  0.0000E+00  0.0000E+00  0.2400E-01  0.2400E-01
    -38.424  0.0000E+00  0.0000E+00  0.2400E-01  0.2400E-01
    -38.232  0.0000E+00  0.0000E+00  0.2400E-01  0.2400E-01
    -38.040  0.0000E+00  0.0000E+00  0.2400E-01  0.2400E-01
    -37.847  0.0000E+00  0.0000E+00  0.2400E-01  0.2400E-01
    -37.655  0.0000E+00  0.0000E+00  0.2400E-01  0.2400E-01
    -37.463  0.0000E+00  0.0000E+00  0.2400E-01  0.2400E-01
    -37.271  0.0000E+00  0.0000E+00  0.2400E-01  0.2400E-01
    -37.079  0.0000E+00  0.0000E+00  0.2400E-01  0.2400E-01
    -36.886  0.0000E+00  0.0000E+00  0.2400E-01  0.2400E-01
    -36.694  0.0000E+00  0.0000E+00  0.2400E-01  0.2400E-01
    -36.502  0.0000E+00  0.0000E+00  0.2400E-01  0.2400E-01
    -36.310  0.0000E+00  0.0000E+00  0.2400E-01  0.2400E-01
    -36.117  0.0000E+00  0.0000E+00  0.2400E-01  0.2400E-01
    -35.925  0.0000E+00  0.0000E+00  0.2400E-01  0.2400E-01
    -35.733  0.0000E+00  0.0000E+00  0.2400E-01  0.2400E-01
    -35.541  0.0000E+00  0.0000E+00  0.2400E-01  0.2400E-01
    -35.349  0.0000E+00  0.0000E+00  0.2400E-01  0.2400E-01
    -35.156  0.0000E+00  0.0000E+00  0.2400E-01  0.2400E-01
    -34.964  0.0000E+00  0.0000E+00  0.2400E-01  0.2400E-01
    -34.772  0.0000E+00  0.0000E+00  0.2400E-01  0.2400E-01
    -34.580  0.0000E+00  0.0000E+00  0.2400E-01  0.2400E-01
    -34.388  0.0000E+00  0.0000E+00  0.2400E-01  0.2400E-01
    -34.195  0.0000E+00  0.0000E+00  0.2400E-01  0.2400E-01
    -34.003  0.0000E+00  0.0000E+00  0.2400E-01  0.2400E-01
    -33.811  0.0000E+00  0.0000E+00  0.2400E-01  0.2400E-01
    -33.619  0.0000E+00  0.0000E+00  0.2400E-01  0.2400E-01
    -33.426  0.0000E+00  0.0000E+00  0.2400E-01  0.2400E-01
    -33.234  0.0000E+00  0.0000E+00  0.2400E-01  0.2400E-01
    -33.042  0.0000E+00  0.0000E+00  0.2400E-01  0.2400E-01
    -32.850  0.0000E+00  0.0000E+00  0.2400E-01  0.2400E-01
    -32.658  0.0000E+00  0.0000E+00  0.2400E-01  0.2400E-01
    -32.465  0.0000E+00  0.0000E+00  0.2400E-01  0.2400E-01
    -32.273  0.0000E+00  0.0000E+00  0.2400E-01  0.2400E-01
    -32.081  0.0000E+00  0.0000E+00  0.2400E-01  0.2400E-01
    -31.889  0.0000E+00  0.0000E+00  0.2400E-01  0.2400E-01
    -31.697  0.0000E+00  0.0000E+00  0.2400E-01  0.2400E-01
    -31.504  0.0000E+00  0.0000E+00  0.2400E-01  0.2400E-01
    -31.312  0.0000E+00  0.0000E+00  0.2400E-01  0.2400E-01
    -31.120  0.0000E+00  0.0000E+00  0.2400E-01  0.2400E-01
    -30.928  0.0000E+00  0.0000E+00  0.2400E-01  0.2400E-01
    -30.735  0.0000E+00  0.0000E+00  0.2400E-01  0.2400E-01
    -30.543  0.0000E+00  0.0000E+00  0.2400E-01  0.2400E-01
    -30.351  0.0000E+00  0.0000E+00  0.2400E-01  0.2400E-01
    -30.159  0.0000E+00  0.0000E+00  0.2400E-01  0.2400E-01
    -29.967  0.0000E+00  0.0000E+00  0.2400E-01  0.2400E-01
    -29.774  0.0000E+00  0.0000E+00  0.2400E-01  0.2400E-01
    -29.582  0.0000E+00  0.0000E+00  0.2400E-01  0.2400E-01
    -29.390  0.0000E+00  0.0000E+00  0.2400E-01  0.2400E-01
    -29.198  0.0000E+00  0.0000E+00  0.2400E-01  0.2400E-01
    -29.006  0.0000E+00  0.0000E+00  0.2400E-01  0.2400E-01
    -28.813  0.0000E+00  0.0000E+00  0.2400E-01  0.2400E-01
    -28.621  0.0000E+00  0.0000E+00  0.2400E-01  0.2400E-01
    -28.429  0.0000E+00  0.0000E+00  0.2400E-01  0.2400E-01
    -28.237  0.0000E+00  0.0000E+00  0.2400E-01  0.2400E-01
    -28.044  0.0000E+00  0.0000E+00  0.2400E-01  0.2400E-01
    -27.852  0.0000E+00  0.0000E+00  0.2400E-01  0.2400E-01
    -27.660  0.0000E+00  0.0000E+00  0.2400E-01  0.2400E-01
    -27.468  0.0000E+00  0.0000E+00  0.2400E-01  0.2400E-01
    -27.276  0.0000E+00  0.0000E+00  0.2400E-01  0.2400E-01
    -27.083  0.0000E+00  0.0000E+00  0.2400E-01  0.2400E-01
    -26.891  0.0000E+00  0.0000E+00  0.2400E-01  0.2400E-01
    -26.699  0.0000E+00  0.0000E+00  0.2400E-01  0.2400E-01
    -26.507  0.0000E+00  0.0000E+00  0.2400E-01  0.2400E-01
    -26.315  0.0000E+00  0.0000E+00  0.2400E-01  0.2400E-01
    -26.122  0.0000E+00  0.0000E+00  0.2400E-01  0.2400E-01
    -25.930  0.0000E+00  0.0000E+00  0.2400E-01  0.2400E-01
    -25.738  0.0000E+00  0.0000E+00  0.2400E-01  0.2400E-01
    -25.546  0.0000E+00  0.0000E+00  0.2400E-01  0.2400E-01
    -25.353  0.0000E+00  0.0000E+00  0.2400E-01  0.2400E-01
    -25.161  0.0000E+00  0.0000E+00  0.2400E-01  0.2400E-01
    -24.969  0.0000E+00  0.0000E+00  0.2400E-01  0.2400E-01
    -24.777  0.0000E+00  0.0000E+00  0.2400E-01  0.2400E-01
    -24.585  0.0000E+00  0.0000E+00  0.2400E-01  0.2400E-01
    -24.392  0.0000E+00  0.0000E+00  0.2400E-01  0.2400E-01
    -24.200  0.0000E+00  0.0000E+00  0.2400E-01  0.2400E-01
    -24.008  0.0000E+00  0.0000E+00  0.2400E-01  0.2400E-01
    -23.816  0.0000E+00  0.0000E+00  0.2400E-01  0.2400E-01
    -23.623  0.0000E+00  0.0000E+00  0.2400E-01  0.2400E-01
    -23.431  0.0000E+00  0.0000E+00  0.2400E-01  0.2400E-01
    -23.239  0.0000E+00  0.0000E+00  0.2400E-01  0.2400E-01
    -23.047  0.0000E+00  0.0000E+00  0.2400E-01  0.2400E-01
    -22.855  0.0000E+00  0.0000E+00  0.2400E-01  0.2400E-01
    -22.662  0.0000E+00  0.0000E+00  0.2400E-01  0.2400E-01
    -22.470  0.0000E+00  0.0000E+00  0.2400E-01  0.2400E-01
    -22.278  0.0000E+00  0.0000E+00  0.2400E-01  0.2400E-01
    -22.086  0.0000E+00  0.0000E+00  0.2400E-01  0.2400E-01
    -21.894  0.0000E+00  0.0000E+00  0.2400E-01  0.2400E-01
    -21.701  0.0000E+00  0.0000E+00  0.2400E-01  0.2400E-01
    -21.509  0.0000E+00  0.0000E+00  0.2400E-01  0.2400E-01
    -21.317  0.0000E+00  0.0000E+00  0.2400E-01  0.2400E-01
    -21.125  0.0000E+00  0.0000E+00  0.2400E-01  0.2400E-01
    -20.932  0.0000E+00  0.0000E+00  0.2400E-01  0.2400E-01
    -20.740  0.0000E+00  0.0000E+00  0.2400E-01  0.2400E-01
    -20.548  0.0000E+00  0.0000E+00  0.2400E-01  0.2400E-01
    -20.356  0.0000E+00  0.0000E+00  0.2400E-01  0.2400E-01
    -20.164  0.0000E+00  0.0000E+00  0.2400E-01  0.2400E-01
    -19.971  0.0000E+00  0.0000E+00  0.2400E-01  0.2400E-01
    -19.779  0.0000E+00  0.0000E+00  0.2400E-01  0.2400E-01
    -19.587  0.0000E+00  0.0000E+00  0.2400E-01  0.2400E-01
    -19.395  0.0000E+00  0.0000E+00  0.2400E-01  0.2400E-01
    -19.203  0.0000E+00  0.0000E+00  0.2400E-01  0.2400E-01
    -19.010  0.0000E+00  0.0000E+00  0.2400E-01  0.2400E-01
    -18.818  0.0000E+00  0.0000E+00  0.2400E-01  0.2400E-01
    -18.626  0.0000E+00  0.0000E+00  0.2400E-01  0.2400E-01
    -18.434  0.0000E+00  0.0000E+00  0.2400E-01  0.2400E-01
    -18.241  0.0000E+00  0.0000E+00  0.2400E-01  0.2400E-01
    -18.049  0.0000E+00  0.0000E+00  0.2400E-01  0.2400E-01
    -17.857  0.0000E+00  0.0000E+00  0.2400E-01  0.2400E-01
    -17.665  0.0000E+00  0.0000E+00  0.2400E-01  0.2400E-01
    -17.473  0.0000E+00  0.0000E+00  0.2400E-01  0.2400E-01
    -17.280  0.0000E+00  0.0000E+00  0.2400E-01  0.2400E-01
    -17.088  0.0000E+00  0.0000E+00  0.2400E-01  0.2400E-01
    -16.896  0.0000E+00  0.0000E+00  0.2400E-01  0.2400E-01
    -16.704  0.0000E+00  0.0000E+00  0.2400E-01  0.2400E-01
    -16.512  0.0000E+00  0.0000E+00  0.2400E-01  0.2400E-01
    -16.319  0.0000E+00  0.0000E+00  0.2400E-01  0.2400E-01
    -16.127  0.0000E+00  0.0000E+00  0.2400E-01  0.2400E-01
    -15.935  0.0000E+00  0.0000E+00  0.2400E-01  0.2400E-01
    -15.743  0.0000E+00  0.0000E+00  0.2400E-01  0.2400E-01
    -15.550  0.0000E+00  0.0000E+00  0.2400E-01  0.2400E-01
    -15.358  0.0000E+00  0.0000E+00  0.2400E-01  0.2400E-01
    -15.166  0.0000E+00  0.0000E+00  0.2400E-01  0.2400E-01
    -14.974  0.0000E+00  0.0000E+00  0.2400E-01  0.2400E-01
    -14.782  0.0000E+00  0.0000E+00  0.2400E-01  0.2400E-01
    -14.589  0.0000E+00  0.0000E+00  0.2400E-01  0.2400E-01
    -14.397  0.0000E+00  0.0000E+00  0.2400E-01  0.2400E-01
    -14.205  0.0000E+00  0.0000E+00  0.2400E-01  0.2400E-01
    -14.013  0.0000E+00  0.0000E+00  0.2400E-01  0.2400E-01
    -13.821  0.0000E+00  0.0000E+00  0.2400E-01  0.2400E-01
    -13.628  0.0000E+00  0.0000E+00  0.2400E-01  0.2400E-01
    -13.436  0.0000E+00  0.0000E+00  0.2400E-01  0.2400E-01
    -13.244  0.1392E-02  0.1392E-02  0.2427E-01  0.2427E-01
    -13.052  0.1942E-01  0.1942E-01  0.2800E-01  0.2800E-01
    -12.859  0.9992E-16  0.9992E-16  0.2800E-01  0.2800E-01
    -12.667  0.4851E-02  0.4851E-02  0.2893E-01  0.2893E-01
    -12.475  0.1594E-01  0.1594E-01  0.3200E-01  0.3200E-01
    -12.283  0.0000E+00  0.0000E+00  0.3200E-01  0.3200E-01
    -12.091  0.0000E+00  0.0000E+00  0.3200E-01  0.3200E-01
    -11.898  0.0000E+00  0.0000E+00  0.3200E-01  0.3200E-01
    -11.706  0.0000E+00  0.0000E+00  0.3200E-01  0.3200E-01
    -11.514  0.0000E+00  0.0000E+00  0.3200E-01  0.3200E-01
    -11.322  0.0000E+00  0.0000E+00  0.3200E-01  0.3200E-01
    -11.129  0.0000E+00  0.0000E+00  0.3200E-01  0.3200E-01
    -10.937  0.0000E+00  0.0000E+00  0.3200E-01  0.3200E-01
    -10.745  0.0000E+00  0.0000E+00  0.3200E-01  0.3200E-01
    -10.553  0.1264E-04  0.1264E-04  0.3200E-01  0.3200E-01
    -10.361  0.1594E-01  0.1594E-01  0.3507E-01  0.3507E-01
    -10.168  0.2617E-01  0.2617E-01  0.4010E-01  0.4010E-01
     -9.976  0.2026E-01  0.2026E-01  0.4400E-01  0.4400E-01
     -9.784  0.0000E+00  0.0000E+00  0.4400E-01  0.4400E-01
     -9.592  0.0000E+00  0.0000E+00  0.4400E-01  0.4400E-01
     -9.400  0.0000E+00  0.0000E+00  0.4400E-01  0.4400E-01
     -9.207  0.0000E+00  0.0000E+00  0.4400E-01  0.4400E-01
     -9.015  0.0000E+00  0.0000E+00  0.4400E-01  0.4400E-01
     -8.823  0.6134E-08  0.6133E-08  0.4400E-01  0.4400E-01
     -8.631  0.5202E-02  0.5202E-02  0.4500E-01  0.4500E-01
     -8.438  0.1433E-01  0.1433E-01  0.4775E-01  0.4775E-01
     -8.246  0.1275E-02  0.1275E-02  0.4800E-01  0.4800E-01
     -8.054  0.0000E+00  0.0000E+00  0.4800E-01  0.4800E-01
     -7.862  0.0000E+00  0.0000E+00  0.4800E-01  0.4800E-01
     -7.670  0.0000E+00  0.0000E+00  0.4800E-01  0.4800E-01
     -7.477  0.0000E+00  0.0000E+00  0.4800E-01  0.4800E-01
     -7.285  0.0000E+00  0.0000E+00  0.4800E-01  0.4800E-01
     -7.093  0.0000E+00  0.0000E+00  0.4800E-01  0.4800E-01
     -6.901  0.0000E+00  0.0000E+00  0.4800E-01  0.4800E-01
     -6.709  0.0000E+00  0.0000E+00  0.4800E-01  0.4800E-01
     -6.516  0.0000E+00  0.0000E+00  0.4800E-01  0.4800E-01
     -6.324  0.2587E-02  0.2587E-02  0.4850E-01  0.4850E-01
     -6.132  0.2615E-02  0.2615E-02  0.4900E-01  0.4900E-01
     -5.940  0.2888E-02  0.2888E-02  0.4956E-01  0.4956E-01
     -5.747  0.1271E-01  0.1271E-01  0.5200E-01  0.5200E-01
     -5.555  0.0000E+00  0.0000E+00  0.5200E-01  0.5200E-01
     -5.363  0.0000E+00  0.0000E+00  0.5200E-01  0.5200E-01
     -5.171  0.0000E+00  0.0000E+00  0.5200E-01  0.5200E-01
     -4.979  0.0000E+00  0.0000E+00  0.5200E-01  0.5200E-01
     -4.786  0.0000E+00  0.0000E+00  0.5200E-01  0.5200E-01
     -4.594  0.0000E+00  0.0000E+00  0.5200E-01  0.5200E-01
     -4.402  0.0000E+00  0.0000E+00  0.5200E-01  0.5200E-01
     -4.210  0.0000E+00  0.0000E+00  0.5200E-01  0.5200E-01
     -4.018  0.0000E+00  0.0000E+00  0.5200E-01  0.5200E-01
     -3.825  0.0000E+00  0.0000E+00  0.5200E-01  0.5200E-01
     -3.633  0.0000E+00  0.0000E+00  0.5200E-01  0.5200E-01
     -3.441  0.1497E-02  0.1497E-02  0.5229E-01  0.5229E-01
     -3.249  0.1411E-01  0.1411E-01  0.5500E-01  0.5500E-01
     -3.056  0.2400E-02  0.2400E-02  0.5546E-01  0.5546E-01
     -2.864  0.1074E-01  0.1074E-01  0.5753E-01  0.5753E-01
     -2.672  0.1420E-01  0.1420E-01  0.6026E-01  0.6026E-01
     -2.480  0.1629E-01  0.1629E-01  0.6339E-01  0.6339E-01
     -2.288  0.3181E-02  0.3181E-02  0.6400E-01  0.6400E-01
     -2.095  0.0000E+00  0.0000E+00  0.6400E-01  0.6400E-01
     -1.903  0.0000E+00  0.0000E+00  0.6400E-01  0.6400E-01
     -1.711  0.3960E-03  0.3960E-03  0.6408E-01  0.6408E-01
     -1.519  0.1496E-01  0.1496E-01  0.6695E-01  0.6695E-01
     -1.327  0.1813E-01  0.1813E-01  0.7044E-01  0.7044E-01
     -1.134  0.1804E-01  0.1804E-01  0.7391E-01  0.7391E-01
     -0.942  0.1056E-01  0.1056E-01  0.7594E-01  0.7594E-01
     -0.750  0.5942E-03  0.5942E-03  0.7606E-01  0.7606E-01
     -0.558  0.1533E-01  0.1533E-01  0.7900E-01  0.7900E-01
     -0.365  0.1067E-01  0.1067E-01  0.8105E-01  0.8105E-01
     -0.173  0.2512E-01  0.2512E-01  0.8588E-01  0.8588E-01
      0.019  0.2611E-01  0.2611E-01  0.9090E-01  0.9090E-01
      0.211  0.1850E-01  0.1850E-01  0.9446E-01  0.9446E-01
      0.403  0.7999E-02  0.7999E-02  0.9600E-01  0.9600E-01
      0.596  0.6734E-02  0.6734E-02  0.9729E-01  0.9729E-01
      0.788  0.2332E-01  0.2332E-01  0.1018E+00  0.1018E+00
      0.980  0.2432E-01  0.2432E-01  0.1065E+00  0.1065E+00
      1.172  0.2801E-01  0.2801E-01  0.1118E+00  0.1118E+00
      1.365  0.2790E-01  0.2790E-01  0.1172E+00  0.1172E+00
      1.557  0.1452E-01  0.1452E-01  0.1200E+00  0.1200E+00
      1.749  0.0000E+00  0.0000E+00  0.1200E+00  0.1200E+00
      1.941  0.0000E+00  0.0000E+00  0.1200E+00  0.1200E+00
      2.133  0.0000E+00  0.0000E+00  0.1200E+00  0.1200E+00
      2.326  0.0000E+00  0.0000E+00  0.1200E+00  0.1200E+00
      2.518  0.0000E+00  0.0000E+00  0.1200E+00  0.1200E+00
      2.710  0.0000E+00  0.0000E+00  0.1200E+00  0.1200E+00
      2.902  0.0000E+00  0.0000E+00  0.1200E+00  0.1200E+00
      3.094  0.0000E+00  0.0000E+00  0.1200E+00  0.1200E+00
      3.287  0.0000E+00  0.0000E+00  0.1200E+00  0.1200E+00
      3.479  0.0000E+00  0.0000E+00  0.1200E+00  0.1200E+00
      3.671  0.0000E+00  0.0000E+00  0.1200E+00  0.1200E+00
      3.863  0.0000E+00  0.0000E+00  0.1200E+00  0.1200E+00
      4.056  0.7982E-12  0.7982E-12  0.1200E+00  0.1200E+00
      4.248  0.5051E-02  0.5051E-02  0.1210E+00  0.1210E+00
      4.440  0.1239E-03  0.1239E-03  0.1210E+00  0.1210E+00
      4.632  0.0000E+00  0.0000E+00  0.1210E+00  0.1210E+00
      4.824  0.2022E-17  0.2022E-17  0.1210E+00  0.1210E+00
      5.017  0.4372E-02  0.4372E-02  0.1218E+00  0.1218E+00
      5.209  0.1115E-01  0.1115E-01  0.1240E+00  0.1240E+00
      5.401  0.6345E-04  0.6345E-04  0.1240E+00  0.1240E+00
      5.593  0.6890E-05  0.6890E-05  0.1240E+00  0.1240E+00
      5.785  0.1024E-01  0.1024E-01  0.1260E+00  0.1260E+00
      5.978  0.1434E-01  0.1434E-01  0.1287E+00  0.1287E+00
      6.170  0.6629E-02  0.6629E-02  0.1300E+00  0.1300E+00
      6.362  0.9092E-02  0.9092E-02  0.1317E+00  0.1317E+00
      6.554  0.8963E-02  0.8963E-02  0.1335E+00  0.1335E+00
      6.747  0.1310E-01  0.1310E-01  0.1360E+00  0.1360E+00
      6.939  0.4926E-02  0.4926E-02  0.1369E+00  0.1369E+00
      7.131  0.4531E-03  0.4531E-03  0.1370E+00  0.1370E+00
      7.323  0.1125E-01  0.1125E-01  0.1392E+00  0.1392E+00
      7.515  0.1096E-01  0.1096E-01  0.1413E+00  0.1413E+00
      7.708  0.1366E-01  0.1366E-01  0.1439E+00  0.1439E+00
      7.900  0.8438E-02  0.8438E-02  0.1456E+00  0.1456E+00
      8.092  0.1745E-01  0.1745E-01  0.1489E+00  0.1489E+00
      8.284  0.1515E-01  0.1515E-01  0.1518E+00  0.1518E+00
      8.476  0.1137E-01  0.1137E-01  0.1540E+00  0.1540E+00
      8.669  0.1805E-01  0.1805E-01  0.1575E+00  0.1575E+00
      8.861  0.1745E-01  0.1745E-01  0.1608E+00  0.1608E+00
      9.053  0.1899E-01  0.1899E-01  0.1645E+00  0.1645E+00
      9.245  0.1977E-01  0.1976E-01  0.1683E+00  0.1683E+00
      9.438  0.1801E-01  0.1779E-01  0.1718E+00  0.1717E+00
      9.630  0.1783E-01  0.1641E-01  0.1752E+00  0.1749E+00
      9.822  0.4259E-02  0.5913E-02  0.1760E+00  0.1760E+00
     10.014  0.0000E+00  0.0000E+00  0.1760E+00  0.1760E+00
     10.206  0.0000E+00  0.0000E+00  0.1760E+00  0.1760E+00
     10.399  0.0000E+00  0.0000E+00  0.1760E+00  0.1760E+00
     10.591  0.0000E+00  0.0000E+00  0.1760E+00  0.1760E+00
     10.783  0.0000E+00  0.0000E+00  0.1760E+00  0.1760E+00
     10.975  0.0000E+00  0.0000E+00  0.1760E+00  0.1760E+00
     11.167  0.0000E+00  0.0000E+00  0.1760E+00  0.1760E+00
     11.360  0.0000E+00  0.0000E+00  0.1760E+00  0.1760E+00
     11.552  0.0000E+00  0.0000E+00  0.1760E+00  0.1760E+00
     11.744  0.0000E+00  0.0000E+00  0.1760E+00  0.1760E+00
     11.936  0.0000E+00  0.0000E+00  0.1760E+00  0.1760E+00
     12.129  0.0000E+00  0.0000E+00  0.1760E+00  0.1760E+00
     12.321  0.0000E+00  0.0000E+00  0.1760E+00  0.1760E+00
