       N       E                     dE             d eps       ncg     rms          rms(c)
DAV:   1     0.159870128122E+04    0.15987E+04   -0.11305E+05  2320   0.125E+03
DAV:   2    -0.533064068839E+02   -0.16520E+04   -0.15508E+04  2896   0.360E+02
DAV:   3    -0.229081615843E+03   -0.17578E+03   -0.17369E+03  2808   0.118E+02
DAV:   4    -0.242451615731E+03   -0.13370E+02   -0.13345E+02  3552   0.332E+01
DAV:   5    -0.242713817991E+03   -0.26220E+00   -0.26209E+00  3360   0.466E+00
DAV:   6    -0.242723912308E+03   -0.10094E-01   -0.10093E-01  3472   0.108E+00
DAV:   7    -0.242724291377E+03   -0.37907E-03   -0.37904E-03  3416   0.210E-01
DAV:   8    -0.242724313815E+03   -0.22437E-04   -0.22436E-04  3448   0.612E-02
DAV:   9    -0.242724315260E+03   -0.14459E-05   -0.14463E-05  3360   0.134E-02
DAV:  10    -0.242724315322E+03   -0.61236E-07   -0.61174E-07  1976   0.423E-03    0.649E+01
RMM:  11    -0.234455932206E+03    0.82684E+01   -0.50907E+01  2112   0.198E+01    0.332E+01
RMM:  12    -0.255916773395E+03   -0.21461E+02   -0.25232E+01  2221   0.140E+01    0.205E+01
RMM:  13    -0.258337063106E+03   -0.24203E+01   -0.92832E+00  2170   0.548E+00    0.710E+00
RMM:  14    -0.258564659628E+03   -0.22760E+00   -0.22287E+00  2809   0.344E+00    0.333E+00
RMM:  15    -0.258524521901E+03    0.40138E-01   -0.36428E-01  2270   0.170E+00    0.706E-01
RMM:  16    -0.258546248812E+03   -0.21727E-01   -0.12406E-01  2329   0.954E-01    0.316E-01
RMM:  17    -0.258552985266E+03   -0.67365E-02   -0.29960E-02  2579   0.488E-01    0.180E-01
RMM:  18    -0.258554438774E+03   -0.14535E-02   -0.78256E-03  2598   0.221E-01    0.959E-02
RMM:  19    -0.258555034819E+03   -0.59604E-03   -0.20642E-03  2880   0.113E-01    0.478E-02
RMM:  20    -0.258555153633E+03   -0.11881E-03   -0.54617E-04  2836   0.525E-02    0.255E-02
RMM:  21    -0.258555178090E+03   -0.24456E-04   -0.17095E-04  2563   0.296E-02    0.102E-02
RMM:  22    -0.258555186087E+03   -0.79974E-05   -0.57432E-05  2829   0.162E-02    0.614E-03
RMM:  23    -0.258555185798E+03    0.28942E-06   -0.14999E-05  2257   0.870E-03    0.280E-03
RMM:  24    -0.258555185302E+03    0.49600E-06   -0.53904E-06  1731   0.626E-03
   1 F= -.27177677E+03 E0= -.27177677E+03  d E =-.271777E+03  mag=    -0.0006
       N       E                     dE             d eps       ncg     rms          rms(c)
DAV:   1    -0.258555185463E+03    0.33486E-06   -0.57923E-05  2528   0.142E-02    0.186E-03
RMM:   2    -0.258555185691E+03   -0.22783E-06   -0.25645E-06  1469   0.563E-03
   2 F= -.27177677E+03 E0= -.27177677E+03  d E =-.190997E-05  mag=    -0.0001
       N       E                     dE             d eps       ncg     rms          rms(c)
DAV:   1    -0.258555185439E+03    0.23723E-07   -0.10441E-05  2320   0.670E-03    0.773E-04
RMM:   2    -0.258555185448E+03   -0.91422E-08   -0.69828E-07  1395   0.332E-03
   3 F= -.27177677E+03 E0= -.27177677E+03  d E =-.224389E-05  mag=    -0.0000
       N       E                     dE             d eps       ncg     rms          rms(c)
DAV:   1    -0.258555184557E+03    0.88226E-06   -0.32693E-05  2584   0.104E-02    0.879E-04
RMM:   2    -0.258555184602E+03   -0.45660E-07   -0.13998E-06  1348   0.440E-03
   4 F= -.27177677E+03 E0= -.27177677E+03  d E =-.255069E-05  mag=    -0.0000
       N       E                     dE             d eps       ncg     rms          rms(c)
DAV:   1    -0.258555184370E+03    0.18692E-06   -0.23998E-06  2008   0.392E-03    0.376E-04
RMM:   2    -0.258555184390E+03   -0.20298E-07   -0.37334E-07  1228   0.289E-03
   5 F= -.27177677E+03 E0= -.27177677E+03  d E =-.262065E-05  mag=    -0.0000
       N       E                     dE             d eps       ncg     rms          rms(c)
DAV:   1    -0.258555183447E+03    0.92277E-06   -0.13234E-04  2392   0.163E-02    0.103E-03
RMM:   2    -0.258555183710E+03   -0.26295E-06   -0.32705E-06  1406   0.546E-03
   6 F= -.27177677E+03 E0= -.27177677E+03  d E =-.988641E-06  mag=    -0.0000
