 vasp.6.4.1 05Apr23 (build Jun 07 2023 15:38:11) complex                        
  
 executed on             LinuxIFC date 2023.10.16  22:18:03
 running  128 mpi-ranks, with    1 threads/rank, on    1 nodes
 distrk:  each k-point on  128 cores,    1 groups
 distr:  one band on NCORE=  32 cores,    4 groups


--------------------------------------------------------------------------------------------------------


 INCAR:
   GGA = PE
   PREC = Accu
   EDIFF = 1.e-6
   EDIFFG = -1.e-3
   ENCUT = 520.
   NELM = 100
   NELMDL = -10
   LASPH = .TRUE.
   LREAL = Auto
   LMAXMIX = 4
   ISPIN = 2
   LDIAG = .TRUE.
   LPLANE = .TRUE.
   IVDW = 12
   SIGMA = 0.03
   ISMEAR = 0
   NSW = 1000    number of steps for IOM
   IBRION = 2    ionic relax: 0-MD 1-quasi-New 2-CG
   ISIF = 2    ionic relaxation + stress tensor calcn.
   LCHARG = .FALSE.
   LWAVE = .FALSE.
   ALGO = F
   KPAR = 1
   NPAR = 4
   POTIM = 0.2

 POTCAR:    PAW_PBE Li_sv_GW 25Mar2010            
 POTCAR:    PAW_PBE P_GW 19Mar2012                
 POTCAR:    PAW_PBE S_GW 19Mar2012                
 POTCAR:    PAW_PBE Cl_GW 19Mar2012               
 -----------------------------------------------------------------------------
|                                                                             |
|           W    W    AA    RRRRR   N    N  II  N    N   GGGG   !!!           |
|           W    W   A  A   R    R  NN   N  II  NN   N  G    G  !!!           |
|           W    W  A    A  R    R  N N  N  II  N N  N  G       !!!           |
|           W WW W  AAAAAA  RRRRR   N  N N  II  N  N N  G  GGG   !            |
|           WW  WW  A    A  R   R   N   NN  II  N   NN  G    G                |
|           W    W  A    A  R    R  N    N  II  N    N   GGGG   !!!           |
|                                                                             |
|     You use a magnetic or noncollinear calculation, but did not specify     |
|     the initial magnetic moment with the MAGMOM tag. Note that a            |
|     default of 1 will be used for all atoms. This ferromagnetic setup       |
|     may break the symmetry of the crystal, in particular it may rule        |
|     out finding an antiferromagnetic solution. Thence, we recommend         |
|     setting the initial magnetic moment manually or verifying carefully     |
|     that this magnetic setup is desired.                                    |
|                                                                             |
 -----------------------------------------------------------------------------

 POTCAR:    PAW_PBE Li_sv_GW 25Mar2010            
   SHA256 =  24a6ace15a582615486b36ce4dc781b048409f4015b7684ed1273ae395fa2fdc Li_sv_GW/POTCAR       
   COPYR  = (c) Copyright 25Mar2010 Georg Kresse                                                    
   COPYR  = This file is part of the software VASP. Any use, copying, and all other rights are regul
   COPYR  = If you do not have a valid VASP license, you may not use, copy or distribute this file. 
   VRHFIN =Li: 1s2s                                                                                 
   LEXCH  = PE                                                                                      
   EATOM  =   200.9989 eV,   14.7730 Ry                                                             
                                                                                                    
   TITEL  = PAW_PBE Li_sv_GW 25Mar2010                                                              
   LULTRA =        F    use ultrasoft PP ?                                                          
   IUNSCR =        0    unscreen: 0-lin 1-nonlin 2-no                                               
   RPACOR =    0.000    partial core radius                                                         
   POMASS =    7.010; ZVAL   =    3.000    mass and valenz                                          
   RCORE  =    1.500    outmost cutoff radius                                                       
   RWIGS  =    1.600; RWIGS  =    0.847    wigner-seitz radius (au A)                               
   ENMAX  =  433.699; ENMIN  =  325.274 eV                                                          
   RCLOC  =    1.003    cutoff for local pot                                                        
   LCOR   =        T    correct aug charges                                                         
   LPAW   =        T    paw PP                                                                      
   EAUG   = 1041.699                                                                                
   RMAX   =    1.536    core radius for proj-oper                                                   
   RAUG   =    1.300    factor for augmentation sphere                                              
   RDEP   =    1.520    radius for radial grids                                                     
   RDEPT  =    1.300    core radius for aug-charge                                                  
                                                                                                    
   Atomic configuration                                                                             
    4 entries                                                                                       
     n  l   j            E        occ.                                                              
     1  0  0.50       -53.3604   2.0000                                                             
     1  0  0.50       -52.0001   0.0000                                                             
     2  1  0.50        -1.5636   1.0000                                                             
     3  2  1.50        -1.3606   0.0000                                                             
   Description                                                                                      
     l       E           TYP  RCUT    TYP  RCUT                                                     
     0    -53.3603633     23  1.200                                                                 
     0    -52.0001064     23  1.200                                                                 
     0    176.8757380     23  1.300                                                                 
     1     -1.5635925     23  1.500                                                                 
     1    108.8466080     23  1.500                                                                 
     2     81.6349560     23  1.500                                                                 
  local pseudopotential read in
  kinetic energy density of atom read in
  atomic valenz-charges read in
  non local Contribution for L=           0  read in
    real space projection operators read in
  non local Contribution for L=           0  read in
    real space projection operators read in
  non local Contribution for L=           0  read in
    real space projection operators read in
  non local Contribution for L=           1  read in
    real space projection operators read in
  non local Contribution for L=           1  read in
    real space projection operators read in
  non local Contribution for L=           2  read in
    real space projection operators read in
    PAW grid and wavefunctions read in
 
   number of l-projection  operators is LMAX  =           6
   number of lm-projection operators is LMMAX =          14
 
 POTCAR:    PAW_PBE P_GW 19Mar2012                
   SHA256 =  715c28f2291d37b61637ce89646c59f66f71c8b8d8bfba631e5feb9f7b42defe P_GW/POTCAR           
   COPYR  = (c) Copyright 19Mar2012 Georg Kresse                                                    
   COPYR  = This file is part of the software VASP. Any use, copying, and all other rights are regul
   COPYR  = If you do not have a valid VASP license, you may not use, copy or distribute this file. 
   VRHFIN =P : s2p3                                                                                 
   LEXCH  = PE                                                                                      
   EATOM  =   176.0430 eV,   12.9388 Ry                                                             
                                                                                                    
   TITEL  = PAW_PBE P_GW 19Mar2012                                                                  
   LULTRA =        F    use ultrasoft PP ?                                                          
   IUNSCR =        1    unscreen: 0-lin 1-nonlin 2-no                                               
   RPACOR =    1.400    partial core radius                                                         
   POMASS =   30.974; ZVAL   =    5.000    mass and valenz                                          
   RCORE  =    2.000    outmost cutoff radius                                                       
   RWIGS  =    1.900; RWIGS  =    1.005    wigner-seitz radius (au A)                               
   ENMAX  =  255.040; ENMIN  =  191.280 eV                                                          
   ICORE  =        3    local potential                                                             
   LCOR   =        T    correct aug charges                                                         
   LPAW   =        T    paw PP                                                                      
   EAUG   =  499.732                                                                                
   DEXC   =    0.000                                                                                
   RMAX   =    2.047    core radius for proj-oper                                                   
   RAUG   =    1.300    factor for augmentation sphere                                              
   RDEP   =    2.059    radius for radial grids                                                     
   RDEPT  =    1.900    core radius for aug-charge                                                  
                                                                                                    
   Atomic configuration                                                                             
    7 entries                                                                                       
     n  l   j            E        occ.                                                              
     1  0  0.50     -2084.0982   2.0000                                                             
     2  0  0.50      -173.9859   2.0000                                                             
     2  1  1.50      -124.4865   6.0000                                                             
     3  0  0.50       -13.9692   2.0000                                                             
     3  1  0.50        -5.5067   3.0000                                                             
     3  2  1.50        -6.8029   0.0000                                                             
     4  3  2.50        -1.3606   0.0000                                                             
   Description                                                                                      
     l       E           TYP  RCUT    TYP  RCUT                                                     
     0    -13.9691528     23  1.900                                                                 
     0    102.0436950     23  1.900                                                                 
     1     -5.5066939     23  1.900                                                                 
     1    102.0436950     23  1.900                                                                 
     2     -8.1634956     23  2.000                                                                 
     2     81.6349560     23  2.000                                                                 
     3     27.2116520     23  2.000                                                                 
  local pseudopotential read in
  partial core-charges read in
  partial kinetic energy density read in
  kinetic energy density of atom read in
  atomic valenz-charges read in
  non local Contribution for L=           0  read in
    real space projection operators read in
  non local Contribution for L=           0  read in
    real space projection operators read in
  non local Contribution for L=           1  read in
    real space projection operators read in
  non local Contribution for L=           1  read in
    real space projection operators read in
  non local Contribution for L=           2  read in
    real space projection operators read in
  non local Contribution for L=           2  read in
    real space projection operators read in
    PAW grid and wavefunctions read in
 
   number of l-projection  operators is LMAX  =           6
   number of lm-projection operators is LMMAX =          18
 
 POTCAR:    PAW_PBE S_GW 19Mar2012                
   SHA256 =  357db9cfb0783579b2eebe03197c2d807131fea8ea663b1fcfb6ce2fa75af011 S_GW/POTCAR           
   COPYR  = (c) Copyright 19Mar2012 Georg Kresse                                                    
   COPYR  = This file is part of the software VASP. Any use, copying, and all other rights are regul
   COPYR  = If you do not have a valid VASP license, you may not use, copy or distribute this file. 
   VRHFIN =S : s2p4                                                                                 
   LEXCH  = PE                                                                                      
   EATOM  =   276.8230 eV,   20.3459 Ry                                                             
                                                                                                    
   TITEL  = PAW_PBE S_GW 19Mar2012                                                                  
   LULTRA =        F    use ultrasoft PP ?                                                          
   IUNSCR =        1    unscreen: 0-lin 1-nonlin 2-no                                               
   RPACOR =    1.400    partial core radius                                                         
   POMASS =   32.066; ZVAL   =    6.000    mass and valenz                                          
   RCORE  =    1.900    outmost cutoff radius                                                       
   RWIGS  =    1.900; RWIGS  =    1.005    wigner-seitz radius (au A)                               
   ENMAX  =  258.689; ENMIN  =  194.016 eV                                                          
   ICORE  =        3    local potential                                                             
   LCOR   =        T    correct aug charges                                                         
   LPAW   =        T    paw PP                                                                      
   EAUG   =  488.319                                                                                
   DEXC   =    0.000                                                                                
   RMAX   =    1.942    core radius for proj-oper                                                   
   RAUG   =    1.300    factor for augmentation sphere                                              
   RDEP   =    1.954    radius for radial grids                                                     
   RDEPT  =    1.900    core radius for aug-charge                                                  
                                                                                                    
   Atomic configuration                                                                             
    7 entries                                                                                       
     n  l   j            E        occ.                                                              
     1  0  0.50     -2405.8406   2.0000                                                             
     2  0  0.50      -211.7007   2.0000                                                             
     2  1  1.50      -156.4958   6.0000                                                             
     3  0  0.50       -17.2562   2.0000                                                             
     3  1  0.50        -7.0085   4.0000                                                             
     3  2  1.50        -8.1635   0.0000                                                             
     4  3  2.50        -1.3606   0.0000                                                             
   Description                                                                                      
     l       E           TYP  RCUT    TYP  RCUT                                                     
     0    -17.2561639     23  1.700                                                                 
     0     88.4378690     23  1.900                                                                 
     1     -7.0085399     23  1.900                                                                 
     1     88.4378690     23  1.900                                                                 
     2    -10.8846608     23  1.900                                                                 
     2     54.4233040     23  1.900                                                                 
     3     27.2116520     23  1.800                                                                 
  local pseudopotential read in
  partial core-charges read in
  partial kinetic energy density read in
  kinetic energy density of atom read in
  atomic valenz-charges read in
  non local Contribution for L=           0  read in
    real space projection operators read in
  non local Contribution for L=           0  read in
    real space projection operators read in
  non local Contribution for L=           1  read in
    real space projection operators read in
  non local Contribution for L=           1  read in
    real space projection operators read in
  non local Contribution for L=           2  read in
    real space projection operators read in
  non local Contribution for L=           2  read in
    real space projection operators read in
    PAW grid and wavefunctions read in
 
   number of l-projection  operators is LMAX  =           6
   number of lm-projection operators is LMMAX =          18
 
 POTCAR:    PAW_PBE Cl_GW 19Mar2012               
   SHA256 =  3ef3b3169d6a9a89979f58b4cf17d927a58518fc660d8883d88cacaee8175441 Cl_GW/POTCAR          
   COPYR  = (c) Copyright 19Mar2012 Georg Kresse                                                    
   COPYR  = This file is part of the software VASP. Any use, copying, and all other rights are regul
   COPYR  = If you do not have a valid VASP license, you may not use, copy or distribute this file. 
   VRHFIN =Cl: s2p5                                                                                 
   LEXCH  = PE                                                                                      
   EATOM  =   409.7259 eV,   30.1140 Ry                                                             
                                                                                                    
   TITEL  = PAW_PBE Cl_GW 19Mar2012                                                                 
   LULTRA =        F    use ultrasoft PP ?                                                          
   IUNSCR =        1    unscreen: 0-lin 1-nonlin 2-no                                               
   RPACOR =    1.400    partial core radius                                                         
   POMASS =   35.453; ZVAL   =    7.000    mass and valenz                                          
   RCORE  =    1.900    outmost cutoff radius                                                       
   RWIGS  =    1.900; RWIGS  =    1.005    wigner-seitz radius (au A)                               
   ENMAX  =  262.472; ENMIN  =  196.854 eV                                                          
   ICORE  =        3    local potential                                                             
   LCOR   =        T    correct aug charges                                                         
   LPAW   =        T    paw PP                                                                      
   EAUG   =  456.703                                                                                
   DEXC   =    0.000                                                                                
   RMAX   =    1.945    core radius for proj-oper                                                   
   RAUG   =    1.300    factor for augmentation sphere                                              
   RDEP   =    2.020    radius for radial grids                                                     
   RDEPT  =    1.900    core radius for aug-charge                                                  
                                                                                                    
   Atomic configuration                                                                             
    7 entries                                                                                       
     n  l   j            E        occ.                                                              
     1  0  0.50     -2751.1850   2.0000                                                             
     2  0  0.50      -252.6861   2.0000                                                             
     2  1  1.50      -191.6157   6.0000                                                             
     3  0  0.50       -20.6916   2.0000                                                             
     3  1  0.50        -8.5949   5.0000                                                             
     3  2  1.50        -9.5241   0.0000                                                             
     4  3  2.50        -9.5241   0.0000                                                             
   Description                                                                                      
     l       E           TYP  RCUT    TYP  RCUT                                                     
     0    -20.6915657     23  1.700                                                                 
     0     95.2407820     23  1.800                                                                 
     1     -8.5948577     23  1.900                                                                 
     1     95.2407820     23  1.900                                                                 
     2    -10.8846608     23  1.900                                                                 
     2     54.4233040     23  1.900                                                                 
     3     27.2116520     23  1.900                                                                 
  local pseudopotential read in
  partial core-charges read in
  partial kinetic energy density read in
  kinetic energy density of atom read in
  atomic valenz-charges read in
  non local Contribution for L=           0  read in
    real space projection operators read in
  non local Contribution for L=           0  read in
    real space projection operators read in
  non local Contribution for L=           1  read in
    real space projection operators read in
  non local Contribution for L=           1  read in
    real space projection operators read in
  non local Contribution for L=           2  read in
    real space projection operators read in
  non local Contribution for L=           2  read in
    real space projection operators read in
    PAW grid and wavefunctions read in
 
   number of l-projection  operators is LMAX  =           6
   number of lm-projection operators is LMMAX =          18
 
 Optimization of the real space projectors (new method)

 maximal supplied QI-value         = 25.13
 optimisation between [QCUT,QGAM] = [ 11.56, 23.12] = [ 37.43,149.72] Ry 
 Optimized for a Real-space Cutoff    1.28 Angstroem

   l    n(q)    QCUT    max X(q) W(low)/X(q) W(high)/X(q)  e(spline) 
   0      9    11.561    87.733    0.11E-03    0.32E-04    0.56E-06
   0      9    11.561    82.800    0.11E-03    0.35E-04    0.56E-06
   0      9    11.561     2.509    0.22E-03    0.42E-04    0.79E-06
   1      8    11.561    12.580    0.94E-04    0.26E-03    0.21E-06
   1      8    11.561     1.319    0.33E-04    0.15E-03    0.19E-06
   2      8    11.561     1.993    0.36E-04    0.89E-04    0.26E-06
 Optimization of the real space projectors (new method)

 maximal supplied QI-value         = 18.90
 optimisation between [QCUT,QGAM] = [ 11.53, 23.24] = [ 37.21,151.29] Ry 
 Optimized for a Real-space Cutoff    1.21 Angstroem

   l    n(q)    QCUT    max X(q) W(low)/X(q) W(high)/X(q)  e(spline) 
   0      8    11.527     8.355    0.73E-04    0.70E-04    0.26E-07
   0      8    11.527     1.401    0.17E-03    0.17E-03    0.63E-07
   1      8    11.527     4.747    0.13E-03    0.17E-03    0.11E-06
   1      8    11.527     2.025    0.16E-03    0.18E-03    0.12E-06
   2      7    11.527     3.169    0.51E-04    0.25E-03    0.60E-07
   2      7    11.527     3.441    0.82E-04    0.22E-03    0.14E-06
 Optimization of the real space projectors (new method)

 maximal supplied QI-value         = 19.84
 optimisation between [QCUT,QGAM] = [ 11.51, 23.22] = [ 37.09,150.92] Ry 
 Optimized for a Real-space Cutoff    1.49 Angstroem

   l    n(q)    QCUT    max X(q) W(low)/X(q) W(high)/X(q)  e(spline) 
   0     10    11.508     7.541    0.34E-04    0.13E-04    0.69E-07
   0     10    11.508     1.809    0.49E-04    0.27E-04    0.14E-06
   1     10    11.508     4.107    0.27E-05    0.41E-05    0.14E-06
   1     10    11.508     2.196    0.26E-05    0.25E-05    0.22E-06
   2      9    11.508     4.265    0.18E-03    0.11E-03    0.81E-06
   2      9    11.508     1.925    0.97E-04    0.76E-04    0.47E-06
 Optimization of the real space projectors (new method)

 maximal supplied QI-value         = 19.84
 optimisation between [QCUT,QGAM] = [ 11.51, 23.22] = [ 37.09,150.92] Ry 
 Optimized for a Real-space Cutoff    1.21 Angstroem

   l    n(q)    QCUT    max X(q) W(low)/X(q) W(high)/X(q)  e(spline) 
   0      8    11.508     6.761    0.57E-04    0.57E-04    0.35E-07
   0      8    11.508     1.642    0.14E-03    0.14E-03    0.91E-07
   1      8    11.508     3.519    0.20E-04    0.72E-04    0.47E-07
   1      8    11.508     2.150    0.27E-04    0.11E-03    0.89E-07
   2      7    11.508     2.976    0.19E-03    0.33E-03    0.16E-06
   2      7    11.508     1.494    0.14E-03    0.29E-03    0.14E-06
  PAW_PBE Li_sv_GW 25Mar2010            :
 energy of atom  1       EATOM= -200.9989
 kinetic energy error for atom=    0.0127 (will be added to EATOM!!)
  PAW_PBE P_GW 19Mar2012                :
 energy of atom  2       EATOM= -176.0430
 kinetic energy error for atom=    0.0011 (will be added to EATOM!!)
  PAW_PBE S_GW 19Mar2012                :
 energy of atom  3       EATOM= -276.8230
 kinetic energy error for atom=    0.0024 (will be added to EATOM!!)
  PAW_PBE Cl_GW 19Mar2012               :
 energy of atom  4       EATOM= -409.7259
 kinetic energy error for atom=    0.0030 (will be added to EATOM!!)
 
 
 POSCAR: Li24 P4 S20 Cl4
  positions in direct lattice
  velocities in cartesian coordinates
 exchange correlation table for  LEXCH =        8
   RHO(1)=    0.500       N(1)  =     2000
   RHO(2)=  100.500       N(2)  =     4000

 VTST: version 4.1, (05/19/21)

 CHAIN: initializing optimizer
 
 OPT: Using VASP Conjugate-Gradient optimizer
 CHAIN: Read ICHAIN            0
 
 POSCAR: Li24 P4 S20 Cl4
  positions in direct lattice
  velocities in cartesian coordinates
 


--------------------------------------------------------------------------------------------------------


 ion  position               nearest neighbor table
   1  0.992  0.238  0.262-
   2  0.965  0.754  0.746-
   3  0.016  0.290  0.703-
   4  0.016  0.797  0.210-
   5  0.188  0.183  0.964-
   6  0.208  0.798  0.006-
   7  0.824  0.154  0.041-
   8  0.740  0.721  0.991-
   9  0.227  0.986  0.210-
  10  0.322  0.046  0.678-
  11  0.686  0.972  0.720-
  12  0.695  0.009  0.304-
  13  0.322  0.822  0.454-
  14  0.227  0.290  0.514-
  15  0.686  0.780  0.528-
  16  0.695  0.196  0.491-
  17  0.208  0.494  0.701-
  18  0.188  0.536  0.317-
  19  0.824  0.459  0.346-
  20  0.740  0.509  0.779-
  21  0.467  0.323  0.830-
  22  0.467  0.670  0.177-
  23  0.555  0.329  0.170-
  24  0.505  0.690  0.810-
  25  0.503  0.499  0.492-  44 2.04  41 2.05  43 2.06  42 2.06
  26  0.503  0.008  0.001-  39 2.04  37 2.05  40 2.06  38 2.06
  27  0.007  0.488  0.012-  36 2.04  34 2.05  33 2.05  35 2.06
  28  0.005  0.987  0.513-  29 2.05  32 2.05  31 2.05  30 2.06
  29  0.139  0.872  0.628-  28 2.05
  30  0.136  0.105  0.395-  28 2.06
  31  0.881  0.864  0.396-  28 2.05
  32  0.881  0.104  0.636-  28 2.05
  33  0.886  0.601  0.143-  27 2.05
  34  0.886  0.357  0.899-  27 2.05
  35  0.110  0.618  0.882-  27 2.06
  36  0.142  0.375  0.125-  27 2.04
  37  0.630  0.133  0.889-  26 2.05
  38  0.613  0.875  0.123-  26 2.06
  39  0.388  0.139  0.118-  26 2.04
  40  0.382  0.897  0.868-  26 2.06
  41  0.630  0.611  0.367-  25 2.05
  42  0.613  0.377  0.625-  25 2.06
  43  0.382  0.631  0.603-  25 2.06
  44  0.388  0.382  0.361-  25 2.04
  45  0.734  0.742  0.758-
  46  0.759  0.237  0.263-
  47  0.251  0.754  0.237-
  48  0.251  0.263  0.746-
  49  0.032  0.995  0.041-
  50  0.032  0.459  0.505-
  51  0.533  0.987  0.513-
  52  0.527  0.514  0.986-
 
  LATTYP: Found a simple cubic cell.
 ALAT       =     9.7381645721
  
  Lattice vectors:
  
 A1 = (   9.7381645721,   0.0000000000,   0.0000000000)
 A2 = (   0.0000000000,   9.7381645721,   0.0000000000)
 A3 = (   0.0000000000,   0.0000000000,   9.7381645721)


Analysis of symmetry for initial positions (statically):
=====================================================================
 Subroutine PRICEL returns:
 Original cell was already a primitive cell.
 

 Routine SETGRP: Setting up the symmetry group for a 
 simple cubic supercell.


 Subroutine GETGRP returns: Found  2 space group operations
 (whereof  1 operations were pure point group operations)
 out of a pool of 48 trial point group operations.


The static configuration has the point symmetry C_1 .
 The point group associated with its full space group is C_1h.


Analysis of symmetry for dynamics (positions and initial velocities):
=====================================================================
 Subroutine PRICEL returns:
 Original cell was already a primitive cell.
 

 Routine SETGRP: Setting up the symmetry group for a 
 simple cubic supercell.


 Subroutine GETGRP returns: Found  2 space group operations
 (whereof  1 operations were pure point group operations)
 out of a pool of 48 trial point group operations.


The dynamic configuration has the point symmetry C_1 .
 The point group associated with its full space group is C_1h.


Analysis of structural, dynamic, and magnetic symmetry:
=====================================================================
 Subroutine PRICEL returns:
 Original cell was already a primitive cell.
 

 Routine SETGRP: Setting up the symmetry group for a 
 simple cubic supercell.


 Subroutine GETGRP returns: Found  2 space group operations
 (whereof  1 operations were pure point group operations)
 out of a pool of 48 trial point group operations.


The overall configuration has the point symmetry C_1 .
 The point group associated with its full space group is C_1h.


 Subroutine INISYM returns: Found  2 space group operations
 (whereof  1 operations are pure point group operations),
 and found     1 'primitive' translations


----------------------------------------------------------------------------------------

                                     Primitive cell                                     

  volume of cell :     923.4882

  direct lattice vectors                    reciprocal lattice vectors
     9.738164572  0.000000000  0.000000000     0.102688755  0.000000000  0.000000000
     0.000000000  9.738164572  0.000000000     0.000000000  0.102688755  0.000000000
     0.000000000  0.000000000  9.738164572     0.000000000  0.000000000  0.102688755

  length of vectors
     9.738164572  9.738164572  9.738164572     0.102688755  0.102688755  0.102688755

  position of ions in fractional coordinates (direct lattice)
     0.992110858  0.237796001  0.262069593
     0.965070874  0.753917079  0.745948515
     0.016472197  0.290348364  0.702812801
     0.016472197  0.797052793  0.209517230
     0.188116969  0.182672499  0.963640492
     0.208420215  0.798391377  0.006196997
     0.824032277  0.154015569  0.041276442
     0.739852877  0.720773141  0.990974799
     0.226845376  0.986353497  0.209647570
     0.322236035  0.045696576  0.677911471
     0.686305803  0.971980680  0.720205135
     0.695469158  0.008859991  0.304068846
     0.322236035  0.821954123  0.454169018
     0.226845376  0.290218024  0.513512097
     0.686305803  0.779660458  0.527884913
     0.695469158  0.195796748  0.491005603
     0.208420215  0.493668597  0.701474217
     0.188116969  0.536225102  0.317193095
     0.824032277  0.458589152  0.345850025
     0.739852877  0.508890795  0.779092453
     0.466668523  0.323317553  0.829859701
     0.466668523  0.670005893  0.176548040
     0.554679577  0.329400848  0.170464746
     0.504617168  0.690169349  0.809696245
     0.503161057  0.499249735  0.491966022
     0.503161057  0.007899572  0.000615859
     0.006651707  0.487574523  0.012291071
     0.005334937  0.987259163  0.512606431
     0.138689465  0.872224168  0.627641426
     0.136197091  0.105039789  0.394825805
     0.880723433  0.864044155  0.395902318
     0.880723433  0.103963275  0.635821439
     0.886401485  0.601191744  0.143141034
     0.886401485  0.356724560  0.898673850
     0.110407248  0.618195999  0.881669595
     0.142386684  0.374964699  0.124900895
     0.630178218  0.133257298  0.888609666
     0.612635275  0.874969311  0.123248627
     0.388348567  0.138676470  0.117571060
     0.381621589  0.896548485  0.868419304
     0.630178218  0.611255928  0.366608296
     0.612635275  0.376616967  0.624896283
     0.381621589  0.631446290  0.603317108
     0.388348567  0.382294534  0.361189124
     0.734054390  0.742245952  0.757619642
     0.758548304  0.236698475  0.263167119
     0.250809767  0.753575375  0.237075380
     0.250809767  0.262790214  0.746290219
     0.031556534  0.994722717  0.041220123
     0.031556534  0.458645471  0.505142877
     0.533232661  0.987070193  0.512795401
     0.526738991  0.513941561  0.985924033

  ion indices of the primitive-cell ions
   primitive index   ion index
                 1           1
                 2           2
                 3           3
                 4           4
                 5           5
                 6           6
                 7           7
                 8           8
                 9           9
                10          10
                11          11
                12          12
                13          13
                14          14
                15          15
                16          16
                17          17
                18          18
                19          19
                20          20
                21          21
                22          22
                23          23
                24          24
                25          25
                26          26
                27          27
                28          28
                29          29
                30          30
                31          31
                32          32
                33          33
                34          34
                35          35
                36          36
                37          37
                38          38
                39          39
                40          40
                41          41
                42          42
                43          43
                44          44
                45          45
                46          46
                47          47
                48          48
                49          49
                50          50
                51          51
                52          52

----------------------------------------------------------------------------------------

 
 
 KPOINTS: Automatic mesh                          

Automatic generation of k-mesh.
 Grid dimensions read from file:
 generate k-points for:    2    2    2

 Generating k-lattice:

  Cartesian coordinates                     Fractional coordinates (reciprocal lattice)
     0.051344378  0.000000000  0.000000000     0.500000000  0.000000000  0.000000000
     0.000000000  0.051344378  0.000000000     0.000000000  0.500000000  0.000000000
     0.000000000  0.000000000  0.051344378     0.000000000  0.000000000  0.500000000

  Length of vectors
     0.051344378  0.051344378  0.051344378

  Shift w.r.t. Gamma in fractional coordinates (k-lattice)
     0.500000000  0.500000000  0.500000000

 
 Subroutine IBZKPT returns following result:
 ===========================================
 
 Found      3 irreducible k-points:
 
 Following reciprocal coordinates:
            Coordinates               Weight
  0.250000  0.250000  0.250000      4.000000
 -0.250000 -0.250000  0.250000      2.000000
  0.250000 -0.250000  0.250000      2.000000
 
 Following cartesian coordinates:
            Coordinates               Weight
  0.025672  0.025672  0.025672      4.000000
 -0.025672 -0.025672  0.025672      2.000000
  0.025672 -0.025672  0.025672      2.000000
 


--------------------------------------------------------------------------------------------------------




 Dimension of arrays:
   k-points           NKPTS =      3   k-points in BZ     NKDIM =      3   number of bands    NBANDS=    176
   number of dos      NEDOS =    301   number of ions     NIONS =     52
   non local maximal  LDIM  =      6   non local SUM 2l+1 LMDIM =     18
   total plane-waves  NPLWV = 373248
   max r-space proj   IRMAX =   5640   max aug-charges    IRDMAX=  17256
   dimension x,y,z NGX =    72 NGY =   72 NGZ =   72
   dimension x,y,z NGXF=   144 NGYF=  144 NGZF=  144
   support grid    NGXF=   144 NGYF=  144 NGZF=  144
   ions per type =              24   4  20   4
   NGX,Y,Z   is equivalent  to a cutoff of  12.29, 12.29, 12.29 a.u.
   NGXF,Y,Z  is equivalent  to a cutoff of  24.58, 24.58, 24.58 a.u.

 SYSTEM =  unknown system                          
 POSCAR =  Li24 P4 S20 Cl4                         

 Startparameter for this run:
   NWRITE =      2    write-flag & timer
   PREC   = accu      normal or accurate (medium, high low for compatibility)
   ISTART =      0    job   : 0-new  1-cont  2-samecut
   ICHARG =      2    charge: 1-file 2-atom 10-const
   ISPIN  =      2    spin polarized calculation?
   LNONCOLLINEAR =      F non collinear calculations
   LSORBIT =      F    spin-orbit coupling
   INIWAV =      1    electr: 0-lowe 1-rand  2-diag
   LASPH  =      T    aspherical Exc in radial PAW
 Electronic Relaxation 1
   ENCUT  =  520.0 eV  38.22 Ry    6.18 a.u.  18.11 18.11 18.11*2*pi/ulx,y,z
   ENINI  =  520.0     initial cutoff
   ENAUG  = 1041.7 eV  augmentation charge cutoff
   NELM   =    100;   NELMIN=  2; NELMDL=-10     # of ELM steps 
   EDIFF  = 0.1E-05   stopping-criterion for ELM
   LREAL  =      T    real-space projection
   NLSPLINE    = F    spline interpolate recip. space projectors
   LCOMPAT=      F    compatible to vasp.4.4
   GGA_COMPAT  = T    GGA compatible to vasp.4.4-vasp.4.6
   LMAXPAW     = -100 max onsite density
   LMAXMIX     =    4 max onsite mixed and CHGCAR
   VOSKOWN=      0    Vosko Wilk Nusair interpolation
   ROPT   =   -0.00025  -0.00025  -0.00025  -0.00025
 Ionic relaxation
   EDIFFG = -.1E-02   stopping-criterion for IOM
   NSW    =   1000    number of steps for IOM
   NBLOCK =      1;   KBLOCK =   1000    inner block; outer block 
   IBRION =      2    ionic relax: 0-MD 1-quasi-New 2-CG
   NFREE  =      1    steps in history (QN), initial steepest desc. (CG)
   ISIF   =      2    stress and relaxation
   IWAVPR =     11    prediction:  0-non 1-charg 2-wave 3-comb
   ISYM   =      2    0-nonsym 1-usesym 2-fastsym
   LCORR  =      T    Harris-Foulkes like correction to forces

   POTIM  = 0.2000    time-step for ionic-motion
   TEIN   =    0.0    initial temperature
   TEBEG  =    0.0;   TEEND  =   0.0 temperature during run
   SMASS  =  -3.00    Nose mass-parameter (am)
   estimated Nose-frequenzy (Omega)   =  0.10E-29 period in steps = 0.31E+47 mass=  -0.217E-26a.u.
   SCALEE = 1.0000    scale energy and forces
   NPACO  =    256;   APACO  = 10.0  distance and # of slots for P.C.
   PSTRESS=    0.0 pullay stress

  Mass of Ions in am
   POMASS =   7.01 30.97 32.07 35.45
  Ionic Valenz
   ZVAL   =   3.00  5.00  6.00  7.00
  Atomic Wigner-Seitz radii
   RWIGS  =  -1.00 -1.00 -1.00 -1.00
  virtual crystal weights 
   VCA    =   1.00  1.00  1.00  1.00
   NELECT =     240.0000    total number of electrons
   NUPDOWN=      -1.0000    fix difference up-down

 DOS related values:
   EMIN   =  10.00;   EMAX   =-10.00  energy-range for DOS
   EFERMI =   0.00;   METHOD = LEGACY      
   ISMEAR =     0;   SIGMA  =   0.03  broadening in eV -4-tet -1-fermi 0-gaus

 Electronic relaxation 2 (details)
   IALGO  =     68    algorithm
   LDIAG  =      T    sub-space diagonalisation (order eigenvalues)
   LSUBROT=      F    optimize rotation matrix (better conditioning)
   TURBO    =      0    0=normal 1=particle mesh
   IRESTART =      0    0=no restart 2=restart with 2 vectors
   NREBOOT  =      0    no. of reboots
   NMIN     =      0    reboot dimension
   EREF     =   0.00    reference energy to select bands
   IMIX   =      4    mixing-type and parameters
     AMIX     =   0.40;   BMIX     =  1.00
     AMIX_MAG =   1.60;   BMIX_MAG =  1.00
     AMIN     =   0.10
     WC   =   100.;   INIMIX=   1;  MIXPRE=   1;  MAXMIX= -45

 Intra band minimization:
   WEIMIN = 0.0010     energy-eigenvalue tresh-hold
   EBREAK =  0.14E-08  absolut break condition
   DEPER  =   0.30     relativ break condition  

   TIME   =   0.40     timestep for ELM

  volume/ion in A,a.u.               =      17.76       119.85
  Fermi-wavevector in a.u.,A,eV,Ry     =   1.044724  1.974242 14.850048  1.091448
  Thomas-Fermi vector in A             =   2.179489
 
 Write flags
   LWAVE        =      F    write WAVECAR
   LDOWNSAMPLE  =      F    k-point downsampling of WAVECAR
   LCHARG       =      F    write CHGCAR
   LVTOT        =      F    write LOCPOT, total local potential
   LVHAR        =      F    write LOCPOT, Hartree potential only
   LELF         =      F    write electronic localiz. function (ELF)
   LORBIT       =      0    0 simple, 1 ext, 2 COOP (PROOUT), +10 PAW based schemes


 Dipole corrections
   LMONO  =      F    monopole corrections only (constant potential shift)
   LDIPOL =      F    correct potential (dipole corrections)
   IDIPOL =      0    1-x, 2-y, 3-z, 4-all directions 
   EPSILON=  1.0000000 bulk dielectric constant

 Exchange correlation treatment:
   GGA     =    PE    GGA type
   LEXCH   =     8    internal setting for exchange type
   LIBXC   =     F    Libxc                    
   VOSKOWN =     0    Vosko Wilk Nusair interpolation
   LHFCALC =     F    Hartree Fock is set to
   LHFONE  =     F    Hartree Fock one center treatment
   AEXX    =    0.0000 exact exchange contribution

 Linear response parameters
   LEPSILON=     F    determine dielectric tensor
   LRPA    =     F    only Hartree local field effects (RPA)
   LNABLA  =     F    use nabla operator in PAW spheres
   LVEL    =     F    velocity operator in full k-point grid
   CSHIFT  =0.1000    complex shift for real part using Kramers Kronig
   OMEGAMAX=  -1.0    maximum frequency
   DEG_THRESHOLD= 0.2000000E-02 threshold for treating states as degnerate
   RTIME   =   -0.100 relaxation time in fs
  (WPLASMAI=    0.000 imaginary part of plasma frequency in eV, 0.658/RTIME)
   DFIELD  = 0.0000000 0.0000000 0.0000000 field for delta impulse in time
 
  Optional k-point grid parameters
   LKPOINTS_OPT  =     F    use optional k-point grid
   KPOINTS_OPT_MODE=     1    mode for optional k-point grid
 
 Orbital magnetization related:
   ORBITALMAG=     F  switch on orbital magnetization
   LCHIMAG   =     F  perturbation theory with respect to B field
   DQ        =  0.001000  dq finite difference perturbation B field
   LLRAUG    =     F  two centre corrections for induced B field
   LBONE     =     F  B-component reconstruction in AE one-centre
   LVGVCALC  =     T  calculate vGv susceptibility
   LVGVAPPL  =     F  apply vGv susceptibility instead of pGv for G=0

 Random number generation:
   RANDOM_GENERATOR = DEFAULT
   PCG_SEED         = not used


--------------------------------------------------------------------------------------------------------


 conjugate gradient relaxation of ions
 charge density and potential will be updated during run
 spin polarized calculation
 RMM-DIIS sequential band-by-band and
  variant of blocked Davidson during initial phase
 perform sub-space diagonalisation
    before iterative eigenvector-optimisation
 modified Broyden-mixing scheme, WC =      100.0
 initial mixing is a Kerker type mixing with AMIX =  0.4000 and BMIX =      1.0000
 Hartree-type preconditioning will be used
 using additional bands           56
 real space projection scheme for non local part
 use partial core corrections
 calculate Harris-corrections to forces 
   (improved forces if not selfconsistent)
 use gradient corrections 
 use of overlap-Matrix (Vanderbilt PP)
 Gauss-broadening in eV      SIGMA  =   0.03


--------------------------------------------------------------------------------------------------------


  energy-cutoff  :      520.00
  volume of cell :      923.49
      direct lattice vectors                 reciprocal lattice vectors
     9.738164572  0.000000000  0.000000000     0.102688755  0.000000000  0.000000000
     0.000000000  9.738164572  0.000000000     0.000000000  0.102688755  0.000000000
     0.000000000  0.000000000  9.738164572     0.000000000  0.000000000  0.102688755

  length of vectors
     9.738164572  9.738164572  9.738164572     0.102688755  0.102688755  0.102688755


 
 k-points in units of 2pi/SCALE and weight: Automatic mesh                          
   0.02567219  0.02567219  0.02567219       0.500
  -0.02567219 -0.02567219  0.02567219       0.250
   0.02567219 -0.02567219  0.02567219       0.250
 
 k-points in reciprocal lattice and weights: Automatic mesh                          
   0.25000000  0.25000000  0.25000000       0.500
  -0.25000000 -0.25000000  0.25000000       0.250
   0.25000000 -0.25000000  0.25000000       0.250
 
 position of ions in fractional coordinates (direct lattice) 
   0.99211086  0.23779600  0.26206959
   0.96507087  0.75391708  0.74594852
   0.01647220  0.29034836  0.70281280
   0.01647220  0.79705279  0.20951723
   0.18811697  0.18267250  0.96364049
   0.20842022  0.79839138  0.00619700
   0.82403228  0.15401557  0.04127644
   0.73985288  0.72077314  0.99097480
   0.22684538  0.98635350  0.20964757
   0.32223603  0.04569658  0.67791147
   0.68630580  0.97198068  0.72020514
   0.69546916  0.00885999  0.30406885
   0.32223603  0.82195412  0.45416902
   0.22684538  0.29021802  0.51351210
   0.68630580  0.77966046  0.52788491
   0.69546916  0.19579675  0.49100560
   0.20842022  0.49366860  0.70147422
   0.18811697  0.53622510  0.31719309
   0.82403228  0.45858915  0.34585002
   0.73985288  0.50889080  0.77909245
   0.46666852  0.32331755  0.82985970
   0.46666852  0.67000589  0.17654804
   0.55467958  0.32940085  0.17046475
   0.50461717  0.69016935  0.80969624
   0.50316106  0.49924974  0.49196602
   0.50316106  0.00789957  0.00061586
   0.00665171  0.48757452  0.01229107
   0.00533494  0.98725916  0.51260643
   0.13868947  0.87222417  0.62764143
   0.13619709  0.10503979  0.39482580
   0.88072343  0.86404415  0.39590232
   0.88072343  0.10396328  0.63582144
   0.88640149  0.60119174  0.14314103
   0.88640149  0.35672456  0.89867385
   0.11040725  0.61819600  0.88166960
   0.14238668  0.37496470  0.12490089
   0.63017822  0.13325730  0.88860967
   0.61263528  0.87496931  0.12324863
   0.38834857  0.13867647  0.11757106
   0.38162159  0.89654849  0.86841930
   0.63017822  0.61125593  0.36660830
   0.61263528  0.37661697  0.62489628
   0.38162159  0.63144629  0.60331711
   0.38834857  0.38229453  0.36118912
   0.73405439  0.74224595  0.75761964
   0.75854830  0.23669847  0.26316712
   0.25080977  0.75357537  0.23707538
   0.25080977  0.26279021  0.74629022
   0.03155653  0.99472272  0.04122012
   0.03155653  0.45864547  0.50514288
   0.53323266  0.98707019  0.51279540
   0.52673899  0.51394156  0.98592403
 
 position of ions in cartesian coordinates  (Angst):
   9.66133881  2.31569659  2.55207682
   9.39801899  7.34176858  7.26416940
   0.16040897  2.82746015  6.84410672
   0.16040897  7.76183127  2.04031327
   1.83191400  1.77889486  9.38408970
   2.02963035  7.77486662  0.06034737
   8.02456193  1.49982896  0.40195678
   7.20480908  7.01900747  9.65027568
   2.20905760  9.60527268  2.04158254
   3.13798754  0.44500078  6.60161347
   6.68335886  9.46530783  7.01347613
   6.77259311  0.08628005  2.96107246
   3.13798754  8.00432452  4.42277264
   2.20905760  2.82619088  5.00066531
   6.68335886  7.59246185  5.14063016
   6.77259311  1.90670096  4.78149337
   2.02963035  4.80742604  6.83107137
   1.83191400  5.22184829  3.08887856
   8.02456193  4.46581664  3.36794446
   7.20480908  4.95566231  7.58693052
   4.54449488  3.14851954  8.08131034
   4.54449488  6.52462765  1.71925387
   5.40156101  3.20775967  1.66001375
   4.91404503  6.72098271  7.88495528
   4.89986518  4.86177608  4.79084608
   4.89986518  0.07692733  0.00599733
   0.06477541  4.74808094  0.11969247
   0.05195250  9.61409220  4.99184579
   1.35058084  8.49386249  6.11207550
   1.32630969  1.02289476  3.84487866
   8.57662974  8.41420418  3.85536193
   8.57662974  1.01241149  6.19173381
   8.63192354  5.85450414  1.39393095
   8.63192354  3.47384247  8.75143385
   1.07516395  6.02009437  8.58584362
   1.38658496  3.65146795  1.21630547
   6.13677920  1.29768149  8.65342717
   5.96594313  8.52059514  1.20021541
   3.78180225  1.35045429  1.14492633
   3.71629384  8.73073670  8.45681010
   6.13677920  5.95251082  3.57009192
   5.96594313  3.66755801  6.08534285
   3.71629384  6.14912789  5.87520129
   3.78180225  3.72284708  3.51731913
   7.14834245  7.22811323  7.37782476
   7.38686822  2.30500870  2.56276472
   2.44242679  7.33844102  2.30867907
   2.44242679  2.55909435  7.26749697
   0.30730272  9.68677352  0.40140834
   0.30730272  4.46636508  4.91916447
   5.19270740  9.61225198  4.99368601
   5.12947098  5.00484751  9.60109048
 


--------------------------------------------------------------------------------------------------------


 k-point   1 :   0.2500 0.2500 0.2500  plane waves:   24915
 k-point   2 :  -0.2500-0.2500 0.2500  plane waves:   24915
 k-point   3 :   0.2500-0.2500 0.2500  plane waves:   24915

 maximum and minimum number of plane-waves per node :       791      760

 maximum number of plane-waves:     24915
 maximum index in each direction: 
   IXMAX=   18   IYMAX=   18   IZMAX=   17
   IXMIN=  -18   IYMIN=  -18   IZMIN=  -18


 real space projection operators:
  total allocation   :      27680.84 KBytes
  max/ min on nodes  :       1157.61        665.34


 parallel 3D FFT for wavefunctions:
    minimum data exchange during FFTs selected (reduces bandwidth)
 parallel 3D FFT for charge:
    minimum data exchange during FFTs selected (reduces bandwidth)


 total amount of memory used by VASP MPI-rank0    46822. kBytes
=======================================================================

   base      :      30000. kBytes
   nonlr-proj:       6306. kBytes
   fftplans  :       1747. kBytes
   grid      :       5278. kBytes
   one-center:         62. kBytes
   wavefun   :       3429. kBytes
 
     INWAV:  cpu time      0.0000: real time      0.0000
 Broyden mixing: mesh for mixing (old mesh)
   NGX = 37   NGY = 37   NGZ = 37
  (NGX  =144   NGY  =144   NGZ  =144)
  gives a total of  50653 points

 initial charge density was supplied:
 charge density of overlapping atoms calculated
 number of electron     240.0000000 magnetization      52.0000000
 keeping initial charge density in first step


--------------------------------------------------------------------------------------------------------


 Maximum index for non-local projection operator          537
 Maximum index for augmentation-charges          731 (set IRDMAX)


--------------------------------------------------------------------------------------------------------


 First call to EWALD:  gamma=   0.182
 Maximum number of real-space cells 3x 3x 3
 Maximum number of reciprocal cells 3x 3x 3

    FEWALD:  cpu time      0.0031: real time      0.0036


--------------------------------------- Ionic step        1  -------------------------------------------




--------------------------------------- Iteration      1(   1)  ---------------------------------------


    POTLOK:  cpu time      0.0580: real time      0.0666
    SETDIJ:  cpu time      0.4064: real time      0.4135
     EDDAV:  cpu time      1.6641: real time      1.7127
       DOS:  cpu time      0.0030: real time      0.0044
    --------------------------------------------
      LOOP:  cpu time      2.1316: real time      2.1971

 eigenvalue-minimisations  :  2320
 total energy-change (2. order) : 0.1598701E+04  (-0.1130542E+05)
 number of electron     240.0000000 magnetization      52.0000000
 augmentation part      240.0000000 magnetization      52.0000000

 Free energy of the ion-electron system (eV)
  ---------------------------------------------------
  alpha Z        PSCENC =       293.94800827
  Ewald energy   TEWEN  =     -8660.88142936
  -Hartree energ DENC   =     -2204.79034011
  -exchange      EXHF   =         0.00000000
  -V(xc)+E(xc)   XCENC  =       533.33820888
  PAW double counting   =      8141.38806575    -8271.61346273
  entropy T*S    EENTRO =        -0.00631978
  eigenvalues    EBANDS =      -935.82144576
  atomic energy  EATOM  =     12703.13999606
  Solvation  Ediel_sol  =         0.00000000
  ---------------------------------------------------
  free energy    TOTEN  =      1598.70128122 eV

  energy without entropy =     1598.70760100  energy(sigma->0) =     1598.70444111


--------------------------------------------------------------------------------------------------------




--------------------------------------- Iteration      1(   2)  ---------------------------------------


     EDDAV:  cpu time      1.9662: real time      1.9880
       DOS:  cpu time      0.0005: real time      0.0005
    --------------------------------------------
      LOOP:  cpu time      1.9668: real time      1.9885

 eigenvalue-minimisations  :  2896
 total energy-change (2. order) :-0.1652008E+04  (-0.1550799E+04)
 number of electron     240.0000000 magnetization      52.0000000
 augmentation part      240.0000000 magnetization      52.0000000

 Free energy of the ion-electron system (eV)
  ---------------------------------------------------
  alpha Z        PSCENC =       293.94800827
  Ewald energy   TEWEN  =     -8660.88142936
  -Hartree energ DENC   =     -2204.79034011
  -exchange      EXHF   =         0.00000000
  -V(xc)+E(xc)   XCENC  =       533.33820888
  PAW double counting   =      8141.38806575    -8271.61346273
  entropy T*S    EENTRO =        -0.00000000
  eigenvalues    EBANDS =     -2587.83545365
  atomic energy  EATOM  =     12703.13999606
  Solvation  Ediel_sol  =         0.00000000
  ---------------------------------------------------
  free energy    TOTEN  =       -53.30640688 eV

  energy without entropy =      -53.30640688  energy(sigma->0) =      -53.30640688


--------------------------------------------------------------------------------------------------------




--------------------------------------- Iteration      1(   3)  ---------------------------------------


     EDDAV:  cpu time      1.9217: real time      1.9560
       DOS:  cpu time      0.0005: real time      0.0005
    --------------------------------------------
      LOOP:  cpu time      1.9222: real time      1.9565

 eigenvalue-minimisations  :  2808
 total energy-change (2. order) :-0.1757752E+03  (-0.1736898E+03)
 number of electron     240.0000000 magnetization      52.0000000
 augmentation part      240.0000000 magnetization      52.0000000

 Free energy of the ion-electron system (eV)
  ---------------------------------------------------
  alpha Z        PSCENC =       293.94800827
  Ewald energy   TEWEN  =     -8660.88142936
  -Hartree energ DENC   =     -2204.79034011
  -exchange      EXHF   =         0.00000000
  -V(xc)+E(xc)   XCENC  =       533.33820888
  PAW double counting   =      8141.38806575    -8271.61346273
  entropy T*S    EENTRO =        -0.00000000
  eigenvalues    EBANDS =     -2763.61066261
  atomic energy  EATOM  =     12703.13999606
  Solvation  Ediel_sol  =         0.00000000
  ---------------------------------------------------
  free energy    TOTEN  =      -229.08161584 eV

  energy without entropy =     -229.08161584  energy(sigma->0) =     -229.08161584


--------------------------------------------------------------------------------------------------------




--------------------------------------- Iteration      1(   4)  ---------------------------------------


     EDDAV:  cpu time      2.3180: real time      2.3934
       DOS:  cpu time      0.0005: real time      0.0005
    --------------------------------------------
      LOOP:  cpu time      2.3185: real time      2.3939

 eigenvalue-minimisations  :  3552
 total energy-change (2. order) :-0.1337000E+02  (-0.1334488E+02)
 number of electron     240.0000000 magnetization      52.0000000
 augmentation part      240.0000000 magnetization      52.0000000

 Free energy of the ion-electron system (eV)
  ---------------------------------------------------
  alpha Z        PSCENC =       293.94800827
  Ewald energy   TEWEN  =     -8660.88142936
  -Hartree energ DENC   =     -2204.79034011
  -exchange      EXHF   =         0.00000000
  -V(xc)+E(xc)   XCENC  =       533.33820888
  PAW double counting   =      8141.38806575    -8271.61346273
  entropy T*S    EENTRO =        -0.00000000
  eigenvalues    EBANDS =     -2776.98066250
  atomic energy  EATOM  =     12703.13999606
  Solvation  Ediel_sol  =         0.00000000
  ---------------------------------------------------
  free energy    TOTEN  =      -242.45161573 eV

  energy without entropy =     -242.45161573  energy(sigma->0) =     -242.45161573


--------------------------------------------------------------------------------------------------------




--------------------------------------- Iteration      1(   5)  ---------------------------------------


     EDDAV:  cpu time      2.2164: real time      2.2627
       DOS:  cpu time      0.0005: real time      0.0005
    --------------------------------------------
      LOOP:  cpu time      2.2170: real time      2.2633

 eigenvalue-minimisations  :  3360
 total energy-change (2. order) :-0.2622023E+00  (-0.2620912E+00)
 number of electron     240.0000000 magnetization      52.0000000
 augmentation part      240.0000000 magnetization      52.0000000

 Free energy of the ion-electron system (eV)
  ---------------------------------------------------
  alpha Z        PSCENC =       293.94800827
  Ewald energy   TEWEN  =     -8660.88142936
  -Hartree energ DENC   =     -2204.79034011
  -exchange      EXHF   =         0.00000000
  -V(xc)+E(xc)   XCENC  =       533.33820888
  PAW double counting   =      8141.38806575    -8271.61346273
  entropy T*S    EENTRO =        -0.00000000
  eigenvalues    EBANDS =     -2777.24286476
  atomic energy  EATOM  =     12703.13999606
  Solvation  Ediel_sol  =         0.00000000
  ---------------------------------------------------
  free energy    TOTEN  =      -242.71381799 eV

  energy without entropy =     -242.71381799  energy(sigma->0) =     -242.71381799


--------------------------------------------------------------------------------------------------------




--------------------------------------- Iteration      1(   6)  ---------------------------------------


     EDDAV:  cpu time      2.2724: real time      2.2922
       DOS:  cpu time      0.0006: real time      0.0006
    --------------------------------------------
      LOOP:  cpu time      2.2730: real time      2.2928

 eigenvalue-minimisations  :  3472
 total energy-change (2. order) :-0.1009432E-01  (-0.1009306E-01)
 number of electron     240.0000000 magnetization      52.0000000
 augmentation part      240.0000000 magnetization      52.0000000

 Free energy of the ion-electron system (eV)
  ---------------------------------------------------
  alpha Z        PSCENC =       293.94800827
  Ewald energy   TEWEN  =     -8660.88142936
  -Hartree energ DENC   =     -2204.79034011
  -exchange      EXHF   =         0.00000000
  -V(xc)+E(xc)   XCENC  =       533.33820888
  PAW double counting   =      8141.38806575    -8271.61346273
  entropy T*S    EENTRO =        -0.00000000
  eigenvalues    EBANDS =     -2777.25295907
  atomic energy  EATOM  =     12703.13999606
  Solvation  Ediel_sol  =         0.00000000
  ---------------------------------------------------
  free energy    TOTEN  =      -242.72391231 eV

  energy without entropy =     -242.72391231  energy(sigma->0) =     -242.72391231


--------------------------------------------------------------------------------------------------------




--------------------------------------- Iteration      1(   7)  ---------------------------------------


     EDDAV:  cpu time      2.2434: real time      2.2646
       DOS:  cpu time      0.0005: real time      0.0005
    --------------------------------------------
      LOOP:  cpu time      2.2439: real time      2.2651

 eigenvalue-minimisations  :  3416
 total energy-change (2. order) :-0.3790695E-03  (-0.3790445E-03)
 number of electron     240.0000000 magnetization      52.0000000
 augmentation part      240.0000000 magnetization      52.0000000

 Free energy of the ion-electron system (eV)
  ---------------------------------------------------
  alpha Z        PSCENC =       293.94800827
  Ewald energy   TEWEN  =     -8660.88142936
  -Hartree energ DENC   =     -2204.79034011
  -exchange      EXHF   =         0.00000000
  -V(xc)+E(xc)   XCENC  =       533.33820888
  PAW double counting   =      8141.38806575    -8271.61346273
  entropy T*S    EENTRO =        -0.00000000
  eigenvalues    EBANDS =     -2777.25333814
  atomic energy  EATOM  =     12703.13999606
  Solvation  Ediel_sol  =         0.00000000
  ---------------------------------------------------
  free energy    TOTEN  =      -242.72429138 eV

  energy without entropy =     -242.72429138  energy(sigma->0) =     -242.72429138


--------------------------------------------------------------------------------------------------------




--------------------------------------- Iteration      1(   8)  ---------------------------------------


     EDDAV:  cpu time      2.2576: real time      2.2776
       DOS:  cpu time      0.0007: real time      0.0007
    --------------------------------------------
      LOOP:  cpu time      2.2582: real time      2.2783

 eigenvalue-minimisations  :  3448
 total energy-change (2. order) :-0.2243728E-04  (-0.2243639E-04)
 number of electron     240.0000000 magnetization      52.0000000
 augmentation part      240.0000000 magnetization      52.0000000

 Free energy of the ion-electron system (eV)
  ---------------------------------------------------
  alpha Z        PSCENC =       293.94800827
  Ewald energy   TEWEN  =     -8660.88142936
  -Hartree energ DENC   =     -2204.79034011
  -exchange      EXHF   =         0.00000000
  -V(xc)+E(xc)   XCENC  =       533.33820888
  PAW double counting   =      8141.38806575    -8271.61346273
  entropy T*S    EENTRO =        -0.00000000
  eigenvalues    EBANDS =     -2777.25336058
  atomic energy  EATOM  =     12703.13999606
  Solvation  Ediel_sol  =         0.00000000
  ---------------------------------------------------
  free energy    TOTEN  =      -242.72431381 eV

  energy without entropy =     -242.72431381  energy(sigma->0) =     -242.72431381


--------------------------------------------------------------------------------------------------------




--------------------------------------- Iteration      1(   9)  ---------------------------------------


     EDDAV:  cpu time      2.2075: real time      2.2339
       DOS:  cpu time      0.0004: real time      0.0004
    --------------------------------------------
      LOOP:  cpu time      2.2079: real time      2.2343

 eigenvalue-minimisations  :  3360
 total energy-change (2. order) :-0.1445895E-05  (-0.1446321E-05)
 number of electron     240.0000000 magnetization      52.0000000
 augmentation part      240.0000000 magnetization      52.0000000

 Free energy of the ion-electron system (eV)
  ---------------------------------------------------
  alpha Z        PSCENC =       293.94800827
  Ewald energy   TEWEN  =     -8660.88142936
  -Hartree energ DENC   =     -2204.79034011
  -exchange      EXHF   =         0.00000000
  -V(xc)+E(xc)   XCENC  =       533.33820888
  PAW double counting   =      8141.38806575    -8271.61346273
  entropy T*S    EENTRO =        -0.00000000
  eigenvalues    EBANDS =     -2777.25336203
  atomic energy  EATOM  =     12703.13999606
  Solvation  Ediel_sol  =         0.00000000
  ---------------------------------------------------
  free energy    TOTEN  =      -242.72431526 eV

  energy without entropy =     -242.72431526  energy(sigma->0) =     -242.72431526


--------------------------------------------------------------------------------------------------------




--------------------------------------- Iteration      1(  10)  ---------------------------------------


     EDDAV:  cpu time      1.4684: real time      1.5059
       DOS:  cpu time      0.0005: real time      0.0005
    CHARGE:  cpu time      0.2412: real time      0.4196
    MIXING:  cpu time      0.0019: real time      0.0030
    --------------------------------------------
      LOOP:  cpu time      1.7120: real time      1.9291

 eigenvalue-minimisations  :  1976
 total energy-change (2. order) :-0.6123628E-07  (-0.6117433E-07)
 number of electron     239.9999980 magnetization      27.5446518
 augmentation part        1.4889227 magnetization      27.9854930

 Broyden mixing:
  rms(total) = 0.64920E+01    rms(broyden)= 0.64918E+01
  rms(prec ) = 0.67453E+01
  weight for this iteration     100.00

 Free energy of the ion-electron system (eV)
  ---------------------------------------------------
  alpha Z        PSCENC =       293.94800827
  Ewald energy   TEWEN  =     -8660.88142936
  -Hartree energ DENC   =     -2204.79034011
  -exchange      EXHF   =         0.00000000
  -V(xc)+E(xc)   XCENC  =       533.33820888
  PAW double counting   =      8141.38806575    -8271.61346273
  entropy T*S    EENTRO =        -0.00000000
  eigenvalues    EBANDS =     -2777.25336209
  atomic energy  EATOM  =     12703.13999606
  Solvation  Ediel_sol  =         0.00000000
  ---------------------------------------------------
  free energy    TOTEN  =      -242.72431532 eV

  energy without entropy =     -242.72431532  energy(sigma->0) =     -242.72431532


--------------------------------------------------------------------------------------------------------




--------------------------------------- Iteration      1(  11)  ---------------------------------------


    POTLOK:  cpu time      0.0558: real time      0.0597
    SETDIJ:  cpu time      0.4052: real time      0.4086
    EDDIAG:  cpu time      0.2704: real time      0.2801
  RMM-DIIS:  cpu time      0.8749: real time      0.8830
    ORTHCH:  cpu time      0.0536: real time      0.0567
       DOS:  cpu time      0.0004: real time      0.0004
    CHARGE:  cpu time      0.2101: real time      0.3709
    MIXING:  cpu time      0.0010: real time      0.0022
    --------------------------------------------
      LOOP:  cpu time      1.8715: real time      2.0617

 eigenvalue-minimisations  :  2112
 total energy-change (2. order) : 0.8268383E+01  (-0.5090737E+01)
 number of electron     239.9999980 magnetization      16.5360166
 augmentation part        1.6953254 magnetization      16.7252854

 Broyden mixing:
  rms(total) = 0.33215E+01    rms(broyden)= 0.33215E+01
  rms(prec ) = 0.34452E+01
  weight for this iteration     100.00

 eigenvalues of (default mixing * dielectric matrix)
  average eigenvalue GAMMA=   0.7270
  0.7270

 Free energy of the ion-electron system (eV)
  ---------------------------------------------------
  alpha Z        PSCENC =       293.94800827
  Ewald energy   TEWEN  =     -8660.88142936
  -Hartree energ DENC   =     -2257.77747721
  -exchange      EXHF   =         0.00000000
  -V(xc)+E(xc)   XCENC  =       542.33642721
  PAW double counting   =      8940.57333376    -9076.97903176
  entropy T*S    EENTRO =        -0.00000000
  eigenvalues    EBANDS =     -2718.81575918
  atomic energy  EATOM  =     12703.13999606
  Solvation  Ediel_sol  =         0.00000000
  ---------------------------------------------------
  free energy    TOTEN  =      -234.45593221 eV

  energy without entropy =     -234.45593221  energy(sigma->0) =     -234.45593221


--------------------------------------------------------------------------------------------------------




--------------------------------------- Iteration      1(  12)  ---------------------------------------


    POTLOK:  cpu time      0.0508: real time      0.0552
    SETDIJ:  cpu time      0.4031: real time      0.4217
    EDDIAG:  cpu time      0.2695: real time      0.2712
  RMM-DIIS:  cpu time      0.9248: real time      0.9330
    ORTHCH:  cpu time      0.0517: real time      0.0521
       DOS:  cpu time      0.0005: real time      0.0005
    CHARGE:  cpu time      0.1079: real time      0.1565
    MIXING:  cpu time      0.0010: real time      0.0011
    --------------------------------------------
      LOOP:  cpu time      1.8094: real time      1.8912

 eigenvalue-minimisations  :  2221
 total energy-change (2. order) :-0.2146084E+02  (-0.2523198E+01)
 number of electron     239.9999980 magnetization       1.1209561
 augmentation part        1.8075711 magnetization       1.4681710

 Broyden mixing:
  rms(total) = 0.20531E+01    rms(broyden)= 0.20531E+01
  rms(prec ) = 0.21154E+01
  weight for this iteration     100.00

 eigenvalues of (default mixing * dielectric matrix)
  average eigenvalue GAMMA=   1.1262
  1.5837  0.6687

 Free energy of the ion-electron system (eV)
  ---------------------------------------------------
  alpha Z        PSCENC =       293.94800827
  Ewald energy   TEWEN  =     -8660.88142936
  -Hartree energ DENC   =     -2285.78505983
  -exchange      EXHF   =         0.00000000
  -V(xc)+E(xc)   XCENC  =       535.87244436
  PAW double counting   =      9303.69190707    -9443.79016184
  entropy T*S    EENTRO =        -0.00000000
  eigenvalues    EBANDS =     -2702.11247813
  atomic energy  EATOM  =     12703.13999606
  Solvation  Ediel_sol  =         0.00000000
  ---------------------------------------------------
  free energy    TOTEN  =      -255.91677339 eV

  energy without entropy =     -255.91677339  energy(sigma->0) =     -255.91677339


--------------------------------------------------------------------------------------------------------




--------------------------------------- Iteration      1(  13)  ---------------------------------------


    POTLOK:  cpu time      0.0501: real time      0.0545
    SETDIJ:  cpu time      0.4024: real time      0.4077
    EDDIAG:  cpu time      0.2675: real time      0.2690
  RMM-DIIS:  cpu time      0.9072: real time      0.9161
    ORTHCH:  cpu time      0.0522: real time      0.0527
       DOS:  cpu time      0.0005: real time      0.0005
    CHARGE:  cpu time      0.1092: real time      0.1435
    MIXING:  cpu time      0.0011: real time      0.0012
    --------------------------------------------
      LOOP:  cpu time      1.7902: real time      1.8453

 eigenvalue-minimisations  :  2170
 total energy-change (2. order) :-0.2420290E+01  (-0.9283248E+00)
 number of electron     239.9999980 magnetization      -1.7260538
 augmentation part        1.9101378 magnetization      -1.6115398

 Broyden mixing:
  rms(total) = 0.70962E+00    rms(broyden)= 0.70961E+00
  rms(prec ) = 0.74280E+00
  weight for this iteration     100.00

 eigenvalues of (default mixing * dielectric matrix)
  average eigenvalue GAMMA=   1.3005
  2.5027  0.7459  0.6528

 Free energy of the ion-electron system (eV)
  ---------------------------------------------------
  alpha Z        PSCENC =       293.94800827
  Ewald energy   TEWEN  =     -8660.88142936
  -Hartree energ DENC   =     -2316.03174753
  -exchange      EXHF   =         0.00000000
  -V(xc)+E(xc)   XCENC  =       537.29080162
  PAW double counting   =      9791.37277732    -9935.30659740
  entropy T*S    EENTRO =        -0.00000000
  eigenvalues    EBANDS =     -2671.86887209
  atomic energy  EATOM  =     12703.13999606
  Solvation  Ediel_sol  =         0.00000000
  ---------------------------------------------------
  free energy    TOTEN  =      -258.33706311 eV

  energy without entropy =     -258.33706311  energy(sigma->0) =     -258.33706311


--------------------------------------------------------------------------------------------------------




--------------------------------------- Iteration      1(  14)  ---------------------------------------


    POTLOK:  cpu time      0.0511: real time      0.0535
    SETDIJ:  cpu time      0.4064: real time      0.4083
    EDDIAG:  cpu time      0.2680: real time      0.2699
  RMM-DIIS:  cpu time      1.1844: real time      1.1954
    ORTHCH:  cpu time      0.0528: real time      0.0533
       DOS:  cpu time      0.0005: real time      0.0005
    CHARGE:  cpu time      0.1155: real time      0.1472
    MIXING:  cpu time      0.0017: real time      0.0017
    --------------------------------------------
      LOOP:  cpu time      2.0805: real time      2.1298

 eigenvalue-minimisations  :  2809
 total energy-change (2. order) :-0.2275965E+00  (-0.2228737E+00)
 number of electron     239.9999980 magnetization      -0.8482135
 augmentation part        1.8880285 magnetization      -0.8198226

 Broyden mixing:
  rms(total) = 0.33324E+00    rms(broyden)= 0.33324E+00
  rms(prec ) = 0.37060E+00
  weight for this iteration     100.00

 eigenvalues of (default mixing * dielectric matrix)
  average eigenvalue GAMMA=   1.2735
  2.6230  1.1841  0.6913  0.5957

 Free energy of the ion-electron system (eV)
  ---------------------------------------------------
  alpha Z        PSCENC =       293.94800827
  Ewald energy   TEWEN  =     -8660.88142936
  -Hartree energ DENC   =     -2319.12722797
  -exchange      EXHF   =         0.00000000
  -V(xc)+E(xc)   XCENC  =       537.85009084
  PAW double counting   =      9877.63444995   -10022.43766062
  entropy T*S    EENTRO =        -0.00000000
  eigenvalues    EBANDS =     -2668.69088681
  atomic energy  EATOM  =     12703.13999606
  Solvation  Ediel_sol  =         0.00000000
  ---------------------------------------------------
  free energy    TOTEN  =      -258.56465963 eV

  energy without entropy =     -258.56465963  energy(sigma->0) =     -258.56465963


--------------------------------------------------------------------------------------------------------




--------------------------------------- Iteration      1(  15)  ---------------------------------------


    POTLOK:  cpu time      0.0514: real time      0.0522
    SETDIJ:  cpu time      0.4060: real time      0.4076
    EDDIAG:  cpu time      0.2691: real time      0.2707
  RMM-DIIS:  cpu time      0.9555: real time      0.9643
    ORTHCH:  cpu time      0.0521: real time      0.0524
       DOS:  cpu time      0.0004: real time      0.0004
    CHARGE:  cpu time      0.1137: real time      0.1309
    MIXING:  cpu time      0.0014: real time      0.0014
    --------------------------------------------
      LOOP:  cpu time      1.8495: real time      1.8798

 eigenvalue-minimisations  :  2270
 total energy-change (2. order) : 0.4013773E-01  (-0.3642757E-01)
 number of electron     239.9999980 magnetization      -0.2274122
 augmentation part        1.8382678 magnetization      -0.2011724

 Broyden mixing:
  rms(total) = 0.70581E-01    rms(broyden)= 0.70579E-01
  rms(prec ) = 0.84181E-01
  weight for this iteration     100.00

 eigenvalues of (default mixing * dielectric matrix)
  average eigenvalue GAMMA=   1.2769
  2.5396  1.6004  0.9553  0.6862  0.6030

 Free energy of the ion-electron system (eV)
  ---------------------------------------------------
  alpha Z        PSCENC =       293.94800827
  Ewald energy   TEWEN  =     -8660.88142936
  -Hartree energ DENC   =     -2314.50106404
  -exchange      EXHF   =         0.00000000
  -V(xc)+E(xc)   XCENC  =       537.49630626
  PAW double counting   =      9846.51554232    -9991.12837685
  entropy T*S    EENTRO =        -0.00000000
  eigenvalues    EBANDS =     -2673.11350457
  atomic energy  EATOM  =     12703.13999606
  Solvation  Ediel_sol  =         0.00000000
  ---------------------------------------------------
  free energy    TOTEN  =      -258.52452190 eV

  energy without entropy =     -258.52452190  energy(sigma->0) =     -258.52452190


--------------------------------------------------------------------------------------------------------




--------------------------------------- Iteration      1(  16)  ---------------------------------------


    POTLOK:  cpu time      0.0521: real time      0.0530
    SETDIJ:  cpu time      0.4064: real time      0.4080
    EDDIAG:  cpu time      0.2675: real time      0.2691
  RMM-DIIS:  cpu time      0.9702: real time      0.9791
    ORTHCH:  cpu time      0.0520: real time      0.0525
       DOS:  cpu time      0.0004: real time      0.0004
    CHARGE:  cpu time      0.1108: real time      0.1242
    MIXING:  cpu time      0.0012: real time      0.0012
    --------------------------------------------
      LOOP:  cpu time      1.8606: real time      1.8875

 eigenvalue-minimisations  :  2329
 total energy-change (2. order) :-0.2172691E-01  (-0.1240638E-01)
 number of electron     239.9999980 magnetization      -0.1098310
 augmentation part        1.8153398 magnetization      -0.0952676

 Broyden mixing:
  rms(total) = 0.31591E-01    rms(broyden)= 0.31589E-01
  rms(prec ) = 0.38827E-01
  weight for this iteration     100.00

 eigenvalues of (default mixing * dielectric matrix)
  average eigenvalue GAMMA=   1.2506
  2.4552  1.9428  1.0425  0.6205  0.6998  0.7429

 Free energy of the ion-electron system (eV)
  ---------------------------------------------------
  alpha Z        PSCENC =       293.94800827
  Ewald energy   TEWEN  =     -8660.88142936
  -Hartree energ DENC   =     -2313.93519043
  -exchange      EXHF   =         0.00000000
  -V(xc)+E(xc)   XCENC  =       537.41363247
  PAW double counting   =      9833.62146951    -9977.99264464
  entropy T*S    EENTRO =        -0.00000000
  eigenvalues    EBANDS =     -2673.86009070
  atomic energy  EATOM  =     12703.13999606
  Solvation  Ediel_sol  =         0.00000000
[...]
  0.001  -0.001  -0.000  -0.002   0.004   0.000  -0.000   0.000   0.000  -0.000  -0.000   0.000   0.000   0.000
 -0.002   0.002   0.000  -0.000   0.000   0.008  -0.000   0.000   0.000  -0.000  -0.000   0.000   0.000  -0.000
 -0.005   0.005   0.000   0.006  -0.007  -0.001   0.000  -0.000  -0.000   0.000   0.000   0.000  -0.000  -0.000
 -0.031   0.031   0.000   0.001  -0.001  -0.007   0.000  -0.000  -0.000   0.000   0.000  -0.000  -0.000   0.000
 -0.020   0.020   0.000   0.000   0.000   0.006   0.000   0.000   0.000   0.000  -0.000   0.000  -0.000  -0.000
  0.005  -0.005  -0.000  -0.007   0.006   0.001  -0.000   0.000   0.000  -0.000  -0.000  -0.000   0.000   0.000
  0.035  -0.035  -0.000  -0.000   0.000  -0.011   0.000   0.000  -0.000  -0.000   0.000  -0.000   0.000   0.000
 total augmentation occupancy for first ion, spin component:           2
 -0.000   0.000  -0.000   0.000  -0.000   0.000   0.000  -0.000  -0.000   0.000  -0.000   0.000  -0.000  -0.000
  0.000  -0.000   0.000  -0.000   0.000  -0.000  -0.000   0.000   0.000  -0.000   0.000  -0.000   0.000   0.000
 -0.000   0.000   0.000  -0.000   0.000   0.000  -0.000   0.000   0.000   0.000   0.000   0.000  -0.000  -0.000
  0.000  -0.000  -0.000  -0.000   0.000   0.000  -0.000   0.000  -0.000  -0.000  -0.000  -0.000   0.000   0.000
 -0.000   0.000   0.000   0.000  -0.000  -0.000   0.000  -0.000   0.000   0.000   0.000   0.000  -0.000  -0.000
  0.000  -0.000   0.000   0.000  -0.000  -0.000  -0.000   0.000   0.000   0.000   0.000  -0.000  -0.000   0.000
  0.000  -0.000  -0.000  -0.000   0.000  -0.000  -0.000   0.000  -0.000  -0.000  -0.000  -0.000   0.000   0.000
 -0.000   0.000   0.000   0.000  -0.000   0.000   0.000  -0.000   0.000   0.000   0.000   0.000  -0.000  -0.000
 -0.000   0.000   0.000  -0.000   0.000   0.000  -0.000   0.000   0.000  -0.000   0.000   0.000   0.000  -0.000
  0.000  -0.000   0.000  -0.000   0.000   0.000  -0.000   0.000  -0.000  -0.000  -0.000  -0.000   0.000   0.000
 -0.000   0.000   0.000  -0.000   0.000   0.000  -0.000   0.000   0.000  -0.000  -0.000   0.000   0.000  -0.000
  0.000  -0.000   0.000  -0.000   0.000  -0.000  -0.000   0.000   0.000  -0.000   0.000  -0.000  -0.000  -0.000
 -0.000   0.000  -0.000   0.000  -0.000  -0.000   0.000  -0.000   0.000   0.000   0.000  -0.000  -0.000  -0.000
 -0.000   0.000  -0.000   0.000  -0.000   0.000   0.000  -0.000  -0.000   0.000  -0.000  -0.000  -0.000   0.000


------------------------ aborting loop because EDIFF is reached ----------------------------------------


    CHARGE:  cpu time      0.0985: real time      0.1012
    FORLOC:  cpu time      0.0037: real time      0.0037
    FORNL :  cpu time      0.3015: real time      0.3036
    STRESS:  cpu time      0.8923: real time      0.8977
    FORCOR:  cpu time      0.0497: real time      0.0500
    FORHAR:  cpu time      0.0085: real time      0.0085
    MIXING:  cpu time      0.0007: real time      0.0007
    OFIELD:  cpu time      0.0000: real time      0.0000

 ---------------------------------------------------------------------------------------------

         DFTD3 V3.0 Rev 1        
 Edisp (eV)  -13.22159

 E6    (eV) :    -8.1500
 E8    (eV) :    -5.0716
 % E8        : 38.36
    FORVDW:  cpu time      0.2898: real time      0.2920

  FORCE on cell =-STRESS in cart. coord.  units (eV):
  Direction    XX          YY          ZZ          XY          YZ          ZX
  --------------------------------------------------------------------------------------
  Alpha Z   293.94801   293.94801   293.94801
  Ewald   -2946.29965 -2857.34859 -2857.34859    27.78457   -15.33135   -27.78457
  Hartree   736.11717   790.36066   790.36066    20.17611   -13.97358   -20.17611
  E(xc)    -947.73184  -947.65092  -947.65093    -0.00590    -0.08007     0.00590
  Local   -1492.88088 -1632.94394 -1632.94395   -47.69653    30.35779    47.69653
  n-local  1480.66332  1481.58375  1481.54717    -0.50841     0.15200    -0.42991
  augment  -356.55899  -356.64026  -356.64061    -0.10294    -0.29182     0.10341
  Kinetic  3245.55841  3243.32719  3243.30772     0.09169     3.13894    -1.56005
  Fock        0.00000     0.00000     0.00000     0.00000     0.00000     0.00000
  vdW       -14.01417   -14.02275   -14.02275    -0.02089    -0.02244     0.02089
  -------------------------------------------------------------------------------------
  Total      -1.19861     0.58494     0.58494     0.92075     3.94952    -0.92075
  in kB      -2.07949     1.01482     1.01482     1.59742     6.85210    -1.59742
  external pressure =       -0.02 kB  Pullay stress =        0.00 kB


 VOLUME and BASIS-vectors are now :
 -----------------------------------------------------------------------------
  energy-cutoff  :      520.00
  volume of cell :      923.49
      direct lattice vectors                 reciprocal lattice vectors
     9.738164572  0.000000000  0.000000000     0.102688755  0.000000000  0.000000000
     0.000000000  9.738164572  0.000000000     0.000000000  0.102688755  0.000000000
     0.000000000  0.000000000  9.738164572     0.000000000  0.000000000  0.102688755

  length of vectors
     9.738164572  9.738164572  9.738164572     0.102688755  0.102688755  0.102688755


 FORCES acting on ions
    electron-ion (+dipol)            ewald-force                    non-local-force                 convergence-correction
 -----------------------------------------------------------------------------------------------
   0.271E+01 -.177E+01 0.177E+01   -.358E+01 0.154E+01 -.154E+01   0.871E+00 0.239E+00 -.239E+00   -.930E-04 -.389E-05 0.389E-05
   0.262E+00 -.201E+01 0.201E+01   -.964E+00 0.164E+01 -.164E+01   0.697E+00 0.370E+00 -.370E+00   0.540E-04 0.375E-04 -.375E-04
   0.149E+02 -.108E+01 -.330E+01   -.141E+02 0.320E-01 0.429E+01   -.720E+00 0.105E+01 -.988E+00   0.161E-04 -.933E-05 -.359E-04
   0.149E+02 0.330E+01 0.108E+01   -.141E+02 -.429E+01 -.320E-01   -.720E+00 0.988E+00 -.105E+01   0.161E-04 0.359E-04 0.932E-05
   0.851E+01 0.456E+01 0.106E+02   -.748E+01 -.345E+01 -.113E+02   -.103E+01 -.111E+01 0.767E+00   -.646E-04 -.757E-04 -.401E-04
   0.276E+01 0.591E+01 0.158E+02   -.190E+01 -.685E+01 -.150E+02   -.860E+00 0.946E+00 -.755E+00   0.405E-05 0.686E-05 -.468E-04
   -.690E+01 0.159E+02 0.737E+01   0.571E+01 -.146E+02 -.674E+01   0.120E+01 -.133E+01 -.626E+00   -.114E-04 0.239E-04 0.190E-04
   -.141E+02 -.743E+01 -.546E+01   0.141E+02 0.802E+01 0.472E+01   0.287E-01 -.589E+00 0.734E+00   -.133E-03 -.169E-03 -.104E-03
   -.122E+02 -.510E+01 -.793E+01   0.127E+02 0.429E+01 0.863E+01   -.510E+00 0.798E+00 -.708E+00   -.554E-04 -.979E-04 -.191E-04
   -.734E+01 -.243E+01 0.110E+02   0.610E+01 0.344E+01 -.933E+01   0.124E+01 -.101E+01 -.166E+01   -.855E-05 -.297E-04 0.443E-04
   -.612E+01 -.311E+01 -.749E+01   0.684E+01 0.265E+01 0.849E+01   -.725E+00 0.460E+00 -.101E+01   -.387E-04 -.371E-04 -.929E-05
   0.740E+01 0.330E+01 0.502E+01   -.651E+01 -.253E+01 -.617E+01   -.889E+00 -.765E+00 0.116E+01   0.286E-04 -.263E-04 0.230E-04
   -.734E+01 -.110E+02 0.243E+01   0.610E+01 0.933E+01 -.344E+01   0.124E+01 0.166E+01 0.101E+01   -.855E-05 -.443E-04 0.297E-04
   -.122E+02 0.793E+01 0.510E+01   0.127E+02 -.863E+01 -.429E+01   -.510E+00 0.708E+00 -.798E+00   -.554E-04 0.191E-04 0.979E-04
   -.612E+01 0.749E+01 0.311E+01   0.684E+01 -.849E+01 -.265E+01   -.725E+00 0.101E+01 -.460E+00   -.387E-04 0.929E-05 0.371E-04
   0.740E+01 -.502E+01 -.330E+01   -.651E+01 0.617E+01 0.253E+01   -.889E+00 -.116E+01 0.765E+00   0.286E-04 -.230E-04 0.263E-04
   0.276E+01 -.158E+02 -.591E+01   -.190E+01 0.150E+02 0.685E+01   -.860E+00 0.755E+00 -.946E+00   0.405E-05 0.468E-04 -.685E-05
   0.851E+01 -.106E+02 -.456E+01   -.748E+01 0.113E+02 0.345E+01   -.103E+01 -.767E+00 0.111E+01   -.646E-04 0.401E-04 0.757E-04
   -.690E+01 -.737E+01 -.159E+02   0.571E+01 0.674E+01 0.146E+02   0.120E+01 0.626E+00 0.133E+01   -.114E-04 -.190E-04 -.239E-04
   -.141E+02 0.546E+01 0.743E+01   0.141E+02 -.472E+01 -.802E+01   0.287E-01 -.734E+00 0.589E+00   -.133E-03 0.104E-03 0.169E-03
   0.298E+01 -.386E+01 -.758E+01   -.398E+01 0.314E+01 0.642E+01   0.100E+01 0.721E+00 0.116E+01   0.109E-03 -.958E-06 -.169E-03
   0.298E+01 0.758E+01 0.386E+01   -.398E+01 -.642E+01 -.314E+01   0.100E+01 -.116E+01 -.721E+00   0.109E-03 0.169E-03 0.953E-06
   -.586E+00 -.754E+01 0.754E+01   0.144E+01 0.629E+01 -.629E+01   -.852E+00 0.126E+01 -.126E+01   0.145E-03 -.510E-04 0.510E-04
   0.150E+02 0.455E+01 -.455E+01   -.141E+02 -.368E+01 0.368E+01   -.944E+00 -.882E+00 0.882E+00   0.197E-03 -.257E-04 0.257E-04
   -.738E+01 0.536E+01 -.402E+01   0.716E+01 -.548E+01 0.337E+01   0.226E+00 0.122E+00 0.650E+00   0.421E-04 0.372E-04 0.207E-03
   -.738E+01 0.402E+01 -.536E+01   0.716E+01 -.337E+01 0.548E+01   0.226E+00 -.650E+00 -.122E+00   0.421E-04 -.207E-03 -.372E-04
   -.115E+01 -.631E+01 0.631E+01   0.130E+01 0.576E+01 -.576E+01   -.145E+00 0.559E+00 -.559E+00   -.107E-03 0.753E-04 -.753E-04
   0.299E+01 0.853E+01 -.853E+01   -.312E+01 -.894E+01 0.894E+01   0.129E+00 0.396E+00 -.396E+00   -.459E-04 -.180E-05 0.180E-05
   -.276E+02 0.490E+02 -.490E+02   0.305E+02 -.518E+02 0.518E+02   -.291E+01 0.279E+01 -.279E+01   0.119E-04 -.179E-04 0.179E-04
   -.522E+02 -.243E+02 0.243E+02   0.562E+02 0.271E+02 -.271E+02   -.405E+01 -.286E+01 0.286E+01   -.156E-03 -.132E-03 0.132E-03
   0.259E+02 0.627E+02 0.314E+02   -.286E+02 -.668E+02 -.343E+02   0.275E+01 0.411E+01 0.289E+01   0.353E-05 0.113E-03 0.101E-03
   0.259E+02 -.314E+02 -.627E+02   -.286E+02 0.343E+02 0.668E+02   0.275E+01 -.289E+01 -.411E+01   0.353E-05 -.101E-03 -.113E-03
   0.432E+02 -.338E+02 -.433E+02   -.466E+02 0.360E+02 0.469E+02   0.340E+01 -.225E+01 -.366E+01   -.189E-03 -.142E-03 -.170E-03
   0.432E+02 0.433E+02 0.338E+02   -.466E+02 -.469E+02 -.360E+02   0.340E+01 0.366E+01 0.225E+01   -.189E-03 0.170E-03 0.142E-03
   -.363E+02 -.377E+02 0.377E+02   0.394E+02 0.411E+02 -.411E+02   -.314E+01 -.349E+01 0.349E+01   -.752E-04 0.160E-04 -.160E-04
   -.646E+02 0.199E+02 -.199E+02   0.691E+02 -.222E+02 0.222E+02   -.452E+01 0.224E+01 -.224E+01   -.262E-03 0.645E-04 -.645E-04
   -.494E+02 -.451E+02 0.348E+02   0.523E+02 0.483E+02 -.372E+02   -.296E+01 -.322E+01 0.242E+01   0.181E-04 -.485E-04 -.957E-04
   -.419E+02 0.324E+02 -.424E+02   0.445E+02 -.357E+02 0.462E+02   -.263E+01 0.327E+01 -.383E+01   -.188E-03 -.151E-03 -.141E-03
   0.184E+02 -.518E+02 -.544E+02   -.205E+02 0.555E+02 0.574E+02   0.212E+01 -.369E+01 -.295E+01   0.842E-04 -.264E-03 -.708E-04
   0.444E+02 0.346E+02 0.449E+02   -.478E+02 -.368E+02 -.486E+02   0.336E+01 0.223E+01 0.376E+01   0.114E-03 -.107E-03 -.381E-04
   -.494E+02 -.348E+02 0.451E+02   0.523E+02 0.372E+02 -.483E+02   -.296E+01 -.242E+01 0.322E+01   0.181E-04 0.957E-04 0.485E-04
   -.419E+02 0.424E+02 -.324E+02   0.445E+02 -.462E+02 0.357E+02   -.263E+01 0.383E+01 -.327E+01   -.188E-03 0.141E-03 0.151E-03
   0.444E+02 -.449E+02 -.346E+02   -.478E+02 0.486E+02 0.368E+02   0.336E+01 -.376E+01 -.223E+01   0.114E-03 0.381E-04 0.107E-03
   0.184E+02 0.544E+02 0.518E+02   -.205E+02 -.574E+02 -.555E+02   0.212E+01 0.295E+01 0.369E+01   0.842E-04 0.708E-04 0.264E-03
   -.314E+02 -.310E+01 0.310E+01   0.315E+02 0.326E+01 -.326E+01   -.140E+00 -.165E+00 0.165E+00   -.378E-03 -.176E-03 0.176E-03
   0.119E+02 -.740E+01 0.740E+01   -.123E+02 0.768E+01 -.768E+01   0.381E+00 -.282E+00 0.282E+00   0.666E-04 -.958E-05 0.958E-05
   -.122E+02 0.197E+02 -.114E+02   0.125E+02 -.201E+02 0.116E+02   -.323E+00 0.464E+00 -.206E+00   0.200E-04 0.111E-03 0.576E-06
   -.122E+02 0.114E+02 -.197E+02   0.125E+02 -.116E+02 0.201E+02   -.323E+00 0.206E+00 -.464E+00   0.200E-04 -.584E-06 -.111E-03
   0.501E+02 0.702E+01 0.523E+02   -.509E+02 -.716E+01 -.532E+02   0.836E+00 0.140E+00 0.908E+00   0.230E-03 -.114E-04 0.147E-03
   0.501E+02 -.523E+02 -.702E+01   -.509E+02 0.532E+02 0.716E+01   0.836E+00 -.908E+00 -.140E+00   0.230E-03 -.147E-03 0.114E-04
   0.416E+02 -.217E+02 0.217E+02   -.423E+02 0.220E+02 -.220E+02   0.728E+00 -.355E+00 0.355E+00   0.305E-03 -.135E-03 0.135E-03
   0.200E+02 0.155E+02 -.155E+02   -.200E+02 -.157E+02 0.157E+02   0.412E-01 0.241E+00 -.241E+00   0.117E-02 0.644E-03 -.644E-03
 -----------------------------------------------------------------------------------------------
   0.283E+01 -.235E+01 0.235E+01   0.213E-13 -.515E-13 0.178E-13   -.283E+01 0.234E+01 -.234E+01   0.791E-03 -.198E-03 0.198E-03
 
 
 POSITION                                       TOTAL-FORCE (eV/Angst)
 -----------------------------------------------------------------------------------
      9.66134      2.31572      2.55206        -0.000016      0.000182     -0.000182
      9.39802      7.34181      7.26413        -0.000054      0.000204     -0.000204
      0.16041      2.82746      6.84412         0.000002     -0.000042      0.000164
      0.16041      7.76182      2.04032         0.000002     -0.000164      0.000042
      1.83190      1.77887      9.38409        -0.000086     -0.000108     -0.000045
      2.02964      7.77486      0.06034         0.000086     -0.000083     -0.000050
      8.02456      1.49979      0.40197        -0.000013     -0.000192      0.000042
      7.20498      7.01916      9.65026         0.000626      0.000591     -0.000111
      2.20904      9.60527      2.04157        -0.000185     -0.000062     -0.000103
      3.13803      0.44501      6.60159         0.000161      0.000056     -0.000096
      6.68331      9.46532      7.01346        -0.000295      0.000054     -0.000081
      6.77258      0.08628      2.96108        -0.000060     -0.000019      0.000008
      3.13803      8.00435      4.42276         0.000161      0.000096     -0.000056
      2.20904      2.82620      5.00067        -0.000185      0.000103      0.000062
      6.68331      7.59248      5.14062        -0.000295      0.000081     -0.000054
      6.77258      1.90669      4.78149        -0.000060     -0.000008      0.000019
      2.02964      4.80743      6.83108         0.000086      0.000050      0.000083
      1.83190      5.22185      3.08891        -0.000086      0.000045      0.000108
      8.02456      4.46581      3.36799        -0.000013     -0.000042      0.000192
      7.20498      4.95567      7.58678         0.000626      0.000111     -0.000591
      4.54449      3.14853      8.08137        -0.000054      0.000094      0.000227
      4.54449      6.52457      1.71924        -0.000054     -0.000227     -0.000094
      5.40155      3.20779      1.65998        -0.000043      0.000140     -0.000140
      4.91406      6.72090      7.88504         0.000012     -0.000289      0.000289
      4.89985      4.86176      4.79076         0.000189     -0.000019      0.000838
      4.89985      0.07702      0.00602         0.000189     -0.000838      0.000019
      0.06474      4.74803      0.11974         0.000421      0.000444     -0.000444
      0.05196      9.61409      4.99184        -0.000093     -0.000004      0.000004
      1.35063      8.49386      6.11207         0.000013      0.000155     -0.000155
      1.32632      1.02292      3.84485        -0.000210     -0.000021      0.000021
      8.57661      8.41416      3.85535         0.000103      0.000067      0.000145
      8.57661      1.01242      6.19177         0.000103     -0.000145     -0.000067
      8.63191      5.85449      1.39396         0.000021     -0.000133      0.000075
      8.63191      3.47381      8.75145         0.000021     -0.000075      0.000133
      1.07517      6.02016      8.58578        -0.000332     -0.000134      0.000134
      1.38663      3.65147      1.21630        -0.000039      0.000102     -0.000102
      6.13678      1.29769      8.65344        -0.000044      0.000020      0.000087
      5.96597      8.52053      1.20026        -0.000131      0.000180     -0.000072
      3.78180      1.35043      1.14493        -0.000045     -0.000053      0.000022
      3.71628      8.73069      8.45677         0.000246      0.000194      0.000157
      6.13678      5.95250      3.57008        -0.000044     -0.000087     -0.000020
      5.96597      3.66751      6.08540        -0.000131      0.000072     -0.000180
      3.71628      6.14917      5.87524         0.000246     -0.000157     -0.000194
      3.78180      3.72285      3.51734        -0.000045     -0.000022      0.000053
      7.14833      7.22813      7.37781         0.000025      0.000072     -0.000072
      7.38685      2.30501      2.56276        -0.000009     -0.000004      0.000004
      2.44244      7.33843      2.30868        -0.000050      0.000009      0.000009
      2.44244      2.55909      7.26751        -0.000050     -0.000009     -0.000009
      0.30724      9.68673      0.40135        -0.000043     -0.000176     -0.000059
      0.30724      4.46643      4.91920        -0.000043      0.000059      0.000176
      5.19264      9.61229      4.99365         0.000005      0.000084     -0.000084
      5.12936      5.00479      9.60115        -0.000535     -0.000154      0.000154
 -----------------------------------------------------------------------------------
    total drift:                                0.002966     -0.003005      0.002985


--------------------------------------------------------------------------------------------------------



  FREE ENERGIE OF THE ION-ELECTRON SYSTEM (eV)
  ---------------------------------------------------
  free  energy   TOTEN  =      -271.77676909 eV

  energy  without entropy=     -271.77676909  energy(sigma->0) =     -271.77676909
 
 d Force = 0.6849833E-06[ 0.349E-06, 0.102E-05]  d Energy = 0.9886411E-06-0.304E-06
 d Force = 0.1827834E-01[ 0.183E-01, 0.183E-01]  d Ewald  = 0.1827834E-01 0.164E-10


--------------------------------------------------------------------------------------------------------


    POTLOK:  cpu time      0.4557: real time      0.4574


--------------------------------------------------------------------------------------------------------


 stress matrix after NEB project (eV)
     -1.19861      0.92075     -0.92075
      0.92075      0.58494      3.94952
     -0.92075      3.94952      0.58494
  FORCES: max atom, RMS     0.000868    0.000335
  FORCE total and by dimension    0.002417    0.000838
  Stress total and by dimension    6.058833    3.949519
 Conjugate gradient step on ions:
 trial-energy change:   -0.000001  1 .order   -0.000001   -0.000001   -0.000000
  (g-gl).g = 0.710E-06      g.g   = 0.774E-06  gl.gl    = 0.138E-05
 g(Force)  = 0.774E-06   g(Stress)= 0.000E+00 ortho     = 0.643E-07
 gamma     =   0.51339
 trial     =   1.26469
 opt step  =   1.92051  (harmonic =   1.92051) maximal distance =0.00011613
 next E    =  -271.776769   (d E  =  -0.00000)


--------------------------------------------------------------------------------------------------------


  
 reached required accuracy - stopping structural energy minimisation
     LOOP+:  cpu time      6.1692: real time      6.2567
    4ORBIT:  cpu time      0.0000: real time      0.0000

 total amount of memory used by VASP MPI-rank0    46822. kBytes
=======================================================================

   base      :      30000. kBytes
   nonlr-proj:       6306. kBytes
   fftplans  :       1747. kBytes
   grid      :       5278. kBytes
   one-center:         62. kBytes
   wavefun   :       3429. kBytes
 
  
  
 General timing and accounting informations for this job:
 ========================================================
  
                  Total CPU time used (sec):       85.760
                            User time (sec):       84.269
                          System time (sec):        1.491
                         Elapsed time (sec):       90.719
  
                   Maximum memory used (kb):      401096.
                   Average memory used (kb):          N/A
  
                          Minor page faults:        71797
                          Major page faults:          133
                 Voluntary context switches:         6585
