<?xml version="1.0" encoding="ISO-8859-1"?>
<modeling>
 <generator>
  <i name="program" type="string">vasp </i>
  <i name="version" type="string">6.4.1  </i>
  <i name="subversion" type="string">05Apr23 (build Jun 07 2023 15:38:11) complex                          parallel </i>
  <i name="platform" type="string">LinuxIFC </i>
  <i name="date" type="string">2023 10 16 </i>
  <i name="time" type="string">22:18:03 </i>
 </generator>
 <incar>
  <i type="string" name="PREC">Accu</i>
  <i type="string" name="ALGO">F</i>
  <i type="logical" name="LDIAG"> T  </i>
  <i type="int" name="ISPIN">     2</i>
  <i type="int" name="NELM">   100</i>
  <i type="int" name="NELMDL">   -10</i>
  <i type="int" name="IBRION">     2</i>
  <i name="EDIFF">      0.00000100</i>
  <i name="EDIFFG">     -0.00100000</i>
  <i type="int" name="NSW">  1000</i>
  <i type="int" name="ISIF">     2</i>
  <i name="ENCUT">    520.00000000</i>
  <i name="POTIM">      0.20000000</i>
  <i type="string" name="LREAL">Auto</i>
  <i type="logical" name="LPLANE"> T  </i>
  <i type="int" name="ISMEAR">     0</i>
  <i name="SIGMA">      0.03000000</i>
  <i type="int" name="LMAXMIX">     4</i>
  <i type="logical" name="LWAVE"> F  </i>
  <i type="logical" name="LCHARG"> F  </i>
  <i type="logical" name="LASPH"> T  </i>
  <i type="string" name="GGA">PE</i>
  <i type="int" name="IVDW">    12</i>
 </incar>
 <primitive_cell>
  <structure name="primitive_cell" >
   <crystal>
    <varray name="basis" >
     <v>       9.73816457       0.00000000       0.00000000 </v>
     <v>       0.00000000       9.73816457       0.00000000 </v>
     <v>       0.00000000       0.00000000       9.73816457 </v>
    </varray>
    <i name="volume">    923.48815450 </i>
    <varray name="rec_basis" >
     <v>       0.10268876       0.00000000       0.00000000 </v>
     <v>       0.00000000       0.10268876       0.00000000 </v>
     <v>       0.00000000       0.00000000       0.10268876 </v>
    </varray>
   </crystal>
   <varray name="positions" >
    <v>       0.99211086       0.23779600       0.26206959 </v>
    <v>       0.96507087       0.75391708       0.74594852 </v>
    <v>       0.01647220       0.29034836       0.70281280 </v>
    <v>       0.01647220       0.79705279       0.20951723 </v>
    <v>       0.18811697       0.18267250       0.96364049 </v>
    <v>       0.20842022       0.79839138       0.00619700 </v>
    <v>       0.82403228       0.15401557       0.04127644 </v>
    <v>       0.73985288       0.72077314       0.99097480 </v>
    <v>       0.22684538       0.98635350       0.20964757 </v>
    <v>       0.32223603       0.04569658       0.67791147 </v>
    <v>       0.68630580       0.97198068       0.72020514 </v>
    <v>       0.69546916       0.00885999       0.30406885 </v>
    <v>       0.32223603       0.82195412       0.45416902 </v>
    <v>       0.22684538       0.29021802       0.51351210 </v>
    <v>       0.68630580       0.77966046       0.52788491 </v>
    <v>       0.69546916       0.19579675       0.49100560 </v>
    <v>       0.20842022       0.49366860       0.70147422 </v>
    <v>       0.18811697       0.53622510       0.31719309 </v>
    <v>       0.82403228       0.45858915       0.34585002 </v>
    <v>       0.73985288       0.50889080       0.77909245 </v>
    <v>       0.46666852       0.32331755       0.82985970 </v>
    <v>       0.46666852       0.67000589       0.17654804 </v>
    <v>       0.55467958       0.32940085       0.17046475 </v>
    <v>       0.50461717       0.69016935       0.80969624 </v>
    <v>       0.50316106       0.49924974       0.49196602 </v>
    <v>       0.50316106       0.00789957       0.00061586 </v>
    <v>       0.00665171       0.48757452       0.01229107 </v>
    <v>       0.00533494       0.98725916       0.51260643 </v>
    <v>       0.13868947       0.87222417       0.62764143 </v>
    <v>       0.13619709       0.10503979       0.39482580 </v>
    <v>       0.88072343       0.86404415       0.39590232 </v>
    <v>       0.88072343       0.10396328       0.63582144 </v>
    <v>       0.88640149       0.60119174       0.14314103 </v>
    <v>       0.88640149       0.35672456       0.89867385 </v>
    <v>       0.11040725       0.61819600       0.88166960 </v>
    <v>       0.14238668       0.37496470       0.12490089 </v>
    <v>       0.63017822       0.13325730       0.88860967 </v>
    <v>       0.61263528       0.87496931       0.12324863 </v>
    <v>       0.38834857       0.13867647       0.11757106 </v>
    <v>       0.38162159       0.89654849       0.86841930 </v>
    <v>       0.63017822       0.61125593       0.36660830 </v>
    <v>       0.61263528       0.37661697       0.62489628 </v>
    <v>       0.38162159       0.63144629       0.60331711 </v>
    <v>       0.38834857       0.38229453       0.36118912 </v>
    <v>       0.73405439       0.74224595       0.75761964 </v>
    <v>       0.75854830       0.23669847       0.26316712 </v>
    <v>       0.25080977       0.75357537       0.23707538 </v>
    <v>       0.25080977       0.26279021       0.74629022 </v>
    <v>       0.03155653       0.99472272       0.04122012 </v>
    <v>       0.03155653       0.45864547       0.50514288 </v>
    <v>       0.53323266       0.98707019       0.51279540 </v>
    <v>       0.52673899       0.51394156       0.98592403 </v>
   </varray>
  </structure>
  <varray name="primitive_index" >
   <v type="int" >        1 </v>
   <v type="int" >        2 </v>
   <v type="int" >        3 </v>
   <v type="int" >        4 </v>
   <v type="int" >        5 </v>
   <v type="int" >        6 </v>
   <v type="int" >        7 </v>
   <v type="int" >        8 </v>
   <v type="int" >        9 </v>
   <v type="int" >       10 </v>
   <v type="int" >       11 </v>
   <v type="int" >       12 </v>
   <v type="int" >       13 </v>
   <v type="int" >       14 </v>
   <v type="int" >       15 </v>
   <v type="int" >       16 </v>
   <v type="int" >       17 </v>
   <v type="int" >       18 </v>
   <v type="int" >       19 </v>
   <v type="int" >       20 </v>
   <v type="int" >       21 </v>
   <v type="int" >       22 </v>
   <v type="int" >       23 </v>
   <v type="int" >       24 </v>
   <v type="int" >       25 </v>
   <v type="int" >       26 </v>
   <v type="int" >       27 </v>
   <v type="int" >       28 </v>
   <v type="int" >       29 </v>
   <v type="int" >       30 </v>
   <v type="int" >       31 </v>
   <v type="int" >       32 </v>
   <v type="int" >       33 </v>
   <v type="int" >       34 </v>
   <v type="int" >       35 </v>
   <v type="int" >       36 </v>
   <v type="int" >       37 </v>
   <v type="int" >       38 </v>
   <v type="int" >       39 </v>
   <v type="int" >       40 </v>
   <v type="int" >       41 </v>
   <v type="int" >       42 </v>
   <v type="int" >       43 </v>
   <v type="int" >       44 </v>
   <v type="int" >       45 </v>
   <v type="int" >       46 </v>
   <v type="int" >       47 </v>
   <v type="int" >       48 </v>
   <v type="int" >       49 </v>
   <v type="int" >       50 </v>
   <v type="int" >       51 </v>
   <v type="int" >       52 </v>
  </varray>
 </primitive_cell>
 <kpoints>
  <generation param="Monkhorst-Pack">
   <v type="int" name="divisions">       2        2        2 </v>
   <v name="usershift">      0.00000000       0.00000000       0.00000000 </v>
   <v name="genvec1">      0.50000000       0.00000000       0.00000000 </v>
   <v name="genvec2">      0.00000000       0.50000000       0.00000000 </v>
   <v name="genvec3">      0.00000000       0.00000000       0.50000000 </v>
   <v name="shift">      0.50000000       0.50000000       0.50000000 </v>
  </generation>
  <varray name="kpointlist" >
   <v>       0.25000000       0.25000000       0.25000000 </v>
   <v>      -0.25000000      -0.25000000       0.25000000 </v>
   <v>       0.25000000      -0.25000000       0.25000000 </v>
  </varray>
  <varray name="weights" >
   <v>       0.50000000 </v>
   <v>       0.25000000 </v>
   <v>       0.25000000 </v>
  </varray>
 </kpoints>
 <parameters>
  <separator name="general" >
   <i type="string" name="SYSTEM">unknown system</i>
   <i type="logical" name="LCOMPAT"> F  </i>
  </separator>
  <separator name="electronic" >
   <i type="string" name="PREC">accu</i>
   <i name="ENMAX">    520.00000000</i>
   <i name="ENAUG">   1041.69900000</i>
   <i name="EDIFF">      0.00000100</i>
   <i type="int" name="IALGO">    68</i>
   <i type="int" name="IWAVPR">    11</i>
   <i type="int" name="NBANDS">   176</i>
   <i type="int" name="NBANDSLOW">    -1</i>
   <i type="int" name="NBANDSHIGH">    -1</i>
   <i name="NELECT">    240.00000000</i>
   <i type="int" name="TURBO">     0</i>
   <i type="int" name="IRESTART">     0</i>
   <i type="int" name="NREBOOT">     0</i>
   <i type="int" name="NMIN">     0</i>
   <i name="EREF">      0.00000000</i>
   <separator name="electronic smearing" >
    <i type="int" name="ISMEAR">     0</i>
    <i name="SIGMA">      0.03000000</i>
    <i name="KSPACING">      0.50000000</i>
    <i type="logical" name="KGAMMA"> T  </i>
    <i type="logical" name="KBLOWUP"> T  </i>
   </separator>
   <separator name="electronic projectors" >
    <i type="logical" name="LREAL"> T  </i>
    <v name="ROPT">     -0.00025000     -0.00025000     -0.00025000     -0.00025000</v>
    <i type="int" name="LMAXPAW">  -100</i>
    <i type="int" name="LMAXMIX">     4</i>
    <i type="logical" name="NLSPLINE"> F  </i>
   </separator>
   <separator name="electronic startup" >
    <i type="int" name="ISTART">     0</i>
    <i type="int" name="ICHARG">     2</i>
    <i type="int" name="INIWAV">     1</i>
   </separator>
   <separator name="electronic spin" >
    <i type="int" name="ISPIN">     2</i>
    <i type="logical" name="LNONCOLLINEAR"> F  </i>
    <v name="MAGMOM">      1.00000000      1.00000000      1.00000000      1.00000000      1.00000000      1.00000000      1.00000000      1.00000000      1.00000000      1.00000000      1.00000000      1.00000000      1.00000000      1.00000000      1.00000000      1.00000000      1.00000000      1.00000000      1.00000000      1.00000000
      1.00000000      1.00000000      1.00000000      1.00000000      1.00000000      1.00000000      1.00000000      1.00000000      1.00000000      1.00000000      1.00000000      1.00000000      1.00000000      1.00000000      1.00000000      1.00000000      1.00000000      1.00000000      1.00000000      1.00000000
      1.00000000      1.00000000      1.00000000      1.00000000      1.00000000      1.00000000      1.00000000      1.00000000      1.00000000      1.00000000      1.00000000      1.00000000</v>
    <i name="NUPDOWN">     -1.00000000</i>
    <i type="logical" name="LSORBIT"> F  </i>
    <v name="SAXIS">      0.00000000      0.00000000      1.00000000</v>
    <i type="logical" name="LSPIRAL"> F  </i>
    <v name="QSPIRAL">      0.00000000      0.00000000      0.00000000</v>
    <i type="logical" name="LZEROZ"> F  </i>
   </separator>
   <separator name="electronic exchange-correlation" >
    <i type="logical" name="LASPH"> T  </i>
    <i type="logical" name="LMETAGGA"> F  </i>
   </separator>
   <separator name="electronic convergence" >
    <i type="int" name="NELM">   100</i>
    <i type="int" name="NELMDL">   -10</i>
    <i type="int" name="NELMIN">     2</i>
    <i name="ENINI">    520.00000000</i>
    <separator name="electronic convergence detail" >
     <i type="logical" name="LDIAG"> T  </i>
     <i type="logical" name="LSUBROT"> F  </i>
     <i name="WEIMIN">      0.00100000</i>
     <i name="EBREAK">      0.00000000</i>
     <i name="DEPER">      0.30000000</i>
     <i type="int" name="NRMM">     4</i>
     <i name="TIME">      0.40000000</i>
    </separator>
   </separator>
   <separator name="electronic mixer" >
    <i name="AMIX">      0.40000000</i>
    <i name="BMIX">      1.00000000</i>
    <i name="AMIN">      0.10000000</i>
    <i name="AMIX_MAG">      1.60000000</i>
    <i name="BMIX_MAG">      1.00000000</i>
    <separator name="electronic mixer details" >
     <i type="int" name="IMIX">     4</i>
     <i type="logical" name="MIXFIRST"> F  </i>
     <i type="int" name="MAXMIX">   -45</i>
     <i name="WC">    100.00000000</i>
     <i type="int" name="INIMIX">     1</i>
     <i type="int" name="MIXPRE">     1</i>
     <i type="int" name="MREMOVE">     5</i>
    </separator>
   </separator>
   <separator name="electronic dipolcorrection" >
    <i type="logical" name="LDIPOL"> F  </i>
    <i type="logical" name="LMONO"> F  </i>
    <i type="int" name="IDIPOL">     0</i>
    <i name="EPSILON">      1.00000000</i>
    <v name="DIPOL">   -100.00000000   -100.00000000   -100.00000000</v>
    <i name="EFIELD">      0.00000000</i>
   </separator>
  </separator>
  <separator name="grids" >
   <i type="int" name="NGX">    72</i>
   <i type="int" name="NGY">    72</i>
   <i type="int" name="NGZ">    72</i>
   <i type="int" name="NGXF">   144</i>
   <i type="int" name="NGYF">   144</i>
   <i type="int" name="NGZF">   144</i>
   <i type="logical" name="ADDGRID"> F  </i>
  </separator>
  <separator name="ionic" >
   <i type="int" name="NSW">  1000</i>
   <i type="int" name="IBRION">     2</i>
   <i type="int" name="MDALGO">     0</i>
   <i type="int" name="ISIF">     2</i>
   <i name="PSTRESS">      0.00000000</i>
   <i name="EDIFFG">     -0.00100000</i>
   <i type="int" name="NFREE">     1</i>
   <i name="POTIM">      0.20000000</i>
   <i name="SMASS">     -3.00000000</i>
   <i name="SCALEE">      1.00000000</i>
  </separator>
  <separator name="ionic md" >
   <i name="TEBEG">      0.00010000</i>
   <i name="TEEND">      0.00010000</i>
   <i type="int" name="NBLOCK">     1</i>
   <i type="int" name="KBLOCK">  1000</i>
   <i type="int" name="NPACO">   256</i>
   <i name="APACO">     10.00000000</i>
  </separator>
  <separator name="symmetry" >
   <i type="int" name="ISYM">     2</i>
   <i name="SYMPREC">      0.00001000</i>
  </separator>
  <separator name="dos" >
   <i type="int" name="LORBIT">     0</i>
   <v name="RWIGS">     -1.00000000     -1.00000000     -1.00000000     -1.00000000</v>
   <i type="int" name="NEDOS">   301</i>
   <i name="EMIN">     10.00000000</i>
   <i name="EMAX">    -10.00000000</i>
   <i name="EFERMI">      0.00000000</i>
  </separator>
  <separator name="writing" >
   <i type="int" name="NWRITE">     2</i>
   <i type="logical" name="LWAVE"> F  </i>
   <i type="logical" name="LDOWNSAMPLE"> F  </i>
   <i type="logical" name="LCHARG"> F  </i>
   <i type="logical" name="LPARD"> F  </i>
   <i type="logical" name="LVTOT"> F  </i>
   <i type="logical" name="LVHAR"> F  </i>
   <i type="logical" name="LELF"> F  </i>
   <i type="logical" name="LOPTICS"> F  </i>
   <v name="STM">      0.00000000      0.00000000      0.00000000      0.00000000      0.00000000      0.00000000      0.00000000</v>
  </separator>
  <separator name="performance" >
   <i type="int" name="NPAR">     4</i>
   <i type="int" name="NSIM">     4</i>
   <i type="int" name="NBLK">    -1</i>
   <i type="logical" name="LPLANE"> T  </i>
   <i type="logical" name="LSCALAPACK"> T  </i>
   <i type="logical" name="LSCAAWARE"> F  </i>
   <i type="logical" name="LSCALU"> F  </i>
   <i type="logical" name="LASYNC"> F  </i>
   <i type="logical" name="LORBITALREAL"> F  </i>
  </separator>
  <separator name="miscellaneous" >
   <i type="int" name="IDIOT">     3</i>
   <i type="int" name="PHON_NSTRUCT">    -1</i>
   <i type="logical" name="LMUSIC"> F  </i>
   <v name="POMASS">      7.01000000     30.97400000     32.06600000     35.45300000</v>
   <v name="DARWINR">      0.00000000      0.00000000      0.00000000      0.00000000</v>
   <v name="DARWINV">      1.00000000      1.00000000      1.00000000      1.00000000</v>
   <i type="logical" name="LCORR"> T  </i>
  </separator>
  <i type="logical" name="GGA_COMPAT"> T  </i>
  <i type="logical" name="LBERRY"> F  </i>
  <i type="int" name="ICORELEVEL">     0</i>
  <i type="logical" name="LDAU"> F  </i>
  <i type="int" name="I_CONSTRAINED_M">     0</i>
  <separator name="electronic exchange-correlation" >
   <i type="string" name="GGA">PE</i>
   <i type="int" name="VOSKOWN">     0</i>
   <i type="logical" name="LHFCALC"> F  </i>
   <i type="string" name="PRECFOCK"></i>
   <i type="logical" name="LSYMGRAD"> F  </i>
   <i type="logical" name="LHFONE"> F  </i>
   <i type="logical" name="LRHFCALC"> F  </i>
   <i type="logical" name="LTHOMAS"> F  </i>
   <i type="logical" name="LMODELHF"> F  </i>
   <i type="logical" name="LFOCKACE"> F  </i>
   <i name="ENCUT4O">     -1.00000000</i>
   <i type="int" name="EXXOEP">     0</i>
   <i type="int" name="FOURORBIT">     0</i>
   <i name="AEXX">      0.00000000</i>
   <i name="HFALPHA">      0.00000000</i>
   <i name="MCALPHA">      0.00000000</i>
   <i name="ALDAX">      1.00000000</i>
   <i name="AGGAX">      1.00000000</i>
   <i name="ALDAC">      1.00000000</i>
   <i name="AGGAC">      1.00000000</i>
   <i type="int" name="NKREDX">     1</i>
   <i type="int" name="NKREDY">     1</i>
   <i type="int" name="NKREDZ">     1</i>
   <i type="logical" name="SHIFTRED"> F  </i>
   <i type="logical" name="ODDONLY"> F  </i>
   <i type="logical" name="EVENONLY"> F  </i>
   <i type="int" name="LMAXFOCK">     0</i>
   <i type="int" name="NMAXFOCKAE">     0</i>
   <i type="logical" name="LFOCKAEDFT"> F  </i>
   <i name="HFSCREEN">      0.00000000</i>
   <i name="HFSCREENC">      0.00000000</i>
   <i type="int" name="NBANDSGWLOW">     0</i>
  </separator>
  <separator name="vdW DFT" >
   <i type="logical" name="LUSE_VDW"> F  </i>
   <i type="int" name="IVDW_NL">     1</i>
   <i type="logical" name="LSPIN_VDW"> F  </i>
   <i name="Zab_VDW">     -0.84910000</i>
   <i name="PARAM1">      0.12340000</i>
   <i name="PARAM2">      1.00000000</i>
   <i name="PARAM3">      0.00000000</i>
  </separator>
  <separator name="model GW" >
   <i type="int" name="MODEL_GW">     0</i>
   <i name="MODEL_EPS0">     10.65563255</i>
   <i name="MODEL_ALPHA">      1.00000000</i>
  </separator>
  <separator name="linear response parameters" >
   <i type="logical" name="LEPSILON"> F  </i>
   <i type="logical" name="LRPA"> F  </i>
   <i type="logical" name="LNABLA"> F  </i>
   <i type="logical" name="LVEL"> F  </i>
   <i name="CSHIFT">      0.10000000</i>
   <i name="OMEGAMAX">     -1.00000000</i>
   <i name="DEG_THRESHOLD">      0.00200000</i>
   <i name="RTIME">     -0.10000000</i>
   <i name="WPLASMAI">      0.00000000</i>
   <v name="DFIELD">      0.00000000      0.00000000      0.00000000</v>
   <v name="WPLASMA">      0.00000000      0.00000000      0.00000000      0.00000000      0.00000000      0.00000000      0.00000000      0.00000000      0.00000000</v>
  </separator>
  <separator name="orbital magnetization" >
   <i type="logical" name="NUCIND"> F  </i>
   <v name="MAGPOS">      0.00000000      0.00000000      0.00000000</v>
   <i type="logical" name="LNICSALL"> T  </i>
   <i type="logical" name="ORBITALMAG"> F  </i>
   <i type="logical" name="LMAGBLOCH"> F  </i>
   <i type="logical" name="LCHIMAG"> F  </i>
   <i type="logical" name="LGAUGE"> T  </i>
   <i type="int" name="MAGATOM">     0</i>
   <v name="MAGDIPOL">      0.00000000      0.00000000      0.00000000</v>
   <v name="AVECCONST">      0.00000000      0.00000000      0.00000000</v>
  </separator>
  <separator name="response functions" >
   <i type="logical" name="LALL_IN_ONE"> F  </i>
   <i type="int" name="IALL_IN_ONE">    -1</i>
   <i type="int" name="NBANDS_WAVE">    -1</i>
   <i type="logical" name="LFINITE_TEMPERATURE"> F  </i>
   <i type="logical" name="LADDER"> F  </i>
   <i type="logical" name="LRPAFORCE"> F  </i>
   <i type="logical" name="LFXC"> F  </i>
   <i type="logical" name="LHARTREE"> T  </i>
   <i type="int" name="IBSE">     0</i>
   <v type="int" name="KPOINT">    -1     0     0     0</v>
   <i type="logical" name="LTCTC"> F  </i>
   <i type="logical" name="LTCTE"> F  </i>
   <i type="logical" name="LTETE"> F  </i>
   <i type="logical" name="LTRIPLET"> F  </i>
   <i type="logical" name="LFXCEPS"> F  </i>
   <i type="logical" name="LFXHEG"> F  </i>
   <i type="int" name="NATURALO">     2</i>
   <i type="logical" name="LHOLEGF"> F  </i>
   <i type="logical" name="L2ORDER"> F  </i>
   <i type="logical" name="LDMP1"> F  </i>
   <i type="logical" name="LMP2LT"> F  </i>
   <i type="logical" name="LSMP2LT"> F  </i>
   <i type="logical" name="LGWLF"> F  </i>
   <i name="ENCUTGW">     -1.60000002</i>
   <i name="ENCUTGWSOFT">     -1.60000002</i>
   <i name="ENCUTLF">     -1.00000000</i>
   <i type="logical" name="LESF_SPLINES"> F  </i>
   <i type="int" name="LMAXMP2">    -1</i>
   <i name="SCISSOR">      0.00000000</i>
   <i type="int" name="NOMEGA">     0</i>
   <i type="int" name="NOMEGAR">     0</i>
   <i type="int" name="NBANDSGW">    -1</i>
   <i type="int" name="NBANDSO">    -1</i>
   <i type="int" name="NBANDSV">    -1</i>
   <i type="int" name="NELMGW">     1</i>
   <i type="int" name="NELMHF">     1</i>
   <i type="int" name="DIM">     3</i>
   <i type="int" name="IESPILON">     4</i>
   <i type="int" name="ANTIRES">     0</i>
   <i name="OMEGAMAX">    -30.00000000</i>
   <i name="OMEGAMIN">    -30.00000000</i>
   <i name="OMEGATL">   -200.00000000</i>
   <i type="int" name="OMEGAGRID">     0</i>
   <i name="CSHIFT">     -0.10000000</i>
   <i type="logical" name="LSELFENERGY"> F  </i>
   <i type="logical" name="LSPECTRAL"> F  </i>
   <i type="logical" name="LSPECTRALGW"> F  </i>
   <i type="logical" name="LSINGLES"> F  </i>
   <i type="logical" name="LFERMIGW"> F  </i>
   <i type="logical" name="ODDONLYGW"> F  </i>
   <i type="logical" name="EVENONLYGW"> F  </i>
   <i type="int" name="NKREDLFX">     1</i>
   <i type="int" name="NKREDLFY">     1</i>
   <i type="int" name="NKREDLFZ">     1</i>
   <i type="int" name="MAXMEM">  2800</i>
   <i type="int" name="TELESCOPE">     0</i>
   <i type="int" name="NTAUPAR">    -1</i>
   <i type="int" name="NOMEGAPAR">    -1</i>
   <i name="DAMP_NEWTON">      0.80000001</i>
   <i name="LAMBDA">      1.00000000</i>
  </separator>
  <separator name="External order field" >
   <i name="OFIELD_KAPPA">      0.00000000</i>
   <v name="OFIELD_K">      0.00000000      0.00000000      0.00000000</v>
   <i name="OFIELD_Q6_NEAR">      0.00000000</i>
   <i name="OFIELD_Q6_FAR">      0.00000000</i>
   <i name="OFIELD_A">      0.00000000</i>
  </separator>
  <separator name="optional k-points parameters" >
   <i type="int" name="KPOINTS_OPT_MODE">     1</i>
   <i type="logical" name="LKPOINTS_OPT"> F  </i>
  </separator>
 </parameters>
 <atominfo>
  <atoms>      52 </atoms>
  <types>       4 </types>
  <array name="atoms" >
   <dimension dim="1">ion</dimension>
   <field type="string">element</field>
   <field type="int">atomtype</field>
   <set>
    <rc><c>Li</c><c>   1</c></rc>
    <rc><c>Li</c><c>   1</c></rc>
    <rc><c>Li</c><c>   1</c></rc>
    <rc><c>Li</c><c>   1</c></rc>
    <rc><c>Li</c><c>   1</c></rc>
    <rc><c>Li</c><c>   1</c></rc>
    <rc><c>Li</c><c>   1</c></rc>
    <rc><c>Li</c><c>   1</c></rc>
    <rc><c>Li</c><c>   1</c></rc>
    <rc><c>Li</c><c>   1</c></rc>
    <rc><c>Li</c><c>   1</c></rc>
    <rc><c>Li</c><c>   1</c></rc>
    <rc><c>Li</c><c>   1</c></rc>
    <rc><c>Li</c><c>   1</c></rc>
    <rc><c>Li</c><c>   1</c></rc>
    <rc><c>Li</c><c>   1</c></rc>
    <rc><c>Li</c><c>   1</c></rc>
    <rc><c>Li</c><c>   1</c></rc>
    <rc><c>Li</c><c>   1</c></rc>
    <rc><c>Li</c><c>   1</c></rc>
    <rc><c>Li</c><c>   1</c></rc>
    <rc><c>Li</c><c>   1</c></rc>
    <rc><c>Li</c><c>   1</c></rc>
    <rc><c>Li</c><c>   1</c></rc>
    <rc><c>P </c><c>   2</c></rc>
    <rc><c>P </c><c>   2</c></rc>
    <rc><c>P </c><c>   2</c></rc>
    <rc><c>P </c><c>   2</c></rc>
    <rc><c>S </c><c>   3</c></rc>
    <rc><c>S </c><c>   3</c></rc>
    <rc><c>S </c><c>   3</c></rc>
    <rc><c>S </c><c>   3</c></rc>
    <rc><c>S </c><c>   3</c></rc>
    <rc><c>S </c><c>   3</c></rc>
    <rc><c>S </c><c>   3</c></rc>
    <rc><c>S </c><c>   3</c></rc>
    <rc><c>S </c><c>   3</c></rc>
    <rc><c>S </c><c>   3</c></rc>
    <rc><c>S </c><c>   3</c></rc>
    <rc><c>S </c><c>   3</c></rc>
    <rc><c>S </c><c>   3</c></rc>
    <rc><c>S </c><c>   3</c></rc>
    <rc><c>S </c><c>   3</c></rc>
    <rc><c>S </c><c>   3</c></rc>
    <rc><c>S </c><c>   3</c></rc>
    <rc><c>S </c><c>   3</c></rc>
    <rc><c>S </c><c>   3</c></rc>
    <rc><c>S </c><c>   3</c></rc>
    <rc><c>Cl</c><c>   4</c></rc>
    <rc><c>Cl</c><c>   4</c></rc>
    <rc><c>Cl</c><c>   4</c></rc>
    <rc><c>Cl</c><c>   4</c></rc>
   </set>
  </array>
  <array name="atomtypes" >
   <dimension dim="1">type</dimension>
   <field type="int">atomspertype</field>
   <field type="string">element</field>
   <field>mass</field>
   <field>valence</field>
   <field type="string">pseudopotential</field>
   <set>
    <rc><c>  24</c><c>Li</c><c>      7.01000000</c><c>      3.00000000</c><c>  PAW_PBE Li_sv_GW 25Mar2010            </c></rc>
    <rc><c>   4</c><c>P </c><c>     30.97400000</c><c>      5.00000000</c><c>  PAW_PBE P_GW 19Mar2012                </c></rc>
    <rc><c>  20</c><c>S </c><c>     32.06600000</c><c>      6.00000000</c><c>  PAW_PBE S_GW 19Mar2012                </c></rc>
    <rc><c>   4</c><c>Cl</c><c>     35.45300000</c><c>      7.00000000</c><c>  PAW_PBE Cl_GW 19Mar2012               </c></rc>
   </set>
  </array>
 </atominfo>
 <structure name="initialpos" >
  <crystal>
   <varray name="basis" >
    <v>       9.73816457       0.00000000       0.00000000 </v>
    <v>       0.00000000       9.73816457       0.00000000 </v>
    <v>       0.00000000       0.00000000       9.73816457 </v>
   </varray>
   <i name="volume">    923.48815450 </i>
   <varray name="rec_basis" >
    <v>       0.10268876       0.00000000       0.00000000 </v>
    <v>       0.00000000       0.10268876       0.00000000 </v>
    <v>       0.00000000       0.00000000       0.10268876 </v>
   </varray>
  </crystal>
  <varray name="positions" >
   <v>       0.99211086       0.23779600       0.26206959 </v>
   <v>       0.96507087       0.75391708       0.74594852 </v>
   <v>       0.01647220       0.29034836       0.70281280 </v>
   <v>       0.01647220       0.79705279       0.20951723 </v>
   <v>       0.18811697       0.18267250       0.96364049 </v>
   <v>       0.20842022       0.79839138       0.00619700 </v>
   <v>       0.82403228       0.15401557       0.04127644 </v>
   <v>       0.73985288       0.72077314       0.99097480 </v>
   <v>       0.22684538       0.98635350       0.20964757 </v>
   <v>       0.32223603       0.04569658       0.67791147 </v>
   <v>       0.68630580       0.97198068       0.72020514 </v>
   <v>       0.69546916       0.00885999       0.30406885 </v>
   <v>       0.32223603       0.82195412       0.45416902 </v>
   <v>       0.22684538       0.29021802       0.51351210 </v>
   <v>       0.68630580       0.77966046       0.52788491 </v>
   <v>       0.69546916       0.19579675       0.49100560 </v>
   <v>       0.20842022       0.49366860       0.70147422 </v>
   <v>       0.18811697       0.53622510       0.31719309 </v>
   <v>       0.82403228       0.45858915       0.34585002 </v>
   <v>       0.73985288       0.50889080       0.77909245 </v>
   <v>       0.46666852       0.32331755       0.82985970 </v>
   <v>       0.46666852       0.67000589       0.17654804 </v>
   <v>       0.55467958       0.32940085       0.17046475 </v>
   <v>       0.50461717       0.69016935       0.80969624 </v>
   <v>       0.50316106       0.49924974       0.49196602 </v>
   <v>       0.50316106       0.00789957       0.00061586 </v>
   <v>       0.00665171       0.48757452       0.01229107 </v>
   <v>       0.00533494       0.98725916       0.51260643 </v>
   <v>       0.13868947       0.87222417       0.62764143 </v>
   <v>       0.13619709       0.10503979       0.39482580 </v>
   <v>       0.88072343       0.86404415       0.39590232 </v>
   <v>       0.88072343       0.10396328       0.63582144 </v>
   <v>       0.88640149       0.60119174       0.14314103 </v>
   <v>       0.88640149       0.35672456       0.89867385 </v>
   <v>       0.11040725       0.61819600       0.88166960 </v>
   <v>       0.14238668       0.37496470       0.12490089 </v>
   <v>       0.63017822       0.13325730       0.88860967 </v>
   <v>       0.61263528       0.87496931       0.12324863 </v>
   <v>       0.38834857       0.13867647       0.11757106 </v>
   <v>       0.38162159       0.89654849       0.86841930 </v>
   <v>       0.63017822       0.61125593       0.36660830 </v>
   <v>       0.61263528       0.37661697       0.62489628 </v>
   <v>       0.38162159       0.63144629       0.60331711 </v>
   <v>       0.38834857       0.38229453       0.36118912 </v>
   <v>       0.73405439       0.74224595       0.75761964 </v>
   <v>       0.75854830       0.23669847       0.26316712 </v>
   <v>       0.25080977       0.75357537       0.23707538 </v>
   <v>       0.25080977       0.26279021       0.74629022 </v>
   <v>       0.03155653       0.99472272       0.04122012 </v>
   <v>       0.03155653       0.45864547       0.50514288 </v>
   <v>       0.53323266       0.98707019       0.51279540 </v>
   <v>       0.52673899       0.51394156       0.98592403 </v>
  </varray>
 </structure>
 <calculation>
  <scstep>
   <time name="dav">    1.66    1.71</time>
   <time name="total">    2.13    2.20</time>
   <energy>
    <i name="alphaZ">    293.94800827 </i>
    <i name="ewald">  -8660.88142936 </i>
    <i name="hartreedc">  -2204.79034011 </i>
    <i name="XCdc">    533.33820888 </i>
    <i name="pawpsdc">   8141.38806575 </i>
    <i name="pawaedc">  -8271.61346273 </i>
    <i name="eentropy">     -0.00631978 </i>
    <i name="bandstr">   -935.82144576 </i>
    <i name="atom">  12703.13999606 </i>
    <i name="e_fr_energy">   1598.70128122 </i>
    <i name="e_wo_entrp">   1598.70760100 </i>
    <i name="e_0_energy">   1598.70444111 </i>
   </energy>
  </scstep>
  <scstep>
   <time name="dav">    1.97    1.99</time>
   <time name="total">    1.97    1.99</time>
   <energy>
    <i name="e_fr_energy">    -53.30640688 </i>
    <i name="e_wo_entrp">    -53.30640688 </i>
    <i name="e_0_energy">    -53.30640688 </i>
   </energy>
  </scstep>
  <scstep>
   <time name="dav">    1.92    1.96</time>
   <time name="total">    1.92    1.96</time>
   <energy>
    <i name="e_fr_energy">   -229.08161584 </i>
    <i name="e_wo_entrp">   -229.08161584 </i>
    <i name="e_0_energy">   -229.08161584 </i>
   </energy>
  </scstep>
  <scstep>
   <time name="dav">    2.32    2.39</time>
   <time name="total">    2.32    2.39</time>
   <energy>
    <i name="e_fr_energy">   -242.45161573 </i>
    <i name="e_wo_entrp">   -242.45161573 </i>
    <i name="e_0_energy">   -242.45161573 </i>
   </energy>
  </scstep>
  <scstep>
   <time name="dav">    2.22    2.26</time>
   <time name="total">    2.22    2.26</time>
   <energy>
    <i name="e_fr_energy">   -242.71381799 </i>
    <i name="e_wo_entrp">   -242.71381799 </i>
    <i name="e_0_energy">   -242.71381799 </i>
   </energy>
  </scstep>
  <scstep>
   <time name="dav">    2.27    2.29</time>
   <time name="total">    2.27    2.29</time>
   <energy>
    <i name="e_fr_energy">   -242.72391231 </i>
    <i name="e_wo_entrp">   -242.72391231 </i>
    <i name="e_0_energy">   -242.72391231 </i>
   </energy>
  </scstep>
  <scstep>
   <time name="dav">    2.24    2.26</time>
   <time name="total">    2.24    2.27</time>
   <energy>
    <i name="e_fr_energy">   -242.72429138 </i>
    <i name="e_wo_entrp">   -242.72429138 </i>
    <i name="e_0_energy">   -242.72429138 </i>
   </energy>
  </scstep>
  <scstep>
   <time name="dav">    2.26    2.28</time>
   <time name="total">    2.26    2.28</time>
   <energy>
    <i name="e_fr_energy">   -242.72431381 </i>
    <i name="e_wo_entrp">   -242.72431381 </i>
    <i name="e_0_energy">   -242.72431381 </i>
   </energy>
  </scstep>
  <scstep>
   <time name="dav">    2.21    2.23</time>
   <time name="total">    2.21    2.23</time>
   <energy>
    <i name="e_fr_energy">   -242.72431526 </i>
    <i name="e_wo_entrp">   -242.72431526 </i>
    <i name="e_0_energy">   -242.72431526 </i>
   </energy>
  </scstep>
  <scstep>
   <time name="dav">    1.47    1.51</time>
   <time name="total">    1.71    1.93</time>
   <energy>
    <i name="e_fr_energy">   -242.72431532 </i>
    <i name="e_wo_entrp">   -242.72431532 </i>
    <i name="e_0_energy">   -242.72431532 </i>
   </energy>
  </scstep>
  <scstep>
   <time name="diag">    0.27    0.28</time>
   <time name="diis">    0.87    0.88</time>
   <time name="orth">    0.05    0.06</time>
   <time name="total">    1.87    2.06</time>
   <energy>
    <i name="e_fr_energy">   -234.45593221 </i>
    <i name="e_wo_entrp">   -234.45593221 </i>
    <i name="e_0_energy">   -234.45593221 </i>
   </energy>
  </scstep>
  <scstep>
   <time name="diag">    0.27    0.27</time>
   <time name="diis">    0.92    0.93</time>
   <time name="orth">    0.05    0.05</time>
   <time name="total">    1.81    1.89</time>
   <energy>
    <i name="e_fr_energy">   -255.91677339 </i>
    <i name="e_wo_entrp">   -255.91677339 </i>
    <i name="e_0_energy">   -255.91677339 </i>
   </energy>
  </scstep>
  <scstep>
   <time name="diag">    0.27    0.27</time>
   <time name="diis">    0.91    0.92</time>
   <time name="orth">    0.05    0.05</time>
   <time name="total">    1.79    1.85</time>
   <energy>
    <i name="e_fr_energy">   -258.33706311 </i>
    <i name="e_wo_entrp">   -258.33706311 </i>
    <i name="e_0_energy">   -258.33706311 </i>
   </energy>
  </scstep>
  <scstep>
   <time name="diag">    0.27    0.27</time>
   <time name="diis">    1.18    1.20</time>
   <time name="orth">    0.05    0.05</time>
   <time name="total">    2.08    2.13</time>
   <energy>
    <i name="e_fr_energy">   -258.56465963 </i>
    <i name="e_wo_entrp">   -258.56465963 </i>
    <i name="e_0_energy">   -258.56465963 </i>
   </energy>
  </scstep>
  <scstep>
   <time name="diag">    0.27    0.27</time>
   <time name="diis">    0.96    0.96</time>
   <time name="orth">    0.05    0.05</time>
   <time name="total">    1.85    1.88</time>
   <energy>
    <i name="e_fr_energy">   -258.52452190 </i>
    <i name="e_wo_entrp">   -258.52452190 </i>
    <i name="e_0_energy">   -258.52452190 </i>
   </energy>
  </scstep>
  <scstep>
   <time name="diag">    0.27    0.27</time>
   <time name="diis">    0.97    0.98</time>
   <time name="orth">    0.05    0.05</time>
   <time name="total">    1.86    1.89</time>
   <energy>
    <i name="e_fr_energy">   -258.54624881 </i>
    <i name="e_wo_entrp">   -258.54624881 </i>
    <i name="e_0_energy">   -258.54624881 </i>
   </energy>
  </scstep>
  <scstep>
   <time name="diag">    0.27    0.27</time>
   <time name="diis">    1.08    1.09</time>
   <time name="orth">    0.05    0.05</time>
   <time name="total">    1.98    2.01</time>
   <energy>
    <i name="e_fr_energy">   -258.55298527 </i>
    <i name="e_wo_entrp">   -258.55298527 </i>
    <i name="e_0_energy">   -258.55298527 </i>
   </energy>
  </scstep>
  <scstep>
   <time name="diag">    0.27    0.27</time>
   <time name="diis">    1.09    1.10</time>
   <time name="orth">    0.05    0.05</time>
   <time name="total">    1.98    2.03</time>
   <energy>
    <i name="e_fr_energy">   -258.55443877 </i>
    <i name="e_wo_entrp">   -258.55443877 </i>
    <i name="e_0_energy">   -258.55443877 </i>
   </energy>
  </scstep>
  <scstep>
   <time name="diag">    0.27    0.27</time>
   <time name="diis">    1.20    1.21</time>
   <time name="orth">    0.05    0.05</time>
   <time name="total">    2.08    2.12</time>
   <energy>
    <i name="e_fr_energy">   -258.55503482 </i>
    <i name="e_wo_entrp">   -258.55503482 </i>
    <i name="e_0_energy">   -258.55503482 </i>
   </energy>
  </scstep>
  <scstep>
   <time name="diag">    0.27    0.27</time>
   <time name="diis">    1.19    1.20</time>
   <time name="orth">    0.05    0.05</time>
   <time name="total">    2.07    2.11</time>
   <energy>
    <i name="e_fr_energy">   -258.55515363 </i>
    <i name="e_wo_entrp">   -258.55515363 </i>
    <i name="e_0_energy">   -258.55515363 </i>
   </energy>
  </scstep>
  <scstep>
   <time name="diag">    0.27    0.27</time>
   <time name="diis">    1.07    1.08</time>
   <time name="orth">    0.05    0.05</time>
   <time name="total">    1.97    2.00</time>
   <energy>
    <i name="e_fr_energy">   -258.55517809 </i>
    <i name="e_wo_entrp">   -258.55517809 </i>
    <i name="e_0_energy">   -258.55517809 </i>
   </energy>
  </scstep>
  <scstep>
   <time name="diag">    0.27    0.27</time>
   <time name="diis">    1.18    1.19</time>
   <time name="orth">    0.05    0.05</time>
   <time name="total">    2.06    2.09</time>
   <energy>
    <i name="e_fr_energy">   -258.55518609 </i>
    <i name="e_wo_entrp">   -258.55518609 </i>
    <i name="e_0_energy">   -258.55518609 </i>
   </energy>
  </scstep>
  <scstep>
   <time name="diag">    0.27    0.27</time>
   <time name="diis">    0.96    0.97</time>
   <time name="orth">    0.05    0.05</time>
   <time name="total">    1.85    1.89</time>
   <energy>
    <i name="e_fr_energy">   -258.55518580 </i>
    <i name="e_wo_entrp">   -258.55518580 </i>
    <i name="e_0_energy">   -258.55518580 </i>
   </energy>
  </scstep>
  <scstep>
   <time name="diag">    0.27    0.27</time>
   <time name="diis">    0.75    0.76</time>
   <time name="orth">    0.05    0.05</time>
   <time name="total">    1.53    1.54</time>
   <energy>
    <i name="alphaZ">    293.94800827 </i>
    <i name="ewald">  -8660.88142936 </i>
    <i name="hartreedc">  -2316.89711483 </i>
    <i name="XCdc">    537.52911821 </i>
    <i name="pawpsdc">   9831.22212449 </i>
    <i name="pawaedc">  -9975.35804501 </i>
    <i name="eentropy">     -0.00000000 </i>
    <i name="bandstr">  -2671.25784314 </i>
    <i name="atom">  12703.13999606 </i>
    <i name="e_fr_energy">   -258.55518530 </i>
    <i name="e_wo_entrp">   -258.55518530 </i>
    <i name="e_0_energy">   -258.55518530 </i>
   </energy>
  </scstep>
  <structure>
   <crystal>
    <varray name="basis" >
     <v>       9.73816457       0.00000000       0.00000000 </v>
     <v>       0.00000000       9.73816457       0.00000000 </v>
     <v>       0.00000000       0.00000000       9.73816457 </v>
    </varray>
    <i name="volume">    923.48815450 </i>
    <varray name="rec_basis" >
     <v>       0.10268876       0.00000000       0.00000000 </v>
     <v>       0.00000000       0.10268876       0.00000000 </v>
     <v>       0.00000000       0.00000000       0.10268876 </v>
    </varray>
   </crystal>
   <varray name="positions" >
    <v>       0.99211086       0.23779600       0.26206959 </v>
    <v>       0.96507087       0.75391708       0.74594852 </v>
    <v>       0.01647220       0.29034836       0.70281280 </v>
    <v>       0.01647220       0.79705279       0.20951723 </v>
    <v>       0.18811697       0.18267250       0.96364049 </v>
    <v>       0.20842022       0.79839138       0.00619700 </v>
    <v>       0.82403228       0.15401557       0.04127644 </v>
    <v>       0.73985288       0.72077314       0.99097480 </v>
    <v>       0.22684538       0.98635350       0.20964757 </v>
    <v>       0.32223603       0.04569658       0.67791147 </v>
    <v>       0.68630580       0.97198068       0.72020514 </v>
    <v>       0.69546916       0.00885999       0.30406885 </v>
    <v>       0.32223603       0.82195412       0.45416902 </v>
    <v>       0.22684538       0.29021802       0.51351210 </v>
    <v>       0.68630580       0.77966046       0.52788491 </v>
    <v>       0.69546916       0.19579675       0.49100560 </v>
    <v>       0.20842022       0.49366860       0.70147422 </v>
    <v>       0.18811697       0.53622510       0.31719309 </v>
    <v>       0.82403228       0.45858915       0.34585002 </v>
    <v>       0.73985288       0.50889080       0.77909245 </v>
    <v>       0.46666852       0.32331755       0.82985970 </v>
    <v>       0.46666852       0.67000589       0.17654804 </v>
    <v>       0.55467958       0.32940085       0.17046475 </v>
    <v>       0.50461717       0.69016935       0.80969624 </v>
    <v>       0.50316106       0.49924974       0.49196602 </v>
    <v>       0.50316106       0.00789957       0.00061586 </v>
    <v>       0.00665171       0.48757452       0.01229107 </v>
    <v>       0.00533494       0.98725916       0.51260643 </v>
    <v>       0.13868947       0.87222417       0.62764143 </v>
    <v>       0.13619709       0.10503979       0.39482580 </v>
    <v>       0.88072343       0.86404415       0.39590232 </v>
    <v>       0.88072343       0.10396328       0.63582144 </v>
    <v>       0.88640149       0.60119174       0.14314103 </v>
    <v>       0.88640149       0.35672456       0.89867385 </v>
    <v>       0.11040725       0.61819600       0.88166960 </v>
    <v>       0.14238668       0.37496470       0.12490089 </v>
    <v>       0.63017822       0.13325730       0.88860967 </v>
    <v>       0.61263528       0.87496931       0.12324863 </v>
    <v>       0.38834857       0.13867647       0.11757106 </v>
    <v>       0.38162159       0.89654849       0.86841930 </v>
    <v>       0.63017822       0.61125593       0.36660830 </v>
    <v>       0.61263528       0.37661697       0.62489628 </v>
    <v>       0.38162159       0.63144629       0.60331711 </v>
    <v>       0.38834857       0.38229453       0.36118912 </v>
    <v>       0.73405439       0.74224595       0.75761964 </v>
    <v>       0.75854830       0.23669847       0.26316712 </v>
    <v>       0.25080977       0.75357537       0.23707538 </v>
    <v>       0.25080977       0.26279021       0.74629022 </v>
    <v>       0.03155653       0.99472272       0.04122012 </v>
    <v>       0.03155653       0.45864547       0.50514288 </v>
    <v>       0.53323266       0.98707019       0.51279540 </v>
    <v>       0.52673899       0.51394156       0.98592403 </v>
   </varray>
  </structure>
  <varray name="forces" >
   <v>       0.00007305       0.00034188      -0.00034188 </v>
   <v>       0.00007468       0.00054150      -0.00054150 </v>
   <v>       0.00003771      -0.00006133       0.00023742 </v>
   <v>       0.00003771      -0.00023742       0.00006133 </v>
   <v>      -0.00013394      -0.00033798       0.00008859 </v>
   <v>       0.00014342      -0.00010955      -0.00003870 </v>
   <v>       0.00003144      -0.00049395       0.00010436 </v>
   <v>       0.00218954       0.00185974      -0.00009191 </v>
   <v>      -0.00029560      -0.00006004      -0.00019537 </v>
   <v>       0.00055226       0.00014316      -0.00035475 </v>
   <v>      -0.00060064       0.00015127      -0.00020766 </v>
   <v>      -0.00012653       0.00002324       0.00017074 </v>
   <v>       0.00055226       0.00035475      -0.00014316 </v>
   <v>      -0.00029560       0.00019537       0.00006004 </v>
   <v>      -0.00060064       0.00020766      -0.00015127 </v>
   <v>      -0.00012653      -0.00017074      -0.00002324 </v>
   <v>       0.00014342       0.00003870       0.00010955 </v>
   <v>      -0.00013394      -0.00008859       0.00033798 </v>
   <v>       0.00003144      -0.00010436       0.00049395 </v>
   <v>       0.00218954       0.00009191      -0.00185974 </v>
   <v>       0.00001583       0.00013881       0.00076120 </v>
   <v>       0.00001583      -0.00076120      -0.00013881 </v>
   <v>      -0.00010569       0.00037924      -0.00037924 </v>
   <v>       0.00019142      -0.00103434       0.00103434 </v>
   <v>      -0.00047727      -0.00037978      -0.00226308 </v>
   <v>      -0.00047727       0.00226308       0.00037978 </v>
   <v>      -0.00091110      -0.00126690       0.00126690 </v>
   <v>       0.00025821       0.00012495      -0.00012495 </v>
   <v>       0.00094393      -0.00010086       0.00010086 </v>
   <v>       0.00029364       0.00043788      -0.00043788 </v>
   <v>      -0.00043200      -0.00071585      -0.00025048 </v>
   <v>      -0.00043200       0.00025048       0.00071585 </v>
   <v>      -0.00008935      -0.00030087       0.00034439 </v>
   <v>      -0.00008935      -0.00034439       0.00030087 </v>
   <v>       0.00057448       0.00140039      -0.00140039 </v>
   <v>       0.00054958       0.00017695      -0.00017695 </v>
   <v>       0.00000382       0.00006063       0.00022595 </v>
   <v>       0.00071138      -0.00129432       0.00100301 </v>
   <v>       0.00041148      -0.00059080      -0.00032834 </v>
   <v>      -0.00041686      -0.00092202      -0.00096325 </v>
   <v>       0.00000382      -0.00022595      -0.00006063 </v>
   <v>       0.00071138      -0.00100301       0.00129432 </v>
   <v>      -0.00041686       0.00096325       0.00092202 </v>
   <v>       0.00041148       0.00032834       0.00059080 </v>
   <v>      -0.00014788       0.00021196      -0.00021196 </v>
   <v>      -0.00024882       0.00006392      -0.00006392 </v>
   <v>       0.00028633      -0.00024875       0.00006032 </v>
   <v>       0.00028633      -0.00006032       0.00024875 </v>
   <v>      -0.00110251      -0.00051976      -0.00110547 </v>
   <v>      -0.00110251       0.00110547       0.00051976 </v>
   <v>      -0.00132843       0.00055366      -0.00055366 </v>
   <v>      -0.00163413      -0.00097509       0.00097509 </v>
  </varray>
  <varray name="stress" >
   <v>      -2.05509315       1.59475353      -1.59475353 </v>
   <v>       1.59475317       1.04045743       6.84777309 </v>
   <v>      -1.59475317       6.84777309       1.04045743 </v>
  </varray>
  <energy>
   <i name="e_fr_energy">   -271.77676548 </i>
   <i name="e_wo_entrp">   -271.77676548 </i>
   <i name="e_0_energy">   -271.77676548 </i>
  </energy>
  <time name="totalsc">   50.73   52.04</time>
 </calculation>
 <calculation>
  <scstep>
   <time name="dav">    1.76    1.77</time>
   <time name="total">    2.33    2.37</time>
   <energy>
    <i name="alphaZ">    293.94800827 </i>
    <i name="ewald">  -8660.90479014 </i>
    <i name="hartreedc">  -2316.88256885 </i>
    <i name="XCdc">    537.52888053 </i>
    <i name="pawpsdc">   9831.22338370 </i>
    <i name="pawaedc">  -9975.35927692 </i>
    <i name="eentropy">     -0.00000000 </i>
    <i name="bandstr">  -2671.24881812 </i>
    <i name="atom">  12703.13999606 </i>
    <i name="e_fr_energy">   -258.55518546 </i>
    <i name="e_wo_entrp">   -258.55518546 </i>
    <i name="e_0_energy">   -258.55518546 </i>
   </energy>
  </scstep>
  <scstep>
   <time name="diag">    0.36    0.43</time>
   <time name="diis">    0.65    0.65</time>
   <time name="orth">    0.05    0.05</time>
   <time name="total">    1.51    1.59</time>
   <energy>
    <i name="alphaZ">    293.94800827 </i>
    <i name="ewald">  -8660.90479014 </i>
    <i name="hartreedc">  -2316.88368070 </i>
    <i name="XCdc">    537.52868341 </i>
    <i name="pawpsdc">   9831.19149766 </i>
    <i name="pawaedc">  -9975.32689955 </i>
    <i name="eentropy">     -0.00000000 </i>
    <i name="bandstr">  -2671.24800069 </i>
    <i name="atom">  12703.13999606 </i>
    <i name="e_fr_energy">   -258.55518569 </i>
    <i name="e_wo_entrp">   -258.55518569 </i>
    <i name="e_0_energy">   -258.55518569 </i>
   </energy>
  </scstep>
  <structure>
   <crystal>
    <varray name="basis" >
     <v>       9.73816457       0.00000000       0.00000000 </v>
     <v>       0.00000000       9.73816457       0.00000000 </v>
     <v>       0.00000000       0.00000000       9.73816457 </v>
    </varray>
    <i name="volume">    923.48815450 </i>
    <varray name="rec_basis" >
     <v>       0.10268876       0.00000000       0.00000000 </v>
     <v>       0.00000000       0.10268876       0.00000000 </v>
     <v>       0.00000000       0.00000000       0.10268876 </v>
    </varray>
   </crystal>
   <varray name="positions" >
    <v>       0.99211100       0.23779668       0.26206892 </v>
    <v>       0.96507102       0.75391815       0.74594744 </v>
    <v>       0.01647227       0.29034824       0.70281327 </v>
    <v>       0.01647227       0.79705232       0.20951735 </v>
    <v>       0.18811670       0.18267183       0.96364067 </v>
    <v>       0.20842050       0.79839116       0.00619692 </v>
    <v>       0.82403234       0.15401459       0.04127665 </v>
    <v>       0.73985722       0.72077683       0.99097462 </v>
    <v>       0.22684479       0.98635338       0.20964718 </v>
    <v>       0.32223713       0.04569686       0.67791077 </v>
    <v>       0.68630461       0.97198098       0.72020472 </v>
    <v>       0.69546891       0.00886004       0.30406918 </v>
    <v>       0.32223713       0.82195483       0.45416873 </v>
    <v>       0.22684479       0.29021841       0.51351222 </v>
    <v>       0.68630461       0.77966087       0.52788461 </v>
    <v>       0.69546891       0.19579641       0.49100556 </v>
    <v>       0.20842050       0.49366867       0.70147443 </v>
    <v>       0.18811670       0.53622493       0.31719376 </v>
    <v>       0.82403234       0.45858895       0.34585100 </v>
    <v>       0.73985722       0.50889098       0.77908877 </v>
    <v>       0.46666855       0.32331783       0.82986121 </v>
    <v>       0.46666855       0.67000438       0.17654777 </v>
    <v>       0.55467937       0.32940160       0.17046399 </v>
    <v>       0.50461755       0.69016730       0.80969829 </v>
    <v>       0.50316011       0.49924898       0.49196154 </v>
    <v>       0.50316011       0.00790406       0.00061661 </v>
    <v>       0.00664990       0.48757201       0.01229358 </v>
    <v>       0.00533545       0.98725941       0.51260618 </v>
    <v>       0.13869134       0.87222397       0.62764163 </v>
    <v>       0.13619767       0.10504066       0.39482494 </v>
    <v>       0.88072258       0.86404274       0.39590182 </v>
    <v>       0.88072258       0.10396377       0.63582286 </v>
    <v>       0.88640131       0.60119115       0.14314172 </v>
    <v>       0.88640131       0.35672388       0.89867445 </v>
    <v>       0.11040839       0.61819877       0.88166682 </v>
    <v>       0.14238777       0.37496505       0.12490054 </v>
    <v>       0.63017823       0.13325742       0.88861011 </v>
    <v>       0.61263668       0.87496675       0.12325061 </v>
    <v>       0.38834938       0.13867530       0.11757041 </v>
    <v>       0.38162076       0.89654666       0.86841740 </v>
    <v>       0.63017823       0.61125548       0.36660818 </v>
    <v>       0.61263668       0.37661498       0.62489885 </v>
    <v>       0.38162076       0.63144820       0.60331894 </v>
    <v>       0.38834938       0.38229518       0.36119029 </v>
    <v>       0.73405410       0.74224637       0.75761922 </v>
    <v>       0.75854781       0.23669860       0.26316699 </v>
    <v>       0.25081033       0.75357488       0.23707550 </v>
    <v>       0.25081033       0.26279009       0.74629071 </v>
    <v>       0.03155435       0.99472169       0.04121793 </v>
    <v>       0.03155435       0.45864766       0.50514391 </v>
    <v>       0.53323003       0.98707129       0.51279430 </v>
    <v>       0.52673575       0.51393963       0.98592596 </v>
   </varray>
  </structure>
  <varray name="forces" >
   <v>      -0.00005932       0.00017512      -0.00017512 </v>
   <v>       0.00000363       0.00032793      -0.00032793 </v>
   <v>      -0.00004415      -0.00001731       0.00009881 </v>
   <v>      -0.00004415      -0.00009881       0.00001731 </v>
   <v>      -0.00018977      -0.00023039      -0.00006344 </v>
   <v>       0.00001171      -0.00007720      -0.00012215 </v>
   <v>      -0.00002318      -0.00035282       0.00007677 </v>
   <v>       0.00127228       0.00118589      -0.00011769 </v>
   <v>      -0.00023599      -0.00009431      -0.00011579 </v>
   <v>       0.00029174       0.00006971      -0.00020444 </v>
   <v>      -0.00042164       0.00007563      -0.00013394 </v>
   <v>      -0.00012953      -0.00005986       0.00005302 </v>
   <v>       0.00029174       0.00020444      -0.00006971 </v>
   <v>      -0.00023599       0.00011579       0.00009431 </v>
   <v>      -0.00042164       0.00013394      -0.00007563 </v>
   <v>      -0.00012953      -0.00005302       0.00005986 </v>
   <v>       0.00001171       0.00012215       0.00007720 </v>
   <v>      -0.00018977       0.00006344       0.00023039 </v>
   <v>      -0.00002318      -0.00007677       0.00035282 </v>
   <v>       0.00127228       0.00011769      -0.00118589 </v>
   <v>      -0.00004885       0.00014908       0.00039985 </v>
   <v>      -0.00004885      -0.00039985      -0.00014908 </v>
   <v>      -0.00003688       0.00026626      -0.00026626 </v>
   <v>       0.00005718      -0.00063101       0.00063101 </v>
   <v>      -0.00016147      -0.00002545      -0.00032964 </v>
   <v>      -0.00016147       0.00032964       0.00002545 </v>
   <v>      -0.00031137      -0.00030130       0.00030130 </v>
   <v>       0.00002330       0.00006754      -0.00006754 </v>
   <v>       0.00035116       0.00000765      -0.00000765 </v>
   <v>      -0.00003168       0.00029826      -0.00029826 </v>
   <v>      -0.00021995      -0.00017620      -0.00009551 </v>
   <v>      -0.00021995       0.00009551       0.00017620 </v>
   <v>      -0.00014575       0.00000807       0.00020864 </v>
   <v>      -0.00014575      -0.00020864      -0.00000807 </v>
   <v>      -0.00018769       0.00032155      -0.00032155 </v>
   <v>       0.00032246      -0.00008668       0.00008668 </v>
   <v>       0.00009824       0.00007053      -0.00010270 </v>
   <v>       0.00010572      -0.00033184       0.00019147 </v>
   <v>      -0.00038185      -0.00005215       0.00025217 </v>
   <v>       0.00005685      -0.00024005      -0.00013918 </v>
   <v>       0.00009824       0.00010270      -0.00007053 </v>
   <v>       0.00010572      -0.00019147       0.00033184 </v>
   <v>       0.00005685       0.00013918       0.00024005 </v>
   <v>      -0.00038185      -0.00025217       0.00005215 </v>
   <v>      -0.00020242       0.00005033      -0.00005033 </v>
   <v>       0.00002618      -0.00008171       0.00008171 </v>
   <v>      -0.00007943       0.00006188      -0.00006720 </v>
   <v>      -0.00007943       0.00006720      -0.00006188 </v>
   <v>       0.00030810      -0.00034876       0.00032608 </v>
   <v>       0.00030810      -0.00032608       0.00034876 </v>
   <v>       0.00045449      -0.00011694       0.00011694 </v>
   <v>      -0.00053522       0.00020370      -0.00020370 </v>
  </varray>
  <varray name="stress" >
   <v>      -2.06795131       1.59620691      -1.59620691 </v>
   <v>       1.59620644       1.02696924       6.85082964 </v>
   <v>      -1.59620644       6.85082964       1.02696924 </v>
  </varray>
  <energy>
   <i name="e_fr_energy">   -271.77676739 </i>
   <i name="e_wo_entrp">   -271.77676739 </i>
   <i name="e_0_energy">   -271.77676739 </i>
  </energy>
  <time name="totalsc">    6.53    6.86</time>
 </calculation>
 <calculation>
  <scstep>
   <time name="dav">    1.64    1.65</time>
   <time name="total">    2.21    2.26</time>
   <energy>
    <i name="alphaZ">    293.94800827 </i>
    <i name="ewald">  -8660.91368344 </i>
    <i name="hartreedc">  -2316.87688502 </i>
    <i name="XCdc">    537.52838415 </i>
    <i name="pawpsdc">   9831.16948727 </i>
    <i name="pawaedc">  -9975.30443977 </i>
    <i name="eentropy">     -0.00000000 </i>
    <i name="bandstr">  -2671.24605297 </i>
    <i name="atom">  12703.13999606 </i>
    <i name="e_fr_energy">   -258.55518544 </i>
    <i name="e_wo_entrp">   -258.55518544 </i>
    <i name="e_0_energy">   -258.55518544 </i>
   </energy>
  </scstep>
  <scstep>
   <time name="diag">    0.28    0.28</time>
   <time name="diis">    0.61    0.62</time>
   <time name="orth">    0.05    0.05</time>
   <time name="total">    1.39    1.40</time>
   <energy>
    <i name="alphaZ">    293.94800827 </i>
    <i name="ewald">  -8660.91368344 </i>
    <i name="hartreedc">  -2316.87629966 </i>
    <i name="XCdc">    537.52827470 </i>
    <i name="pawpsdc">   9831.15212998 </i>
    <i name="pawaedc">  -9975.28689891 </i>
    <i name="eentropy">     -0.00000000 </i>
    <i name="bandstr">  -2671.24671246 </i>
    <i name="atom">  12703.13999606 </i>
    <i name="e_fr_energy">   -258.55518545 </i>
    <i name="e_wo_entrp">   -258.55518545 </i>
    <i name="e_0_energy">   -258.55518545 </i>
   </energy>
  </scstep>
  <structure>
   <crystal>
    <varray name="basis" >
     <v>       9.73816457       0.00000000       0.00000000 </v>
     <v>       0.00000000       9.73816457       0.00000000 </v>
     <v>       0.00000000       0.00000000       9.73816457 </v>
    </varray>
    <i name="volume">    923.48815450 </i>
    <varray name="rec_basis" >
     <v>       0.10268876       0.00000000       0.00000000 </v>
     <v>       0.00000000       0.10268876       0.00000000 </v>
     <v>       0.00000000       0.00000000       0.10268876 </v>
    </varray>
   </crystal>
   <varray name="positions" >
    <v>       0.99211106       0.23779694       0.26206866 </v>
    <v>       0.96507108       0.75391856       0.74594703 </v>
    <v>       0.01647230       0.29034820       0.70281345 </v>
    <v>       0.01647230       0.79705214       0.20951740 </v>
    <v>       0.18811660       0.18267157       0.96364073 </v>
    <v>       0.20842061       0.79839108       0.00619689 </v>
    <v>       0.82403236       0.15401422       0.04127673 </v>
    <v>       0.73985887       0.72077823       0.99097455 </v>
    <v>       0.22684457       0.98635333       0.20964704 </v>
    <v>       0.32223755       0.04569697       0.67791050 </v>
    <v>       0.68630416       0.97198109       0.72020457 </v>
    <v>       0.69546881       0.00886005       0.30406931 </v>
    <v>       0.32223755       0.82195509       0.45416863 </v>
    <v>       0.22684457       0.29021856       0.51351226 </v>
    <v>       0.68630416       0.77966103       0.52788450 </v>
    <v>       0.69546881       0.19579628       0.49100554 </v>
    <v>       0.20842061       0.49366870       0.70147452 </v>
    <v>       0.18811660       0.53622486       0.31719402 </v>
    <v>       0.82403236       0.45858887       0.34585138 </v>
    <v>       0.73985887       0.50889105       0.77908736 </v>
    <v>       0.46666857       0.32331793       0.82986178 </v>
    <v>       0.46666857       0.67000381       0.17654766 </v>
    <v>       0.55467929       0.32940189       0.17046371 </v>
    <v>       0.50461769       0.69016652       0.80969907 </v>
    <v>       0.50315975       0.49924870       0.49195983 </v>
    <v>       0.50315975       0.00790576       0.00061690 </v>
    <v>       0.00664921       0.48757106       0.01229454 </v>
    <v>       0.00533564       0.98725950       0.51260609 </v>
    <v>       0.13869205       0.87222389       0.62764170 </v>
    <v>       0.13619789       0.10504099       0.39482461 </v>
    <v>       0.88072225       0.86404220       0.39590163 </v>
    <v>       0.88072225       0.10396396       0.63582340 </v>
    <v>       0.88640124       0.60119092       0.14314198 </v>
    <v>       0.88640124       0.35672362       0.89867467 </v>
    <v>       0.11040882       0.61819983       0.88166576 </v>
    <v>       0.14238819       0.37496518       0.12490041 </v>
    <v>       0.63017823       0.13325746       0.88861028 </v>
    <v>       0.61263722       0.87496577       0.12325137 </v>
    <v>       0.38834969       0.13867485       0.11757016 </v>
    <v>       0.38162045       0.89654596       0.86841667 </v>
    <v>       0.63017823       0.61125531       0.36660813 </v>
    <v>       0.61263722       0.37661422       0.62489982 </v>
    <v>       0.38162045       0.63144893       0.60331963 </v>
    <v>       0.38834969       0.38229543       0.36119074 </v>
    <v>       0.73405399       0.74224653       0.75761906 </v>
    <v>       0.75854762       0.23669865       0.26316694 </v>
    <v>       0.25081055       0.75357469       0.23707555 </v>
    <v>       0.25081055       0.26279005       0.74629090 </v>
    <v>       0.03155352       0.99472129       0.04121710 </v>
    <v>       0.03155352       0.45864850       0.50514430 </v>
    <v>       0.53322903       0.98707171       0.51279389 </v>
    <v>       0.52673452       0.51393889       0.98592670 </v>
   </varray>
  </structure>
  <varray name="forces" >
   <v>      -0.00004065       0.00023201      -0.00023201 </v>
   <v>       0.00001762       0.00042891      -0.00042891 </v>
   <v>      -0.00001254      -0.00005070       0.00022272 </v>
   <v>      -0.00001254      -0.00022272       0.00005070 </v>
   <v>      -0.00021404      -0.00030329      -0.00007431 </v>
   <v>       0.00010616      -0.00014667      -0.00013988 </v>
   <v>       0.00000258      -0.00047735       0.00008854 </v>
   <v>       0.00200157       0.00178785      -0.00017336 </v>
   <v>      -0.00028092      -0.00012850      -0.00014718 </v>
   <v>       0.00042581       0.00008435      -0.00028500 </v>
   <v>      -0.00053942       0.00009327      -0.00015794 </v>
   <v>      -0.00016416      -0.00006088       0.00009755 </v>
   <v>       0.00042581       0.00028500      -0.00008435 </v>
   <v>      -0.00028092       0.00014718       0.00012850 </v>
   <v>      -0.00053942       0.00015794      -0.00009327 </v>
   <v>      -0.00016416      -0.00009755       0.00006088 </v>
   <v>       0.00010616       0.00013988       0.00014667 </v>
   <v>      -0.00021404       0.00007431       0.00030329 </v>
   <v>       0.00000258      -0.00008854       0.00047735 </v>
   <v>       0.00200157       0.00017336      -0.00178785 </v>
   <v>      -0.00003086       0.00019215       0.00056384 </v>
   <v>      -0.00003086      -0.00056384      -0.00019215 </v>
   <v>      -0.00003989       0.00035756      -0.00035756 </v>
   <v>       0.00011890      -0.00093117       0.00093117 </v>
   <v>       0.00000629       0.00008632       0.00034007 </v>
   <v>       0.00000629      -0.00034007      -0.00008632 </v>
   <v>      -0.00005975       0.00003448      -0.00003448 </v>
   <v>      -0.00000576      -0.00001312       0.00001312 </v>
   <v>       0.00030704       0.00008216      -0.00008216 </v>
   <v>      -0.00001374       0.00028868      -0.00028868 </v>
   <v>      -0.00013758      -0.00018451      -0.00002522 </v>
   <v>      -0.00013758       0.00002522       0.00018451 </v>
   <v>      -0.00014071      -0.00007088       0.00026369 </v>
   <v>      -0.00014071      -0.00026369       0.00007088 </v>
   <v>      -0.00029905       0.00020992      -0.00020992 </v>
   <v>       0.00038290      -0.00008586       0.00008586 </v>
   <v>       0.00012313       0.00012086      -0.00005517 </v>
   <v>       0.00005324      -0.00022223       0.00017774 </v>
   <v>      -0.00038814       0.00005680       0.00034288 </v>
   <v>       0.00013115      -0.00014547      -0.00008683 </v>
   <v>       0.00012313       0.00005517      -0.00012086 </v>
   <v>       0.00005324      -0.00017774       0.00022223 </v>
   <v>       0.00013115       0.00008683       0.00014547 </v>
   <v>      -0.00038814      -0.00034288      -0.00005680 </v>
   <v>      -0.00011481       0.00007552      -0.00007552 </v>
   <v>       0.00004730      -0.00007321       0.00007321 </v>
   <v>      -0.00008204       0.00005477      -0.00002779 </v>
   <v>      -0.00008204       0.00002779      -0.00005477 </v>
   <v>      -0.00028405      -0.00053447      -0.00024090 </v>
   <v>      -0.00028405       0.00024090       0.00053447 </v>
   <v>      -0.00017625       0.00028069      -0.00028069 </v>
   <v>      -0.00127480      -0.00035456       0.00035456 </v>
  </varray>
  <varray name="stress" >
   <v>      -2.07190521       1.59666473      -1.59666473 </v>
   <v>       1.59666427       1.02294454       6.85174574 </v>
   <v>      -1.59666427       6.85174574       1.02294454 </v>
  </varray>
  <energy>
   <i name="e_fr_energy">   -271.77676772 </i>
   <i name="e_wo_entrp">   -271.77676772 </i>
   <i name="e_0_energy">   -271.77676772 </i>
  </energy>
  <time name="totalsc">    6.30    6.42</time>
 </calculation>
 <calculation>
  <scstep>
   <time name="dav">    1.78    1.80</time>
   <time name="total">    2.41    2.44</time>
   <energy>
    <i name="alphaZ">    293.94800827 </i>
    <i name="ewald">  -8660.93146852 </i>
    <i name="hartreedc">  -2316.86114909 </i>
    <i name="XCdc">    537.52791656 </i>
    <i name="pawpsdc">   9831.14207852 </i>
    <i name="pawaedc">  -9975.27673643 </i>
    <i name="eentropy">     -0.00000000 </i>
    <i name="bandstr">  -2671.24382993 </i>
    <i name="atom">  12703.13999606 </i>
    <i name="e_fr_energy">   -258.55518456 </i>
    <i name="e_wo_entrp">   -258.55518456 </i>
    <i name="e_0_energy">   -258.55518456 </i>
   </energy>
  </scstep>
  <scstep>
   <time name="diag">    0.28    0.28</time>
   <time name="diis">    0.61    0.61</time>
   <time name="orth">    0.05    0.05</time>
   <time name="total">    1.38    1.39</time>
   <energy>
    <i name="alphaZ">    293.94800827 </i>
    <i name="ewald">  -8660.93146852 </i>
    <i name="hartreedc">  -2316.86013277 </i>
    <i name="XCdc">    537.52785442 </i>
    <i name="pawpsdc">   9831.12766461 </i>
    <i name="pawaedc">  -9975.26226406 </i>
    <i name="eentropy">     -0.00000000 </i>
    <i name="bandstr">  -2671.24484261 </i>
    <i name="atom">  12703.13999606 </i>
    <i name="e_fr_energy">   -258.55518460 </i>
    <i name="e_wo_entrp">   -258.55518460 </i>
    <i name="e_0_energy">   -258.55518460 </i>
   </energy>
  </scstep>
  <structure>
   <crystal>
    <varray name="basis" >
     <v>       9.73816457       0.00000000       0.00000000 </v>
     <v>       0.00000000       9.73816457       0.00000000 </v>
     <v>       0.00000000       0.00000000       9.73816457 </v>
    </varray>
    <i name="volume">    923.48815450 </i>
    <varray name="rec_basis" >
     <v>       0.10268876       0.00000000       0.00000000 </v>
     <v>       0.00000000       0.10268876       0.00000000 </v>
     <v>       0.00000000       0.00000000       0.10268876 </v>
    </varray>
   </crystal>
   <varray name="positions" >
    <v>       0.99211117       0.23779745       0.26206814 </v>
    <v>       0.96507119       0.75391938       0.74594622 </v>
    <v>       0.01647236       0.29034810       0.70281381 </v>
    <v>       0.01647236       0.79705178       0.20951749 </v>
    <v>       0.18811640       0.18267106       0.96364087 </v>
    <v>       0.20842082       0.79839091       0.00619683 </v>
    <v>       0.82403241       0.15401347       0.04127688 </v>
    <v>       0.73986217       0.72078104       0.99097441 </v>
    <v>       0.22684412       0.98635324       0.20964674 </v>
    <v>       0.32223838       0.04569718       0.67790996 </v>
    <v>       0.68630325       0.97198132       0.72020425 </v>
    <v>       0.69546862       0.00886009       0.30406957 </v>
    <v>       0.32223838       0.82195563       0.45416841 </v>
    <v>       0.22684412       0.29021885       0.51351235 </v>
    <v>       0.68630325       0.77966134       0.52788427 </v>
    <v>       0.69546862       0.19579602       0.49100550 </v>
    <v>       0.20842082       0.49366876       0.70147468 </v>
    <v>       0.18811640       0.53622473       0.31719453 </v>
    <v>       0.82403241       0.45858871       0.34585212 </v>
    <v>       0.73986217       0.50889119       0.77908456 </v>
    <v>       0.46666859       0.32331814       0.82986293 </v>
    <v>       0.46666859       0.67000266       0.17654745 </v>
    <v>       0.55467913       0.32940246       0.17046314 </v>
    <v>       0.50461798       0.69016496       0.80970064 </v>
    <v>       0.50315903       0.49924812       0.49195641 </v>
    <v>       0.50315903       0.00790918       0.00061747 </v>
    <v>       0.00664784       0.48756914       0.01229645 </v>
    <v>       0.00533603       0.98725969       0.51260590 </v>
    <v>       0.13869347       0.87222374       0.62764185 </v>
    <v>       0.13619834       0.10504165       0.39482395 </v>
    <v>       0.88072160       0.86404112       0.39590126 </v>
    <v>       0.88072160       0.10396434       0.63582448 </v>
    <v>       0.88640111       0.60119047       0.14314250 </v>
    <v>       0.88640111       0.35672310       0.89867513 </v>
    <v>       0.11040969       0.61820194       0.88166365 </v>
    <v>       0.14238902       0.37496545       0.12490014 </v>
    <v>       0.63017823       0.13325755       0.88861063 </v>
    <v>       0.61263830       0.87496382       0.12325288 </v>
    <v>       0.38835031       0.13867396       0.11756967 </v>
    <v>       0.38161982       0.89654457       0.86841522 </v>
    <v>       0.63017823       0.61125497       0.36660804 </v>
    <v>       0.61263830       0.37661271       0.62490178 </v>
    <v>       0.38161982       0.63145038       0.60332102 </v>
    <v>       0.38835031       0.38229593       0.36119163 </v>
    <v>       0.73405376       0.74224685       0.75761874 </v>
    <v>       0.75854725       0.23669875       0.26316685 </v>
    <v>       0.25081098       0.75357432       0.23707564 </v>
    <v>       0.25081098       0.26278996       0.74629128 </v>
    <v>       0.03155185       0.99472051       0.04121543 </v>
    <v>       0.03155185       0.45865016       0.50514508 </v>
    <v>       0.53322702       0.98707254       0.51279305 </v>
    <v>       0.52673205       0.51393742       0.98592817 </v>
   </varray>
  </structure>
  <varray name="forces" >
   <v>      -0.00007925       0.00019182      -0.00019182 </v>
   <v>      -0.00000078       0.00037846      -0.00037846 </v>
   <v>      -0.00002900      -0.00003496       0.00018476 </v>
   <v>      -0.00002900      -0.00018476       0.00003496 </v>
   <v>      -0.00024424      -0.00028288      -0.00013391 </v>
   <v>       0.00007273      -0.00015189      -0.00018217 </v>
   <v>      -0.00002168      -0.00044742       0.00009136 </v>
   <v>       0.00154122       0.00145491      -0.00017919 </v>
   <v>      -0.00028285      -0.00016669      -0.00013190 </v>
   <v>       0.00035084       0.00004067      -0.00022235 </v>
   <v>      -0.00051602       0.00005093      -0.00014424 </v>
   <v>      -0.00016104      -0.00010843       0.00004221 </v>
   <v>       0.00035084       0.00022235      -0.00004067 </v>
   <v>      -0.00028285       0.00013190       0.00016669 </v>
   <v>      -0.00051602       0.00014424      -0.00005093 </v>
   <v>      -0.00016104      -0.00004221       0.00010843 </v>
   <v>       0.00007273       0.00018217       0.00015189 </v>
   <v>      -0.00024424       0.00013391       0.00028288 </v>
   <v>      -0.00002168      -0.00009136       0.00044742 </v>
   <v>       0.00154122       0.00017919      -0.00145491 </v>
   <v>      -0.00004516       0.00020436       0.00042391 </v>
   <v>      -0.00004516      -0.00042391      -0.00020436 </v>
   <v>       0.00000420       0.00033157      -0.00033157 </v>
   <v>       0.00005245      -0.00073805       0.00073805 </v>
   <v>       0.00045068       0.00008246       0.00124752 </v>
   <v>       0.00045068      -0.00124752      -0.00008246 </v>
   <v>       0.00042637       0.00072837      -0.00072837 </v>
   <v>      -0.00011754      -0.00012122       0.00012122 </v>
   <v>       0.00010729       0.00021932      -0.00021932 </v>
   <v>      -0.00012331       0.00021796      -0.00021796 </v>
   <v>       0.00002326      -0.00002314       0.00013393 </v>
   <v>       0.00002326      -0.00013393       0.00002314 </v>
   <v>      -0.00020757      -0.00005154       0.00032511 </v>
   <v>      -0.00020757      -0.00032511       0.00005154 </v>
   <v>      -0.00079843      -0.00039293       0.00039293 </v>
   <v>       0.00046056      -0.00015483       0.00015483 </v>
   <v>       0.00020328       0.00023708      -0.00013744 </v>
   <v>      -0.00034829       0.00031554      -0.00023581 </v>
   <v>      -0.00074143       0.00045295       0.00072509 </v>
   <v>       0.00046929       0.00023652       0.00031622 </v>
   <v>       0.00020328       0.00013744      -0.00023708 </v>
   <v>      -0.00034829       0.00023581      -0.00031554 </v>
   <v>       0.00046929      -0.00031622      -0.00023652 </v>
   <v>      -0.00074143      -0.00072509      -0.00045295 </v>
   <v>      -0.00009118       0.00010657      -0.00010657 </v>
   <v>      -0.00005443      -0.00002865       0.00002865 </v>
   <v>      -0.00004357      -0.00002016       0.00000548 </v>
   <v>      -0.00004357      -0.00000548       0.00002016 </v>
   <v>      -0.00001612      -0.00039685       0.00002397 </v>
   <v>      -0.00001612      -0.00002397       0.00039685 </v>
   <v>       0.00019465       0.00010952      -0.00010952 </v>
   <v>      -0.00088927      -0.00008684       0.00008684 </v>
  </varray>
  <varray name="stress" >
   <v>      -2.07550126       1.59754122      -1.59754122 </v>
   <v>       1.59754091       1.01786589       6.85328279 </v>
   <v>      -1.59754091       6.85328279       1.01786589 </v>
  </varray>
  <energy>
   <i name="e_fr_energy">   -271.77676803 </i>
   <i name="e_wo_entrp">   -271.77676803 </i>
   <i name="e_0_energy">   -271.77676803 </i>
  </energy>
  <time name="totalsc">    6.46    6.54</time>
 </calculation>
 <calculation>
  <scstep>
   <time name="dav">    1.48    1.50</time>
   <time name="total">    2.04    2.06</time>
   <energy>
    <i name="alphaZ">    293.94800827 </i>
    <i name="ewald">  -8660.93570118 </i>
    <i name="hartreedc">  -2316.85611590 </i>
    <i name="XCdc">    537.52774544 </i>
    <i name="pawpsdc">   9831.11900477 </i>
    <i name="pawaedc">  -9975.25354488 </i>
    <i name="eentropy">     -0.00000000 </i>
    <i name="bandstr">  -2671.24457694 </i>
    <i name="atom">  12703.13999606 </i>
    <i name="e_fr_energy">   -258.55518437 </i>
    <i name="e_wo_entrp">   -258.55518437 </i>
    <i name="e_0_energy">   -258.55518437 </i>
   </energy>
  </scstep>
  <scstep>
   <time name="diag">    0.27    0.28</time>
   <time name="diis">    0.54    0.55</time>
   <time name="orth">    0.05    0.05</time>
   <time name="total">    1.32    1.33</time>
   <energy>
    <i name="alphaZ">    293.94800827 </i>
    <i name="ewald">  -8660.93570118 </i>
    <i name="hartreedc">  -2316.85593945 </i>
    <i name="XCdc">    537.52773351 </i>
    <i name="pawpsdc">   9831.11419329 </i>
    <i name="pawaedc">  -9975.24870359 </i>
    <i name="eentropy">     -0.00000000 </i>
    <i name="bandstr">  -2671.24477129 </i>
    <i name="atom">  12703.13999606 </i>
    <i name="e_fr_energy">   -258.55518439 </i>
    <i name="e_wo_entrp">   -258.55518439 </i>
    <i name="e_0_energy">   -258.55518439 </i>
   </energy>
  </scstep>
  <structure>
   <crystal>
    <varray name="basis" >
     <v>       9.73816457       0.00000000       0.00000000 </v>
     <v>       0.00000000       9.73816457       0.00000000 </v>
     <v>       0.00000000       0.00000000       9.73816457 </v>
    </varray>
    <i name="volume">    923.48815450 </i>
    <varray name="rec_basis" >
     <v>       0.10268876       0.00000000       0.00000000 </v>
     <v>       0.00000000       0.10268876       0.00000000 </v>
     <v>       0.00000000       0.00000000       0.10268876 </v>
    </varray>
   </crystal>
   <varray name="positions" >
    <v>       0.99211119       0.23779758       0.26206802 </v>
    <v>       0.96507122       0.75391957       0.74594602 </v>
    <v>       0.01647237       0.29034808       0.70281389 </v>
    <v>       0.01647237       0.79705170       0.20951751 </v>
    <v>       0.18811635       0.18267094       0.96364090 </v>
    <v>       0.20842088       0.79839087       0.00619682 </v>
    <v>       0.82403242       0.15401329       0.04127692 </v>
    <v>       0.73986296       0.72078170       0.99097438 </v>
    <v>       0.22684401       0.98635322       0.20964667 </v>
    <v>       0.32223858       0.04569724       0.67790984 </v>
    <v>       0.68630304       0.97198138       0.72020418 </v>
    <v>       0.69546858       0.00886010       0.30406963 </v>
    <v>       0.32223858       0.82195576       0.45416836 </v>
    <v>       0.22684401       0.29021892       0.51351237 </v>
    <v>       0.68630304       0.77966141       0.52788422 </v>
    <v>       0.69546858       0.19579596       0.49100550 </v>
    <v>       0.20842088       0.49366878       0.70147472 </v>
    <v>       0.18811635       0.53622469       0.31719465 </v>
    <v>       0.82403242       0.45858867       0.34585230 </v>
    <v>       0.73986296       0.50889122       0.77908389 </v>
    <v>       0.46666860       0.32331819       0.82986321 </v>
    <v>       0.46666860       0.67000239       0.17654740 </v>
    <v>       0.55467909       0.32940259       0.17046300 </v>
    <v>       0.50461805       0.69016459       0.80970101 </v>
    <v>       0.50315886       0.49924799       0.49195560 </v>
    <v>       0.50315886       0.00790999       0.00061761 </v>
    <v>       0.00664751       0.48756869       0.01229690 </v>
    <v>       0.00533613       0.98725974       0.51260586 </v>
    <v>       0.13869381       0.87222370       0.62764189 </v>
    <v>       0.13619844       0.10504181       0.39482379 </v>
    <v>       0.88072144       0.86404086       0.39590117 </v>
    <v>       0.88072144       0.10396443       0.63582473 </v>
    <v>       0.88640107       0.60119036       0.14314262 </v>
    <v>       0.88640107       0.35672297       0.89867524 </v>
    <v>       0.11040989       0.61820245       0.88166315 </v>
    <v>       0.14238921       0.37496551       0.12490008 </v>
    <v>       0.63017824       0.13325758       0.88861071 </v>
    <v>       0.61263855       0.87496335       0.12325324 </v>
    <v>       0.38835046       0.13867375       0.11756955 </v>
    <v>       0.38161967       0.89654424       0.86841487 </v>
    <v>       0.63017824       0.61125489       0.36660802 </v>
    <v>       0.61263855       0.37661235       0.62490224 </v>
    <v>       0.38161967       0.63145072       0.60332135 </v>
    <v>       0.38835046       0.38229605       0.36119184 </v>
    <v>       0.73405371       0.74224693       0.75761867 </v>
    <v>       0.75854716       0.23669877       0.26316682 </v>
    <v>       0.25081109       0.75357423       0.23707566 </v>
    <v>       0.25081109       0.26278994       0.74629136 </v>
    <v>       0.03155146       0.99472032       0.04121503 </v>
    <v>       0.03155146       0.45865056       0.50514527 </v>
    <v>       0.53322654       0.98707274       0.51279285 </v>
    <v>       0.52673147       0.51393707       0.98592852 </v>
   </varray>
  </structure>
  <varray name="forces" >
   <v>      -0.00013598       0.00007005      -0.00007005 </v>
   <v>      -0.00003878       0.00046730      -0.00046730 </v>
   <v>      -0.00005041      -0.00001342       0.00010068 </v>
   <v>      -0.00005041      -0.00010068       0.00001342 </v>
   <v>      -0.00029175      -0.00034511      -0.00011261 </v>
   <v>       0.00000139      -0.00010754      -0.00013990 </v>
   <v>      -0.00004721      -0.00052660       0.00011153 </v>
   <v>       0.00200936       0.00185298      -0.00022352 </v>
   <v>      -0.00020922      -0.00015745      -0.00006940 </v>
   <v>       0.00040888       0.00007274      -0.00027559 </v>
   <v>      -0.00049883       0.00003121      -0.00012342 </v>
   <v>      -0.00020647      -0.00009183       0.00008692 </v>
   <v>       0.00040888       0.00027559      -0.00007274 </v>
   <v>      -0.00020922       0.00006940       0.00015745 </v>
   <v>      -0.00049883       0.00012342      -0.00003121 </v>
   <v>      -0.00020647      -0.00008692       0.00009183 </v>
   <v>       0.00000139       0.00013990       0.00010754 </v>
   <v>      -0.00029175       0.00011261       0.00034511 </v>
   <v>      -0.00004721      -0.00011153       0.00052660 </v>
   <v>       0.00200936       0.00022352      -0.00185298 </v>
   <v>      -0.00006490       0.00022793       0.00053508 </v>
[...]
       <r>     7.7076    13.6638   143.9271 </r>
       <r>     7.8998     8.4381   145.5534 </r>
       <r>     8.0920    17.4479   148.9073 </r>
       <r>     8.2843    15.1540   151.8210 </r>
       <r>     8.4765    11.3677   154.0121 </r>
       <r>     8.6687    18.0500   157.4822 </r>
       <r>     8.8609    17.4491   160.8403 </r>
       <r>     9.0531    18.9948   164.4921 </r>
       <r>     9.2453    19.7700   168.2922 </r>
       <r>     9.4376    18.0110   171.7542 </r>
       <r>     9.6298    17.8281   175.1813 </r>
       <r>     9.8220     4.2594   176.0000 </r>
       <r>    10.0142     0.0000   176.0000 </r>
       <r>    10.2064     0.0000   176.0000 </r>
       <r>    10.3986     0.0000   176.0000 </r>
       <r>    10.5908     0.0000   176.0000 </r>
       <r>    10.7831     0.0000   176.0000 </r>
       <r>    10.9753     0.0000   176.0000 </r>
       <r>    11.1675     0.0000   176.0000 </r>
       <r>    11.3597     0.0000   176.0000 </r>
       <r>    11.5519     0.0000   176.0000 </r>
       <r>    11.7441     0.0000   176.0000 </r>
       <r>    11.9363     0.0000   176.0000 </r>
       <r>    12.1286     0.0000   176.0000 </r>
       <r>    12.3208     0.0000   176.0000 </r>
      </set>
      <set comment="spin 2">
       <r>   -45.3438     0.0000     0.0000 </r>
       <r>   -45.1516     0.0000     0.0000 </r>
       <r>   -44.9594     0.0000     0.0000 </r>
       <r>   -44.7672     0.0000     0.0000 </r>
       <r>   -44.5750     0.0000     0.0000 </r>
       <r>   -44.3827     0.0000     0.0000 </r>
       <r>   -44.1905     0.0000     0.0000 </r>
       <r>   -43.9983     0.0000     0.0000 </r>
       <r>   -43.8061     0.0000     0.0000 </r>
       <r>   -43.6139     0.0000     0.0000 </r>
       <r>   -43.4217     0.0000     0.0000 </r>
       <r>   -43.2294     0.0000     0.0000 </r>
       <r>   -43.0372     0.0000     0.0000 </r>
       <r>   -42.8450     0.0000     0.0000 </r>
       <r>   -42.6528    26.2205     5.0400 </r>
       <r>   -42.4606    75.0759    19.4774 </r>
       <r>   -42.2684    23.5083    24.0000 </r>
       <r>   -42.0762     0.0000    24.0000 </r>
       <r>   -41.8839     0.0000    24.0000 </r>
       <r>   -41.6917     0.0000    24.0000 </r>
       <r>   -41.4995     0.0000    24.0000 </r>
       <r>   -41.3073     0.0000    24.0000 </r>
       <r>   -41.1151     0.0000    24.0000 </r>
       <r>   -40.9229     0.0000    24.0000 </r>
       <r>   -40.7307     0.0000    24.0000 </r>
       <r>   -40.5384     0.0000    24.0000 </r>
       <r>   -40.3462     0.0000    24.0000 </r>
       <r>   -40.1540     0.0000    24.0000 </r>
       <r>   -39.9618     0.0000    24.0000 </r>
       <r>   -39.7696     0.0000    24.0000 </r>
       <r>   -39.5774     0.0000    24.0000 </r>
       <r>   -39.3851     0.0000    24.0000 </r>
       <r>   -39.1929     0.0000    24.0000 </r>
       <r>   -39.0007     0.0000    24.0000 </r>
       <r>   -38.8085     0.0000    24.0000 </r>
       <r>   -38.6163     0.0000    24.0000 </r>
       <r>   -38.4241     0.0000    24.0000 </r>
       <r>   -38.2319     0.0000    24.0000 </r>
       <r>   -38.0396     0.0000    24.0000 </r>
       <r>   -37.8474     0.0000    24.0000 </r>
       <r>   -37.6552     0.0000    24.0000 </r>
       <r>   -37.4630     0.0000    24.0000 </r>
       <r>   -37.2708     0.0000    24.0000 </r>
       <r>   -37.0786     0.0000    24.0000 </r>
       <r>   -36.8863     0.0000    24.0000 </r>
       <r>   -36.6941     0.0000    24.0000 </r>
       <r>   -36.5019     0.0000    24.0000 </r>
       <r>   -36.3097     0.0000    24.0000 </r>
       <r>   -36.1175     0.0000    24.0000 </r>
       <r>   -35.9253     0.0000    24.0000 </r>
       <r>   -35.7331     0.0000    24.0000 </r>
       <r>   -35.5408     0.0000    24.0000 </r>
       <r>   -35.3486     0.0000    24.0000 </r>
       <r>   -35.1564     0.0000    24.0000 </r>
       <r>   -34.9642     0.0000    24.0000 </r>
       <r>   -34.7720     0.0000    24.0000 </r>
       <r>   -34.5798     0.0000    24.0000 </r>
       <r>   -34.3875     0.0000    24.0000 </r>
       <r>   -34.1953     0.0000    24.0000 </r>
       <r>   -34.0031     0.0000    24.0000 </r>
       <r>   -33.8109     0.0000    24.0000 </r>
       <r>   -33.6187     0.0000    24.0000 </r>
       <r>   -33.4265     0.0000    24.0000 </r>
       <r>   -33.2343     0.0000    24.0000 </r>
       <r>   -33.0420     0.0000    24.0000 </r>
       <r>   -32.8498     0.0000    24.0000 </r>
       <r>   -32.6576     0.0000    24.0000 </r>
       <r>   -32.4654     0.0000    24.0000 </r>
       <r>   -32.2732     0.0000    24.0000 </r>
       <r>   -32.0810     0.0000    24.0000 </r>
       <r>   -31.8887     0.0000    24.0000 </r>
       <r>   -31.6965     0.0000    24.0000 </r>
       <r>   -31.5043     0.0000    24.0000 </r>
       <r>   -31.3121     0.0000    24.0000 </r>
       <r>   -31.1199     0.0000    24.0000 </r>
       <r>   -30.9277     0.0000    24.0000 </r>
       <r>   -30.7355     0.0000    24.0000 </r>
       <r>   -30.5432     0.0000    24.0000 </r>
       <r>   -30.3510     0.0000    24.0000 </r>
       <r>   -30.1588     0.0000    24.0000 </r>
       <r>   -29.9666     0.0000    24.0000 </r>
       <r>   -29.7744     0.0000    24.0000 </r>
       <r>   -29.5822     0.0000    24.0000 </r>
       <r>   -29.3899     0.0000    24.0000 </r>
       <r>   -29.1977     0.0000    24.0000 </r>
       <r>   -29.0055     0.0000    24.0000 </r>
       <r>   -28.8133     0.0000    24.0000 </r>
       <r>   -28.6211     0.0000    24.0000 </r>
       <r>   -28.4289     0.0000    24.0000 </r>
       <r>   -28.2367     0.0000    24.0000 </r>
       <r>   -28.0444     0.0000    24.0000 </r>
       <r>   -27.8522     0.0000    24.0000 </r>
       <r>   -27.6600     0.0000    24.0000 </r>
       <r>   -27.4678     0.0000    24.0000 </r>
       <r>   -27.2756     0.0000    24.0000 </r>
       <r>   -27.0834     0.0000    24.0000 </r>
       <r>   -26.8911     0.0000    24.0000 </r>
       <r>   -26.6989     0.0000    24.0000 </r>
       <r>   -26.5067     0.0000    24.0000 </r>
       <r>   -26.3145     0.0000    24.0000 </r>
       <r>   -26.1223     0.0000    24.0000 </r>
       <r>   -25.9301     0.0000    24.0000 </r>
       <r>   -25.7379     0.0000    24.0000 </r>
       <r>   -25.5456     0.0000    24.0000 </r>
       <r>   -25.3534     0.0000    24.0000 </r>
       <r>   -25.1612     0.0000    24.0000 </r>
       <r>   -24.9690     0.0000    24.0000 </r>
       <r>   -24.7768     0.0000    24.0000 </r>
       <r>   -24.5846     0.0000    24.0000 </r>
       <r>   -24.3923     0.0000    24.0000 </r>
       <r>   -24.2001     0.0000    24.0000 </r>
       <r>   -24.0079     0.0000    24.0000 </r>
       <r>   -23.8157     0.0000    24.0000 </r>
       <r>   -23.6235     0.0000    24.0000 </r>
       <r>   -23.4313     0.0000    24.0000 </r>
       <r>   -23.2391     0.0000    24.0000 </r>
       <r>   -23.0468     0.0000    24.0000 </r>
       <r>   -22.8546     0.0000    24.0000 </r>
       <r>   -22.6624     0.0000    24.0000 </r>
       <r>   -22.4702     0.0000    24.0000 </r>
       <r>   -22.2780     0.0000    24.0000 </r>
       <r>   -22.0858     0.0000    24.0000 </r>
       <r>   -21.8935     0.0000    24.0000 </r>
       <r>   -21.7013     0.0000    24.0000 </r>
       <r>   -21.5091     0.0000    24.0000 </r>
       <r>   -21.3169     0.0000    24.0000 </r>
       <r>   -21.1247     0.0000    24.0000 </r>
       <r>   -20.9325     0.0000    24.0000 </r>
       <r>   -20.7403     0.0000    24.0000 </r>
       <r>   -20.5480     0.0000    24.0000 </r>
       <r>   -20.3558     0.0000    24.0000 </r>
       <r>   -20.1636     0.0000    24.0000 </r>
       <r>   -19.9714     0.0000    24.0000 </r>
       <r>   -19.7792     0.0000    24.0000 </r>
       <r>   -19.5870     0.0000    24.0000 </r>
       <r>   -19.3947     0.0000    24.0000 </r>
       <r>   -19.2025     0.0000    24.0000 </r>
       <r>   -19.0103     0.0000    24.0000 </r>
       <r>   -18.8181     0.0000    24.0000 </r>
       <r>   -18.6259     0.0000    24.0000 </r>
       <r>   -18.4337     0.0000    24.0000 </r>
       <r>   -18.2415     0.0000    24.0000 </r>
       <r>   -18.0492     0.0000    24.0000 </r>
       <r>   -17.8570     0.0000    24.0000 </r>
       <r>   -17.6648     0.0000    24.0000 </r>
       <r>   -17.4726     0.0000    24.0000 </r>
       <r>   -17.2804     0.0000    24.0000 </r>
       <r>   -17.0882     0.0000    24.0000 </r>
       <r>   -16.8959     0.0000    24.0000 </r>
       <r>   -16.7037     0.0000    24.0000 </r>
       <r>   -16.5115     0.0000    24.0000 </r>
       <r>   -16.3193     0.0000    24.0000 </r>
       <r>   -16.1271     0.0000    24.0000 </r>
       <r>   -15.9349     0.0000    24.0000 </r>
       <r>   -15.7427     0.0000    24.0000 </r>
       <r>   -15.5504     0.0000    24.0000 </r>
       <r>   -15.3582     0.0000    24.0000 </r>
       <r>   -15.1660     0.0000    24.0000 </r>
       <r>   -14.9738     0.0000    24.0000 </r>
       <r>   -14.7816     0.0000    24.0000 </r>
       <r>   -14.5894     0.0000    24.0000 </r>
       <r>   -14.3972     0.0000    24.0000 </r>
       <r>   -14.2049     0.0000    24.0000 </r>
       <r>   -14.0127     0.0000    24.0000 </r>
       <r>   -13.8205     0.0000    24.0000 </r>
       <r>   -13.6283     0.0000    24.0000 </r>
       <r>   -13.4361     0.0000    24.0000 </r>
       <r>   -13.2439     1.3917    24.2675 </r>
       <r>   -13.0516    19.4183    28.0000 </r>
       <r>   -12.8594     0.0000    28.0000 </r>
       <r>   -12.6672     4.8514    28.9325 </r>
       <r>   -12.4750    15.9404    31.9965 </r>
       <r>   -12.2828     0.0000    32.0000 </r>
       <r>   -12.0906     0.0000    32.0000 </r>
       <r>   -11.8984     0.0000    32.0000 </r>
       <r>   -11.7061     0.0000    32.0000 </r>
       <r>   -11.5139     0.0000    32.0000 </r>
       <r>   -11.3217     0.0000    32.0000 </r>
       <r>   -11.1295     0.0000    32.0000 </r>
       <r>   -10.9373     0.0000    32.0000 </r>
       <r>   -10.7451     0.0000    32.0000 </r>
       <r>   -10.5528     0.0126    32.0024 </r>
       <r>   -10.3606    15.9364    35.0656 </r>
       <r>   -10.1684    26.1702    40.0979 </r>
       <r>    -9.9762    20.2619    44.0000 </r>
       <r>    -9.7840     0.0000    44.0000 </r>
       <r>    -9.5918     0.0000    44.0000 </r>
       <r>    -9.3996     0.0000    44.0000 </r>
       <r>    -9.2073     0.0000    44.0000 </r>
       <r>    -9.0151     0.0000    44.0000 </r>
       <r>    -8.8229     0.0000    44.0000 </r>
       <r>    -8.6307     5.2025    45.0000 </r>
       <r>    -8.4385    14.3328    47.7550 </r>
       <r>    -8.2463     1.2747    48.0000 </r>
       <r>    -8.0540     0.0000    48.0000 </r>
       <r>    -7.8618     0.0000    48.0000 </r>
       <r>    -7.6696     0.0000    48.0000 </r>
       <r>    -7.4774     0.0000    48.0000 </r>
       <r>    -7.2852     0.0000    48.0000 </r>
       <r>    -7.0930     0.0000    48.0000 </r>
       <r>    -6.9008     0.0000    48.0000 </r>
       <r>    -6.7085     0.0000    48.0000 </r>
       <r>    -6.5163     0.0000    48.0000 </r>
       <r>    -6.3241     2.5874    48.4973 </r>
       <r>    -6.1319     2.6151    49.0000 </r>
       <r>    -5.9397     2.8876    49.5550 </r>
       <r>    -5.7475    12.7144    51.9989 </r>
       <r>    -5.5552     0.0000    52.0000 </r>
       <r>    -5.3630     0.0000    52.0000 </r>
       <r>    -5.1708     0.0000    52.0000 </r>
       <r>    -4.9786     0.0000    52.0000 </r>
       <r>    -4.7864     0.0000    52.0000 </r>
       <r>    -4.5942     0.0000    52.0000 </r>
       <r>    -4.4020     0.0000    52.0000 </r>
       <r>    -4.2097     0.0000    52.0000 </r>
       <r>    -4.0175     0.0000    52.0000 </r>
       <r>    -3.8253     0.0000    52.0000 </r>
       <r>    -3.6331     0.0000    52.0000 </r>
       <r>    -3.4409     1.4971    52.2878 </r>
       <r>    -3.2487    14.1104    55.0000 </r>
       <r>    -3.0564     2.4002    55.4614 </r>
       <r>    -2.8642    10.7374    57.5252 </r>
       <r>    -2.6720    14.2003    60.2553 </r>
       <r>    -2.4798    16.2940    63.3886 </r>
       <r>    -2.2876     3.1807    64.0000 </r>
       <r>    -2.0954     0.0000    64.0000 </r>
       <r>    -1.9032     0.0000    64.0000 </r>
       <r>    -1.7109     0.3960    64.0761 </r>
       <r>    -1.5187    14.9561    66.9509 </r>
       <r>    -1.3265    18.1315    70.4390 </r>
       <r>    -1.1343    18.0396    73.9091 </r>
       <r>    -0.9421    10.5597    75.9412 </r>
       <r>    -0.7499     0.5942    76.0554 </r>
       <r>    -0.5576    15.3289    79.0018 </r>
       <r>    -0.3654    10.6731    81.0534 </r>
       <r>    -0.1732    25.1203    85.8821 </r>
       <r>     0.0190    26.1117    90.9033 </r>
       <r>     0.2112    18.4996    94.4612 </r>
       <r>     0.4034     7.9995    96.0000 </r>
       <r>     0.5956     6.7343    97.2944 </r>
       <r>     0.7879    23.3187   101.7775 </r>
       <r>     0.9801    24.3247   106.4539 </r>
       <r>     1.1723    28.0055   111.8371 </r>
       <r>     1.3645    27.9035   117.2011 </r>
       <r>     1.5567    14.5218   119.9956 </r>
       <r>     1.7489     0.0000   120.0000 </r>
       <r>     1.9412     0.0000   120.0000 </r>
       <r>     2.1334     0.0000   120.0000 </r>
       <r>     2.3256     0.0000   120.0000 </r>
       <r>     2.5178     0.0000   120.0000 </r>
       <r>     2.7100     0.0000   120.0000 </r>
       <r>     2.9022     0.0000   120.0000 </r>
       <r>     3.0944     0.0000   120.0000 </r>
       <r>     3.2867     0.0000   120.0000 </r>
       <r>     3.4789     0.0000   120.0000 </r>
       <r>     3.6711     0.0000   120.0000 </r>
       <r>     3.8633     0.0000   120.0000 </r>
       <r>     4.0555     0.0000   120.0000 </r>
       <r>     4.2477     5.0509   120.9709 </r>
       <r>     4.4400     0.1239   121.0000 </r>
       <r>     4.6322     0.0000   121.0000 </r>
       <r>     4.8244     0.0000   121.0000 </r>
       <r>     5.0166     4.3720   121.8404 </r>
       <r>     5.2088    11.1513   123.9838 </r>
       <r>     5.4010     0.0635   124.0000 </r>
       <r>     5.5932     0.0069   124.0013 </r>
       <r>     5.7855    10.2385   125.9693 </r>
       <r>     5.9777    14.3410   128.7259 </r>
       <r>     6.1699     6.6285   130.0000 </r>
       <r>     6.3621     9.0918   131.7476 </r>
       <r>     6.5543     8.9632   133.4777 </r>
       <r>     6.7465    13.1000   135.9958 </r>
       <r>     6.9388     4.9260   136.9436 </r>
       <r>     7.1310     0.4531   137.0307 </r>
       <r>     7.3232    11.2524   139.1936 </r>
       <r>     7.5154    10.9610   141.3005 </r>
       <r>     7.7076    13.6638   143.9271 </r>
       <r>     7.8998     8.4381   145.5534 </r>
       <r>     8.0920    17.4479   148.9073 </r>
       <r>     8.2843    15.1540   151.8210 </r>
       <r>     8.4765    11.3677   154.0121 </r>
       <r>     8.6687    18.0500   157.4822 </r>
       <r>     8.8609    17.4491   160.8403 </r>
       <r>     9.0531    18.9913   164.4914 </r>
       <r>     9.2453    19.7638   168.2903 </r>
       <r>     9.4376    17.7892   171.7097 </r>
       <r>     9.6298    16.4057   174.8634 </r>
       <r>     9.8220     5.9133   176.0000 </r>
       <r>    10.0142     0.0000   176.0000 </r>
       <r>    10.2064     0.0000   176.0000 </r>
       <r>    10.3986     0.0000   176.0000 </r>
       <r>    10.5908     0.0000   176.0000 </r>
       <r>    10.7831     0.0000   176.0000 </r>
       <r>    10.9753     0.0000   176.0000 </r>
       <r>    11.1675     0.0000   176.0000 </r>
       <r>    11.3597     0.0000   176.0000 </r>
       <r>    11.5519     0.0000   176.0000 </r>
       <r>    11.7441     0.0000   176.0000 </r>
       <r>    11.9363     0.0000   176.0000 </r>
       <r>    12.1286     0.0000   176.0000 </r>
       <r>    12.3208     0.0000   176.0000 </r>
      </set>
     </set>
    </array>
   </total>
  </dos>
 </calculation>
 <structure name="finalpos" >
  <crystal>
   <varray name="basis" >
    <v>       9.73816457       0.00000000       0.00000000 </v>
    <v>       0.00000000       9.73816457       0.00000000 </v>
    <v>       0.00000000       0.00000000       9.73816457 </v>
   </varray>
   <i name="volume">    923.48815450 </i>
   <varray name="rec_basis" >
    <v>       0.10268876       0.00000000       0.00000000 </v>
    <v>       0.00000000       0.10268876       0.00000000 </v>
    <v>       0.00000000       0.00000000       0.10268876 </v>
   </varray>
  </crystal>
  <varray name="positions" >
   <v>       0.99211095       0.23779819       0.26206740 </v>
   <v>       0.96507122       0.75392144       0.74594415 </v>
   <v>       0.01647229       0.29034797       0.70281445 </v>
   <v>       0.01647229       0.79705114       0.20951763 </v>
   <v>       0.18811545       0.18266964       0.96364073 </v>
   <v>       0.20842106       0.79839046       0.00619642 </v>
   <v>       0.82403234       0.15401134       0.04127734 </v>
   <v>       0.73987081       0.72078874       0.99097370 </v>
   <v>       0.22684311       0.98635275       0.20964624 </v>
   <v>       0.32224031       0.04569760       0.67790869 </v>
   <v>       0.68630101       0.97198165       0.72020360 </v>
   <v>       0.69546789       0.00885990       0.30407007 </v>
   <v>       0.32224031       0.82195690       0.45416799 </v>
   <v>       0.22684311       0.29021935       0.51351285 </v>
   <v>       0.68630101       0.77966199       0.52788394 </v>
   <v>       0.69546789       0.19579552       0.49100570 </v>
   <v>       0.20842106       0.49366918       0.70147513 </v>
   <v>       0.18811545       0.53622486       0.31719595 </v>
   <v>       0.82403234       0.45858826       0.34585425 </v>
   <v>       0.73987081       0.50889190       0.77907685 </v>
   <v>       0.46666845       0.32331894       0.82986553 </v>
   <v>       0.46666845       0.67000007       0.17654665 </v>
   <v>       0.55467884       0.32940406       0.17046153 </v>
   <v>       0.50461857       0.69016078       0.80970481 </v>
   <v>       0.50315959       0.49924792       0.49195701 </v>
   <v>       0.50315959       0.00790858       0.00061768 </v>
   <v>       0.00664779       0.48756956       0.01229603 </v>
   <v>       0.00533603       0.98725944       0.51260615 </v>
   <v>       0.13869496       0.87222427       0.62764133 </v>
   <v>       0.13619838       0.10504288       0.39482271 </v>
   <v>       0.88072103       0.86404013       0.39590128 </v>
   <v>       0.88072103       0.10396431       0.63582546 </v>
   <v>       0.88640038       0.60118985       0.14314386 </v>
   <v>       0.88640038       0.35672174       0.89867574 </v>
   <v>       0.11040818       0.61820265       0.88166294 </v>
   <v>       0.14239097       0.37496524       0.12490035 </v>
   <v>       0.63017871       0.13325830       0.88861062 </v>
   <v>       0.61263821       0.87496298       0.12325359 </v>
   <v>       0.38834884       0.13867442       0.11757119 </v>
   <v>       0.38162047       0.89654401       0.86841479 </v>
   <v>       0.63017871       0.61125498       0.36660730 </v>
   <v>       0.61263821       0.37661200       0.62490262 </v>
   <v>       0.38162047       0.63145080       0.60332158 </v>
   <v>       0.38834884       0.38229441       0.36119117 </v>
   <v>       0.73405327       0.74224741       0.75761818 </v>
   <v>       0.75854675       0.23669876       0.26316683 </v>
   <v>       0.25081114       0.75357397       0.23707575 </v>
   <v>       0.25081114       0.26278984       0.74629162 </v>
   <v>       0.03154997       0.99471867       0.04121373 </v>
   <v>       0.03154997       0.45865186       0.50514692 </v>
   <v>       0.53322541       0.98707370       0.51279190 </v>
   <v>       0.52672716       0.51393549       0.98593010 </v>
  </varray>
 </structure>
</modeling>
