unknown system                          
           1
     9.738165    0.000000    0.000000
     0.000000    9.738165    0.000000
     0.000000    0.000000    9.738165
   Li   P    S    Cl
    24     4    20     4
Direct configuration=     1
   0.99211086  0.23779600  0.26206959
   0.96507087  0.75391708  0.74594852
   0.01647220  0.29034836  0.70281280
   0.01647220  0.79705279  0.20951723
   0.18811697  0.18267250  0.96364049
   0.20842022  0.79839138  0.00619700
   0.82403228  0.15401557  0.04127644
   0.73985288  0.72077314  0.99097480
   0.22684538  0.98635350  0.20964757
   0.32223603  0.04569658  0.67791147
   0.68630580  0.97198068  0.72020514
   0.69546916  0.00885999  0.30406885
   0.32223603  0.82195412  0.45416902
   0.22684538  0.29021802  0.51351210
   0.68630580  0.77966046  0.52788491
   0.69546916  0.19579675  0.49100560
   0.20842022  0.49366860  0.70147422
   0.18811697  0.53622510  0.31719309
   0.82403228  0.45858915  0.34585002
   0.73985288  0.50889080  0.77909245
   0.46666852  0.32331755  0.82985970
   0.46666852  0.67000589  0.17654804
   0.55467958  0.32940085  0.17046475
   0.50461717  0.69016935  0.80969624
   0.50316106  0.49924974  0.49196602
   0.50316106  0.00789957  0.00061586
   0.00665171  0.48757452  0.01229107
   0.00533494  0.98725916  0.51260643
   0.13868947  0.87222417  0.62764143
   0.13619709  0.10503979  0.39482580
   0.88072343  0.86404415  0.39590232
   0.88072343  0.10396328  0.63582144
   0.88640149  0.60119174  0.14314103
   0.88640149  0.35672456  0.89867385
   0.11040725  0.61819600  0.88166960
   0.14238668  0.37496470  0.12490089
   0.63017822  0.13325730  0.88860967
   0.61263528  0.87496931  0.12324863
   0.38834857  0.13867647  0.11757106
   0.38162159  0.89654849  0.86841930
   0.63017822  0.61125593  0.36660830
   0.61263528  0.37661697  0.62489628
   0.38162159  0.63144629  0.60331711
   0.38834857  0.38229453  0.36118912
   0.73405439  0.74224595  0.75761964
   0.75854830  0.23669847  0.26316712
   0.25080977  0.75357537  0.23707538
   0.25080977  0.26279021  0.74629022
   0.03155653  0.99472272  0.04122012
   0.03155653  0.45864547  0.50514288
   0.53323266  0.98707019  0.51279540
   0.52673899  0.51394156  0.98592403
Direct configuration=     2
   0.99211100  0.23779668  0.26206892
   0.96507102  0.75391815  0.74594744
   0.01647227  0.29034824  0.70281327
   0.01647227  0.79705232  0.20951735
   0.18811670  0.18267183  0.96364067
   0.20842050  0.79839116  0.00619692
   0.82403234  0.15401459  0.04127665
   0.73985722  0.72077683  0.99097462
   0.22684479  0.98635338  0.20964718
   0.32223713  0.04569686  0.67791077
   0.68630461  0.97198098  0.72020472
   0.69546891  0.00886004  0.30406918
   0.32223713  0.82195483  0.45416873
   0.22684479  0.29021841  0.51351222
   0.68630461  0.77966087  0.52788461
   0.69546891  0.19579641  0.49100556
   0.20842050  0.49366867  0.70147443
   0.18811670  0.53622493  0.31719376
   0.82403234  0.45858895  0.34585100
   0.73985722  0.50889098  0.77908877
   0.46666855  0.32331783  0.82986121
   0.46666855  0.67000438  0.17654777
   0.55467937  0.32940160  0.17046399
   0.50461755  0.69016730  0.80969829
   0.50316011  0.49924898  0.49196154
   0.50316011  0.00790406  0.00061661
   0.00664990  0.48757201  0.01229358
   0.00533545  0.98725941  0.51260618
   0.13869134  0.87222397  0.62764163
   0.13619767  0.10504066  0.39482494
   0.88072258  0.86404274  0.39590182
   0.88072258  0.10396377  0.63582286
   0.88640131  0.60119115  0.14314172
   0.88640131  0.35672388  0.89867445
   0.11040839  0.61819877  0.88166682
   0.14238777  0.37496505  0.12490054
   0.63017823  0.13325742  0.88861011
   0.61263668  0.87496675  0.12325061
   0.38834938  0.13867530  0.11757041
   0.38162076  0.89654666  0.86841740
   0.63017823  0.61125548  0.36660818
   0.61263668  0.37661498  0.62489885
   0.38162076  0.63144820  0.60331894
   0.38834938  0.38229518  0.36119029
   0.73405410  0.74224637  0.75761922
   0.75854781  0.23669860  0.26316699
   0.25081033  0.75357488  0.23707550
   0.25081033  0.26279009  0.74629071
   0.03155435  0.99472169  0.04121793
   0.03155435  0.45864766  0.50514391
   0.53323003  0.98707129  0.51279430
   0.52673575  0.51393963  0.98592596
Direct configuration=     3
   0.99211106  0.23779694  0.26206866
   0.96507108  0.75391856  0.74594703
   0.01647230  0.29034820  0.70281345
   0.01647230  0.79705214  0.20951740
   0.18811660  0.18267157  0.96364073
   0.20842061  0.79839108  0.00619689
   0.82403236  0.15401422  0.04127673
   0.73985887  0.72077823  0.99097455
   0.22684457  0.98635333  0.20964704
   0.32223755  0.04569697  0.67791050
   0.68630416  0.97198109  0.72020457
   0.69546881  0.00886005  0.30406931
   0.32223755  0.82195509  0.45416863
   0.22684457  0.29021856  0.51351226
   0.68630416  0.77966103  0.52788450
   0.69546881  0.19579628  0.49100554
   0.20842061  0.49366870  0.70147452
   0.18811660  0.53622486  0.31719402
   0.82403236  0.45858887  0.34585138
   0.73985887  0.50889105  0.77908736
   0.46666857  0.32331793  0.82986178
   0.46666857  0.67000381  0.17654766
   0.55467929  0.32940189  0.17046371
   0.50461769  0.69016652  0.80969907
   0.50315975  0.49924870  0.49195983
   0.50315975  0.00790576  0.00061690
   0.00664921  0.48757106  0.01229454
   0.00533564  0.98725950  0.51260609
   0.13869205  0.87222389  0.62764170
   0.13619789  0.10504099  0.39482461
   0.88072225  0.86404220  0.39590163
   0.88072225  0.10396396  0.63582340
   0.88640124  0.60119092  0.14314198
   0.88640124  0.35672362  0.89867467
   0.11040882  0.61819983  0.88166576
   0.14238819  0.37496518  0.12490041
   0.63017823  0.13325746  0.88861028
   0.61263722  0.87496577  0.12325137
   0.38834969  0.13867485  0.11757016
   0.38162045  0.89654596  0.86841667
   0.63017823  0.61125531  0.36660813
   0.61263722  0.37661422  0.62489982
   0.38162045  0.63144893  0.60331963
   0.38834969  0.38229543  0.36119074
   0.73405399  0.74224653  0.75761906
   0.75854762  0.23669865  0.26316694
   0.25081055  0.75357469  0.23707555
   0.25081055  0.26279005  0.74629090
   0.03155352  0.99472129  0.04121710
   0.03155352  0.45864850  0.50514430
   0.53322903  0.98707171  0.51279389
   0.52673452  0.51393889  0.98592670
Direct configuration=     4
   0.99211117  0.23779745  0.26206814
   0.96507119  0.75391938  0.74594622
   0.01647236  0.29034810  0.70281381
   0.01647236  0.79705178  0.20951749
   0.18811640  0.18267106  0.96364087
   0.20842082  0.79839091  0.00619683
   0.82403241  0.15401347  0.04127688
   0.73986217  0.72078104  0.99097441
   0.22684412  0.98635324  0.20964674
   0.32223838  0.04569718  0.67790996
   0.68630325  0.97198132  0.72020425
   0.69546862  0.00886009  0.30406957
   0.32223838  0.82195563  0.45416841
   0.22684412  0.29021885  0.51351235
   0.68630325  0.77966134  0.52788427
   0.69546862  0.19579602  0.49100550
   0.20842082  0.49366876  0.70147468
   0.18811640  0.53622473  0.31719453
   0.82403241  0.45858871  0.34585212
   0.73986217  0.50889119  0.77908456
   0.46666859  0.32331814  0.82986293
   0.46666859  0.67000266  0.17654745
   0.55467913  0.32940246  0.17046314
   0.50461798  0.69016496  0.80970064
   0.50315903  0.49924812  0.49195641
   0.50315903  0.00790918  0.00061747
   0.00664784  0.48756914  0.01229645
   0.00533603  0.98725969  0.51260590
   0.13869347  0.87222374  0.62764185
   0.13619834  0.10504165  0.39482395
   0.88072160  0.86404112  0.39590126
   0.88072160  0.10396434  0.63582448
   0.88640111  0.60119047  0.14314250
   0.88640111  0.35672310  0.89867513
   0.11040969  0.61820194  0.88166365
   0.14238902  0.37496545  0.12490014
   0.63017823  0.13325755  0.88861063
   0.61263830  0.87496382  0.12325288
   0.38835031  0.13867396  0.11756967
   0.38161982  0.89654457  0.86841522
   0.63017823  0.61125497  0.36660804
   0.61263830  0.37661271  0.62490178
   0.38161982  0.63145038  0.60332102
   0.38835031  0.38229593  0.36119163
   0.73405376  0.74224685  0.75761874
   0.75854725  0.23669875  0.26316685
   0.25081098  0.75357432  0.23707564
   0.25081098  0.26278996  0.74629128
   0.03155185  0.99472051  0.04121543
   0.03155185  0.45865016  0.50514508
   0.53322702  0.98707254  0.51279305
   0.52673205  0.51393742  0.98592817
Direct configuration=     5
   0.99211119  0.23779758  0.26206802
   0.96507122  0.75391957  0.74594602
   0.01647237  0.29034808  0.70281389
   0.01647237  0.79705170  0.20951751
   0.18811635  0.18267094  0.96364090
   0.20842088  0.79839087  0.00619682
   0.82403242  0.15401329  0.04127692
   0.73986296  0.72078170  0.99097438
   0.22684401  0.98635322  0.20964667
   0.32223858  0.04569724  0.67790984
   0.68630304  0.97198138  0.72020418
   0.69546858  0.00886010  0.30406963
   0.32223858  0.82195576  0.45416836
   0.22684401  0.29021892  0.51351237
   0.68630304  0.77966141  0.52788422
   0.69546858  0.19579596  0.49100550
   0.20842088  0.49366878  0.70147472
   0.18811635  0.53622469  0.31719465
   0.82403242  0.45858867  0.34585230
   0.73986296  0.50889122  0.77908389
   0.46666860  0.32331819  0.82986321
   0.46666860  0.67000239  0.17654740
   0.55467909  0.32940259  0.17046300
   0.50461805  0.69016459  0.80970101
   0.50315886  0.49924799  0.49195560
   0.50315886  0.00790999  0.00061761
   0.00664751  0.48756869  0.01229690
   0.00533613  0.98725974  0.51260586
   0.13869381  0.87222370  0.62764189
   0.13619844  0.10504181  0.39482379
   0.88072144  0.86404086  0.39590117
   0.88072144  0.10396443  0.63582473
   0.88640107  0.60119036  0.14314262
   0.88640107  0.35672297  0.89867524
   0.11040989  0.61820245  0.88166315
   0.14238921  0.37496551  0.12490008
   0.63017824  0.13325758  0.88861071
   0.61263855  0.87496335  0.12325324
   0.38835046  0.13867375  0.11756955
   0.38161967  0.89654424  0.86841487
   0.63017824  0.61125489  0.36660802
   0.61263855  0.37661235  0.62490224
   0.38161967  0.63145072  0.60332135
   0.38835046  0.38229605  0.36119184
   0.73405371  0.74224693  0.75761867
   0.75854716  0.23669877  0.26316682
   0.25081109  0.75357423  0.23707566
   0.25081109  0.26278994  0.74629136
   0.03155146  0.99472032  0.04121503
   0.03155146  0.45865056  0.50514527
   0.53322654  0.98707274  0.51279285
   0.52673147  0.51393707  0.98592852
Direct configuration=     6
   0.99211095  0.23779819  0.26206740
   0.96507122  0.75392144  0.74594415
   0.01647229  0.29034797  0.70281445
   0.01647229  0.79705114  0.20951763
   0.18811545  0.18266964  0.96364073
   0.20842106  0.79839046  0.00619642
   0.82403234  0.15401134  0.04127734
   0.73987081  0.72078874  0.99097370
   0.22684311  0.98635275  0.20964624
   0.32224031  0.04569760  0.67790869
   0.68630101  0.97198165  0.72020360
   0.69546789  0.00885990  0.30407007
   0.32224031  0.82195690  0.45416799
   0.22684311  0.29021935  0.51351285
   0.68630101  0.77966199  0.52788394
   0.69546789  0.19579552  0.49100570
   0.20842106  0.49366918  0.70147513
   0.18811545  0.53622486  0.31719595
   0.82403234  0.45858826  0.34585425
   0.73987081  0.50889190  0.77907685
   0.46666845  0.32331894  0.82986553
   0.46666845  0.67000007  0.17654665
   0.55467884  0.32940406  0.17046153
   0.50461857  0.69016078  0.80970481
   0.50315959  0.49924792  0.49195701
   0.50315959  0.00790858  0.00061768
   0.00664779  0.48756956  0.01229603
   0.00533603  0.98725944  0.51260615
   0.13869496  0.87222427  0.62764133
   0.13619838  0.10504288  0.39482271
   0.88072103  0.86404013  0.39590128
   0.88072103  0.10396431  0.63582546
   0.88640038  0.60118985  0.14314386
   0.88640038  0.35672174  0.89867574
   0.11040818  0.61820265  0.88166294
   0.14239097  0.37496524  0.12490035
   0.63017871  0.13325830  0.88861062
   0.61263821  0.87496298  0.12325359
   0.38834884  0.13867442  0.11757119
   0.38162047  0.89654401  0.86841479
   0.63017871  0.61125498  0.36660730
   0.61263821  0.37661200  0.62490262
   0.38162047  0.63145080  0.60332158
   0.38834884  0.38229441  0.36119117
   0.73405327  0.74224741  0.75761818
   0.75854675  0.23669876  0.26316683
   0.25081114  0.75357397  0.23707575
   0.25081114  0.26278984  0.74629162
   0.03154997  0.99471867  0.04121373
   0.03154997  0.45865186  0.50514692
   0.53322541  0.98707370  0.51279190
   0.52672716  0.51393549  0.98593010
