   52   52 1000    2
  0.1744621E+02  0.9680582E-09  0.9680582E-09  0.9680582E-09  0.2000000E-15
  1.000000000000000E-004
  CAR 
 unknown system                          
    240      4    176
