       N       E                     dE             d eps       ncg     rms          rms(c)
DAV:   1     0.159003588071E+04    0.15900E+04   -0.11335E+05  3080   0.126E+03
DAV:   2    -0.559249040675E+02   -0.16460E+04   -0.15491E+04  3840   0.361E+02
DAV:   3    -0.228527222545E+03   -0.17260E+03   -0.17052E+03  3768   0.117E+02
DAV:   4    -0.241928529679E+03   -0.13401E+02   -0.13375E+02  4720   0.333E+01
DAV:   5    -0.242200503439E+03   -0.27197E+00   -0.27187E+00  4504   0.476E+00
DAV:   6    -0.242211279373E+03   -0.10776E-01   -0.10775E-01  4656   0.109E+00
DAV:   7    -0.242211654512E+03   -0.37514E-03   -0.37511E-03  4568   0.213E-01
DAV:   8    -0.242211676174E+03   -0.21662E-04   -0.21662E-04  4592   0.602E-02
DAV:   9    -0.242211677551E+03   -0.13769E-05   -0.13767E-05  4440   0.134E-02
DAV:  10    -0.242211677610E+03   -0.59190E-07   -0.59701E-07  2632   0.419E-03    0.642E+01
RMM:  11    -0.235937788457E+03    0.62739E+01   -0.47559E+01  2816   0.194E+01    0.329E+01
RMM:  12    -0.256223340073E+03   -0.20286E+02   -0.21968E+01  2949   0.135E+01    0.202E+01
RMM:  13    -0.258725932784E+03   -0.25026E+01   -0.88060E+00  2908   0.537E+00    0.682E+00
RMM:  14    -0.258924639081E+03   -0.19871E+00   -0.19676E+00  3727   0.339E+00    0.324E+00
RMM:  15    -0.258896532185E+03    0.28107E-01   -0.33361E-01  3064   0.164E+00    0.693E-01
RMM:  16    -0.258916316807E+03   -0.19785E-01   -0.10342E-01  3083   0.885E-01    0.311E-01
RMM:  17    -0.258922368799E+03   -0.60520E-02   -0.25675E-02  3451   0.454E-01    0.172E-01
RMM:  18    -0.258923583225E+03   -0.12144E-02   -0.66754E-03  3375   0.207E-01    0.877E-02
RMM:  19    -0.258924052738E+03   -0.46951E-03   -0.19449E-03  3902   0.111E-01    0.430E-02
RMM:  20    -0.258924145094E+03   -0.92356E-04   -0.48123E-04  3844   0.483E-02    0.244E-02
RMM:  21    -0.258924162527E+03   -0.17433E-04   -0.14246E-04  3460   0.272E-02    0.973E-03
RMM:  22    -0.258924168349E+03   -0.58217E-05   -0.47716E-05  3817   0.151E-02    0.588E-03
RMM:  23    -0.258924168127E+03    0.22151E-06   -0.13668E-05  2920   0.808E-03    0.266E-03
RMM:  24    -0.258924167484E+03    0.64279E-06   -0.47708E-06  2181   0.605E-03
   1 F= -.27241409E+03 E0= -.27241409E+03  d E =-.272414E+03  mag=    -0.0004
       N       E                     dE             d eps       ncg     rms          rms(c)
DAV:   1    -0.258925873945E+03   -0.17058E-02   -0.49891E-02  3080   0.409E-01    0.470E-02
RMM:   2    -0.258926057412E+03   -0.18347E-03   -0.28985E-03  2840   0.202E-01    0.226E-02
RMM:   3    -0.258926159901E+03   -0.10249E-03   -0.12090E-03  3241   0.911E-02    0.130E-02
RMM:   4    -0.258926183197E+03   -0.23296E-04   -0.22220E-04  3686   0.412E-02    0.994E-03
RMM:   5    -0.258926184291E+03   -0.10932E-05   -0.24801E-05  3218   0.112E-02    0.544E-03
RMM:   6    -0.258926185027E+03   -0.73638E-06   -0.64345E-06  2658   0.554E-03
   2 F= -.27241626E+03 E0= -.27241626E+03  d E =-.217317E-02  mag=    -0.0000
       N       E                     dE             d eps       ncg     rms          rms(c)
DAV:   1    -0.258926068919E+03    0.11537E-03   -0.15934E-01  3328   0.739E-01    0.828E-02
RMM:   2    -0.258926738797E+03   -0.66988E-03   -0.96482E-03  2853   0.364E-01    0.404E-02
RMM:   3    -0.258927069800E+03   -0.33100E-03   -0.38072E-03  3232   0.163E-01    0.239E-02
RMM:   4    -0.258927141732E+03   -0.71932E-04   -0.72779E-04  3819   0.740E-02    0.177E-02
RMM:   5    -0.258927143108E+03   -0.13761E-05   -0.74074E-05  3465   0.191E-02    0.671E-03
RMM:   6    -0.258927145246E+03   -0.21374E-05   -0.21039E-05  3167   0.920E-03    0.266E-03
RMM:   7    -0.258927145366E+03   -0.12038E-06   -0.61431E-06  2516   0.518E-03
   3 F= -.27241750E+03 E0= -.27241750E+03  d E =-.340629E-02  mag=    -0.0000
       N       E                     dE             d eps       ncg     rms          rms(c)
DAV:   1    -0.258927193164E+03   -0.47918E-04   -0.31583E-03  3272   0.105E-01    0.117E-02
RMM:   2    -0.258927208690E+03   -0.15526E-04   -0.17989E-04  2833   0.502E-02    0.576E-03
RMM:   3    -0.258927216928E+03   -0.82381E-05   -0.73999E-05  3112   0.233E-02    0.347E-03
RMM:   4    -0.258927217680E+03   -0.75175E-06   -0.12482E-05  2798   0.102E-02    0.272E-03
RMM:   5    -0.258927217379E+03    0.30043E-06   -0.99917E-07  1909   0.340E-03
   4 F= -.27241753E+03 E0= -.27241753E+03  d E =-.344029E-02  mag=    -0.0000
       N       E                     dE             d eps       ncg     rms          rms(c)
DAV:   1    -0.258927214179E+03    0.35005E-05   -0.19483E-05  3496   0.871E-03    0.857E-04
RMM:   2    -0.258927214130E+03    0.49300E-07   -0.13449E-06  1832   0.419E-03
   5 F= -.27241753E+03 E0= -.27241753E+03  d E =-.344001E-02  mag=    -0.0000
       N       E                     dE             d eps       ncg     rms          rms(c)
DAV:   1    -0.258927319050E+03   -0.10487E-03   -0.93469E-03  3232   0.184E-01    0.186E-02
RMM:   2    -0.258927344508E+03   -0.25458E-04   -0.27545E-04  3346   0.581E-02    0.678E-03
RMM:   3    -0.258927351083E+03   -0.65751E-05   -0.70318E-05  3787   0.281E-02    0.434E-03
RMM:   4    -0.258927352403E+03   -0.13200E-05   -0.17385E-05  2848   0.128E-02    0.308E-03
RMM:   5    -0.258927352355E+03    0.48547E-07   -0.87840E-07  1862   0.416E-03
   6 F= -.27241765E+03 E0= -.27241765E+03  d E =-.123641E-03  mag=    -0.0000
       N       E                     dE             d eps       ncg     rms          rms(c)
DAV:   1    -0.258927314885E+03    0.37518E-04   -0.84017E-02  3192   0.552E-01    0.560E-02
RMM:   2    -0.258927546870E+03   -0.23198E-03   -0.24760E-03  3347   0.174E-01    0.204E-02
RMM:   3    -0.258927605571E+03   -0.58702E-04   -0.61844E-04  3854   0.841E-02    0.127E-02
RMM:   4    -0.258927618423E+03   -0.12852E-04   -0.15643E-04  4076   0.370E-02    0.921E-03
RMM:   5    -0.258927618220E+03    0.20282E-06   -0.78539E-06  2966   0.859E-03
   7 F= -.27241787E+03 E0= -.27241787E+03  d E =-.345873E-03  mag=    -0.0000
       N       E                     dE             d eps       ncg     rms          rms(c)
DAV:   1    -0.258927618118E+03    0.30475E-06   -0.12049E-02  3568   0.209E-01    0.223E-02
RMM:   2    -0.258927650708E+03   -0.32589E-04   -0.35323E-04  3284   0.664E-02    0.845E-03
RMM:   3    -0.258927659391E+03   -0.86829E-05   -0.92816E-05  3830   0.325E-02    0.490E-03
RMM:   4    -0.258927661225E+03   -0.18342E-05   -0.23129E-05  3194   0.144E-02    0.371E-03
RMM:   5    -0.258927661149E+03    0.75588E-07   -0.11894E-06  1888   0.426E-03
   8 F= -.27241790E+03 E0= -.27241790E+03  d E =-.372240E-03  mag=     0.0000
       N       E                     dE             d eps       ncg     rms          rms(c)
DAV:   1    -0.258927733177E+03   -0.71953E-04   -0.73273E-03  3392   0.156E-01    0.166E-02
RMM:   2    -0.258927752003E+03   -0.18825E-04   -0.20129E-04  3449   0.483E-02    0.533E-03
RMM:   3    -0.258927756487E+03   -0.44847E-05   -0.48853E-05  3720   0.232E-02    0.326E-03
RMM:   4    -0.258927757419E+03   -0.93139E-06   -0.12859E-05  2426   0.111E-02    0.254E-03
RMM:   5    -0.258927757422E+03   -0.28413E-08   -0.79849E-07  1861   0.447E-03
   9 F= -.27241799E+03 E0= -.27241799E+03  d E =-.924820E-04  mag=     0.0000
       N       E                     dE             d eps       ncg     rms          rms(c)
DAV:   1    -0.258927752004E+03    0.54151E-05   -0.66004E-02  3248   0.469E-01    0.491E-02
RMM:   2    -0.258927921546E+03   -0.16954E-03   -0.17987E-03  3502   0.143E-01    0.156E-02
RMM:   3    -0.258927961495E+03   -0.39949E-04   -0.41926E-04  3799   0.683E-02    0.954E-03
RMM:   4    -0.258927971273E+03   -0.97781E-05   -0.11801E-04  3918   0.310E-02    0.758E-03
RMM:   5    -0.258927971140E+03    0.13319E-06   -0.48584E-06  2429   0.674E-03
  10 F= -.27241820E+03 E0= -.27241820E+03  d E =-.294823E-03  mag=     0.0000
       N       E                     dE             d eps       ncg     rms          rms(c)
DAV:   1    -0.258927186300E+03    0.78497E-03   -0.26362E-01  3312   0.938E-01    0.985E-02
RMM:   2    -0.258927862421E+03   -0.67612E-03   -0.71661E-03  3508   0.285E-01    0.313E-02
RMM:   3    -0.258928035028E+03   -0.17261E-03   -0.17992E-03  3868   0.136E-01    0.205E-02
RMM:   4    -0.258928062577E+03   -0.27549E-04   -0.34117E-04  3955   0.557E-02    0.153E-02
RMM:   5    -0.258928061349E+03    0.12286E-05   -0.19055E-05  3761   0.136E-02    0.859E-03
RMM:   6    -0.258928061360E+03   -0.11822E-07   -0.63949E-06  2510   0.652E-03
  11 F= -.27241826E+03 E0= -.27241826E+03  d E =-.361964E-03  mag=    -0.0000
       N       E                     dE             d eps       ncg     rms          rms(c)
DAV:   1    -0.258927956732E+03    0.10462E-03   -0.36874E-02  3360   0.351E-01    0.367E-02
RMM:   2    -0.258928052475E+03   -0.95743E-04   -0.10024E-03  3528   0.107E-01    0.116E-02
RMM:   3    -0.258928074778E+03   -0.22303E-04   -0.23168E-04  3756   0.503E-02    0.723E-03
RMM:   4    -0.258928080195E+03   -0.54170E-05   -0.65667E-05  3566   0.228E-02    0.553E-03
RMM:   5    -0.258928080043E+03    0.15186E-06   -0.21490E-06  2009   0.509E-03
  12 F= -.27241829E+03 E0= -.27241829E+03  d E =-.389327E-03  mag=    -0.0000
       N       E                     dE             d eps       ncg     rms          rms(c)
DAV:   1    -0.258928076995E+03    0.32008E-05   -0.14874E-03  3536   0.712E-02    0.718E-03
RMM:   2    -0.258928080933E+03   -0.39387E-05   -0.42772E-05  3471   0.220E-02    0.229E-03
RMM:   3    -0.258928081706E+03   -0.77265E-06   -0.96189E-06  2496   0.101E-02
  13 F= -.27241829E+03 E0= -.27241829E+03  d E =-.389255E-03  mag=     0.0000
       N       E                     dE             d eps       ncg     rms          rms(c)
DAV:   1    -0.258928077828E+03    0.31052E-05   -0.76485E-04  3296   0.514E-02    0.594E-03
RMM:   2    -0.258928080078E+03   -0.22497E-05   -0.23495E-05  3415   0.163E-02    0.178E-03
RMM:   3    -0.258928080517E+03   -0.43948E-06   -0.57252E-06  2209   0.753E-03
  14 F= -.27241829E+03 E0= -.27241829E+03  d E =-.389353E-03  mag=    -0.0000
       N       E                     dE             d eps       ncg     rms          rms(c)
DAV:   1    -0.258928080654E+03   -0.57615E-06   -0.19078E-04  3136   0.263E-02    0.304E-03
RMM:   2    -0.258928081153E+03   -0.49855E-06   -0.60820E-06  2229   0.878E-03
  15 F= -.27241829E+03 E0= -.27241829E+03  d E =-.389344E-03  mag=     0.0000
       N       E                     dE             d eps       ncg     rms          rms(c)
DAV:   1    -0.258928080863E+03   -0.20866E-06   -0.57102E-05  3056   0.146E-02    0.169E-03
RMM:   2    -0.258928081004E+03   -0.14164E-06   -0.14260E-06  1562   0.452E-03
  16 F= -.27241829E+03 E0= -.27241829E+03  d E =-.389556E-03  mag=     0.0000
       N       E                     dE             d eps       ncg     rms          rms(c)
DAV:   1    -0.258928094504E+03   -0.13641E-04   -0.17360E-02  3216   0.227E-01    0.239E-02
RMM:   2    -0.258928137129E+03   -0.42626E-04   -0.45004E-04  3759   0.669E-02    0.526E-03
RMM:   3    -0.258928147726E+03   -0.10597E-04   -0.11082E-04  3896   0.312E-02    0.419E-03
RMM:   4    -0.258928149296E+03   -0.15697E-05   -0.19326E-05  2670   0.125E-02    0.424E-03
RMM:   5    -0.258928149186E+03    0.10958E-06   -0.11834E-06  1876   0.484E-03
  17 F= -.27241836E+03 E0= -.27241836E+03  d E =-.707239E-04  mag=    -0.0000
       N       E                     dE             d eps       ncg     rms          rms(c)
DAV:   1    -0.258928019779E+03    0.12952E-03   -0.70823E-02  3360   0.458E-01    0.489E-02
RMM:   2    -0.258928194076E+03   -0.17430E-03   -0.18355E-03  3757   0.135E-01    0.109E-02
RMM:   3    -0.258928238380E+03   -0.44304E-04   -0.45411E-04  3869   0.626E-02    0.839E-03
RMM:   4    -0.258928245140E+03   -0.67596E-05   -0.79736E-05  3797   0.256E-02    0.862E-03
RMM:   5    -0.258928244700E+03    0.44048E-06   -0.45210E-06  2286   0.690E-03
  18 F= -.27241846E+03 E0= -.27241846E+03  d E =-.171311E-03  mag=     0.0000
       N       E                     dE             d eps       ncg     rms          rms(c)
DAV:   1    -0.258927361518E+03    0.88362E-03   -0.28289E-01  3360   0.915E-01    0.976E-02
RMM:   2    -0.258928057550E+03   -0.69603E-03   -0.73243E-03  3766   0.270E-01    0.221E-02
RMM:   3    -0.258928238444E+03   -0.18089E-03   -0.18425E-03  3902   0.126E-01    0.170E-02
RMM:   4    -0.258928263281E+03   -0.24837E-04   -0.29185E-04  3916   0.499E-02    0.171E-02
RMM:   5    -0.258928261480E+03    0.18004E-05   -0.17875E-05  3685   0.132E-02    0.134E-02
RMM:   6    -0.258928261276E+03    0.20411E-06   -0.26168E-05  2714   0.974E-03    0.778E-03
RMM:   7    -0.258928260850E+03    0.42650E-06   -0.23132E-06  1945   0.504E-03
  19 F= -.27241849E+03 E0= -.27241849E+03  d E =-.197463E-03  mag=     0.0000
       N       E                     dE             d eps       ncg     rms          rms(c)
DAV:   1    -0.258928143503E+03    0.11777E-03   -0.43854E-02  3360   0.359E-01    0.399E-02
RMM:   2    -0.258928250790E+03   -0.10729E-03   -0.11259E-03  3798   0.104E-01    0.880E-03
RMM:   3    -0.258928278353E+03   -0.27562E-04   -0.27662E-04  3757   0.479E-02    0.615E-03
RMM:   4    -0.258928282673E+03   -0.43205E-05   -0.48993E-05  3451   0.199E-02    0.624E-03
RMM:   5    -0.258928282357E+03    0.31576E-06   -0.22781E-06  2006   0.588E-03
  20 F= -.27241851E+03 E0= -.27241851E+03  d E =-.215047E-03  mag=    -0.0000
       N       E                     dE             d eps       ncg     rms          rms(c)
DAV:   1    -0.258928203529E+03    0.79144E-04   -0.46328E-02  3104   0.370E-01    0.361E-02
RMM:   2    -0.258928324011E+03   -0.12048E-03   -0.12778E-03  3725   0.111E-01    0.917E-03
RMM:   3    -0.258928353032E+03   -0.29021E-04   -0.31124E-04  3856   0.513E-02    0.846E-03
RMM:   4    -0.258928355688E+03   -0.26565E-05   -0.39999E-05  3711   0.194E-02    0.737E-03
RMM:   5    -0.258928354969E+03    0.71901E-06   -0.30669E-06  2084   0.603E-03
  21 F= -.27241860E+03 E0= -.27241860E+03  d E =-.906838E-04  mag=    -0.0000
       N       E                     dE             d eps       ncg     rms          rms(c)
DAV:   1    -0.258928309123E+03    0.46565E-04   -0.18237E-02  3392   0.231E-01    0.242E-02
RMM:   2    -0.258928355668E+03   -0.46545E-04   -0.50203E-04  3734   0.695E-02    0.598E-03
RMM:   3    -0.258928366762E+03   -0.11094E-04   -0.11851E-04  3759   0.319E-02    0.463E-03
RMM:   4    -0.258928368591E+03   -0.18292E-05   -0.23472E-05  2951   0.136E-02    0.430E-03
RMM:   5    -0.258928368413E+03    0.17836E-06   -0.12328E-06  1904   0.453E-03
  22 F= -.27241862E+03 E0= -.27241862E+03  d E =-.115524E-03  mag=     0.0000
       N       E                     dE             d eps       ncg     rms          rms(c)
DAV:   1    -0.258928378858E+03   -0.10267E-04   -0.16096E-02  3304   0.223E-01    0.182E-02
RMM:   2    -0.258928419893E+03   -0.41036E-04   -0.43195E-04  3838   0.649E-02    0.496E-03
RMM:   3    -0.258928429082E+03   -0.91886E-05   -0.99178E-05  3788   0.298E-02    0.394E-03
RMM:   4    -0.258928430486E+03   -0.14039E-05   -0.17282E-05  2656   0.122E-02    0.382E-03
RMM:   5    -0.258928430370E+03    0.11609E-06   -0.10462E-06  1874   0.454E-03
  23 F= -.27241869E+03 E0= -.27241869E+03  d E =-.666926E-04  mag=     0.0000
       N       E                     dE             d eps       ncg     rms          rms(c)
DAV:   1    -0.258928074811E+03    0.35568E-03   -0.14518E-01  3104   0.669E-01    0.535E-02
RMM:   2    -0.258928443506E+03   -0.36869E-03   -0.38734E-03  3882   0.193E-01    0.147E-02
RMM:   3    -0.258928528749E+03   -0.85243E-04   -0.89628E-04  3819   0.872E-02    0.124E-02
RMM:   4    -0.258928539583E+03   -0.10835E-04   -0.13774E-04  3980   0.333E-02    0.117E-02
RMM:   5    -0.258928538465E+03    0.11184E-05   -0.88185E-06  2563   0.895E-03    0.808E-03
RMM:   6    -0.258928538040E+03    0.42520E-06   -0.94732E-06  2482   0.644E-03
  24 F= -.27241881E+03 E0= -.27241881E+03  d E =-.188442E-03  mag=     0.0000
       N       E                     dE             d eps       ncg     rms          rms(c)
DAV:   1    -0.258926540443E+03    0.19980E-02   -0.58170E-01  3192   0.134E+00    0.106E-01
RMM:   2    -0.258928021890E+03   -0.14814E-02   -0.15562E-02  3883   0.387E-01    0.294E-02
RMM:   3    -0.258928366399E+03   -0.34451E-03   -0.36098E-03  3873   0.176E-01    0.251E-02
RMM:   4    -0.258928410636E+03   -0.44237E-04   -0.56034E-04  3994   0.676E-02    0.238E-02
RMM:   5    -0.258928405805E+03    0.48309E-05   -0.33691E-05  3749   0.187E-02    0.161E-02
RMM:   6    -0.258928404425E+03    0.13794E-05   -0.39582E-05  2818   0.121E-02    0.728E-03
RMM:   7    -0.258928404099E+03    0.32639E-06   -0.39072E-06  2236   0.626E-03
  25 F= -.27241870E+03 E0= -.27241870E+03  d E =-.820321E-04  mag=     0.0000
       N       E                     dE             d eps       ncg     rms          rms(c)
DAV:   1    -0.258927767108E+03    0.63732E-03   -0.24384E-01  3040   0.866E-01    0.715E-02
RMM:   2    -0.258928381258E+03   -0.61415E-03   -0.64731E-03  3888   0.249E-01    0.194E-02
RMM:   3    -0.258928529395E+03   -0.14814E-03   -0.15320E-03  3834   0.113E-01    0.159E-02
RMM:   4    -0.258928546396E+03   -0.17001E-04   -0.21342E-04  3967   0.421E-02    0.146E-02
RMM:   5    -0.258928544464E+03    0.19318E-05   -0.13607E-05  3061   0.119E-02    0.955E-03
RMM:   6    -0.258928544082E+03    0.38187E-06   -0.14864E-05  2646   0.795E-03    0.432E-03
RMM:   7    -0.258928543937E+03    0.14515E-06   -0.14022E-06  1918   0.449E-03
  26 F= -.27241883E+03 E0= -.27241883E+03  d E =-.204123E-03  mag=    -0.0000
       N       E                     dE             d eps       ncg     rms          rms(c)
DAV:   1    -0.258928551034E+03   -0.69523E-05   -0.65283E-03  3248   0.141E-01    0.130E-02
RMM:   2    -0.258928567178E+03   -0.16144E-04   -0.17458E-04  3814   0.410E-02    0.374E-03
RMM:   3    -0.258928570912E+03   -0.37336E-05   -0.40376E-05  3651   0.194E-02    0.202E-03
RMM:   4    -0.258928571657E+03   -0.74509E-06   -0.88320E-06  2107   0.830E-03
  27 F= -.27241885E+03 E0= -.27241885E+03  d E =-.276452E-04  mag=    -0.0000
       N       E                     dE             d eps       ncg     rms          rms(c)
DAV:   1    -0.258928516990E+03    0.53922E-04   -0.30475E-02  3200   0.306E-01    0.234E-02
RMM:   2    -0.258928594199E+03   -0.77209E-04   -0.80912E-04  3880   0.882E-02    0.650E-03
RMM:   3    -0.258928611864E+03   -0.17665E-04   -0.18884E-04  3922   0.404E-02    0.610E-03
RMM:   4    -0.258928614110E+03   -0.22458E-05   -0.29499E-05  3099   0.156E-02    0.563E-03
RMM:   5    -0.258928613779E+03    0.33115E-06   -0.18196E-06  1957   0.529E-03
  28 F= -.27241889E+03 E0= -.27241889E+03  d E =-.695421E-04  mag=     0.0000
       N       E                     dE             d eps       ncg     rms          rms(c)
DAV:   1    -0.258928240409E+03    0.37370E-03   -0.12136E-01  3184   0.610E-01    0.486E-02
RMM:   2    -0.258928546736E+03   -0.30633E-03   -0.32259E-03  3884   0.176E-01    0.127E-02
RMM:   3    -0.258928619674E+03   -0.72938E-04   -0.76324E-04  3963   0.809E-02    0.113E-02
RMM:   4    -0.258928629162E+03   -0.94880E-05   -0.11743E-04  3893   0.312E-02    0.109E-02
RMM:   5    -0.258928628278E+03    0.88421E-06   -0.78027E-06  2579   0.813E-03
  29 F= -.27241891E+03 E0= -.27241891E+03  d E =-.834145E-04  mag=     0.0000
       N       E                     dE             d eps       ncg     rms          rms(c)
DAV:   1    -0.258928512674E+03    0.11649E-03   -0.37280E-02  3128   0.340E-01    0.245E-02
RMM:   2    -0.258928608899E+03   -0.96225E-04   -0.10038E-03  3878   0.973E-02    0.691E-03
RMM:   3    -0.258928629678E+03   -0.20779E-04   -0.22482E-04  3681   0.435E-02    0.713E-03
RMM:   4    -0.258928632220E+03   -0.25426E-05   -0.35088E-05  3295   0.166E-02    0.683E-03
RMM:   5    -0.258928631721E+03    0.49988E-06   -0.16921E-06  1966   0.543E-03
  30 F= -.27241891E+03 E0= -.27241891E+03  d E =-.872345E-04  mag=    -0.0000
       N       E                     dE             d eps       ncg     rms          rms(c)
DAV:   1    -0.258928603341E+03    0.28880E-04   -0.93029E-03  3168   0.170E-01    0.124E-02
RMM:   2    -0.258928627734E+03   -0.24393E-04   -0.25310E-04  3810   0.494E-02    0.354E-03
RMM:   3    -0.258928632887E+03   -0.51534E-05   -0.57552E-05  3656   0.225E-02    0.354E-03
RMM:   4    -0.258928633427E+03   -0.53993E-06   -0.82779E-06  2246   0.878E-03
  31 F= -.27241891E+03 E0= -.27241891E+03  d E =-.887539E-04  mag=     0.0000
       N       E                     dE             d eps       ncg     rms          rms(c)
DAV:   1    -0.258928626019E+03    0.68682E-05   -0.22598E-03  3344   0.843E-02    0.765E-03
RMM:   2    -0.258928631943E+03   -0.59236E-05   -0.63980E-05  3667   0.244E-02    0.198E-03
RMM:   3    -0.258928633185E+03   -0.12422E-05   -0.14794E-05  2533   0.116E-02    0.116E-03
RMM:   4    -0.258928633355E+03   -0.16978E-06   -0.20225E-06  1858   0.543E-03
  32 F= -.27241891E+03 E0= -.27241891E+03  d E =-.887879E-04  mag=     0.0000
       N       E                     dE             d eps       ncg     rms          rms(c)
DAV:   1    -0.258928632256E+03    0.92903E-06   -0.39569E-04  3376   0.350E-02    0.324E-03
RMM:   2    -0.258928633335E+03   -0.10784E-05   -0.11349E-05  2660   0.105E-02    0.856E-04
RMM:   3    -0.258928633539E+03   -0.20467E-06   -0.27865E-06  1951   0.575E-03
  33 F= -.27241891E+03 E0= -.27241891E+03  d E =-.889232E-04  mag=    -0.0000
       N       E                     dE             d eps       ncg     rms          rms(c)
DAV:   1    -0.258928633218E+03    0.11684E-06   -0.93234E-05  3224   0.175E-02    0.173E-03
RMM:   2    -0.258928633428E+03   -0.21022E-06   -0.25649E-06  1748   0.576E-03
  34 F= -.27241891E+03 E0= -.27241891E+03  d E =-.888343E-04  mag=    -0.0000
       N       E                     dE             d eps       ncg     rms          rms(c)
DAV:   1    -0.258928633464E+03   -0.24646E-06   -0.24468E-05  2416   0.938E-03    0.914E-04
RMM:   2    -0.258928633527E+03   -0.63059E-07   -0.67941E-07  1523   0.350E-03
  35 F= -.27241891E+03 E0= -.27241891E+03  d E =-.889242E-04  mag=    -0.0000
       N       E                     dE             d eps       ncg     rms          rms(c)
DAV:   1    -0.258928633528E+03   -0.63754E-07   -0.57411E-06  2048   0.433E-03    0.475E-04
RMM:   2    -0.258928633538E+03   -0.10148E-07   -0.16261E-07  1340   0.167E-03
  36 F= -.27241891E+03 E0= -.27241891E+03  d E =-.889397E-04  mag=     0.0000
       N       E                     dE             d eps       ncg     rms          rms(c)
DAV:   1    -0.258928633546E+03   -0.18508E-07   -0.81737E-07  1744   0.179E-03    0.238E-04
RMM:   2    -0.258928633550E+03   -0.36453E-08   -0.37404E-08   931   0.848E-04
  37 F= -.27241891E+03 E0= -.27241891E+03  d E =-.889499E-04  mag=     0.0000
       N       E                     dE             d eps       ncg     rms          rms(c)
DAV:   1    -0.258928650497E+03   -0.16950E-04   -0.55980E-04  3072   0.464E-02    0.463E-03
RMM:   2    -0.258928652277E+03   -0.17806E-05   -0.18921E-05  2956   0.160E-02    0.237E-03
RMM:   3    -0.258928652891E+03   -0.61430E-06   -0.64753E-06  2659   0.768E-03
  38 F= -.27241893E+03 E0= -.27241893E+03  d E =-.170796E-04  mag=     0.0000
       N       E                     dE             d eps       ncg     rms          rms(c)
DAV:   1    -0.258928675241E+03   -0.22964E-04   -0.32644E-03  3008   0.112E-01    0.113E-02
RMM:   2    -0.258928685143E+03   -0.99027E-05   -0.10787E-04  3058   0.377E-02    0.575E-03
RMM:   3    -0.258928688137E+03   -0.29934E-05   -0.33347E-05  3676   0.189E-02    0.244E-03
RMM:   4    -0.258928688387E+03   -0.24972E-06   -0.50448E-06  2220   0.744E-03
  39 F= -.27241896E+03 E0= -.27241896E+03  d E =-.471607E-04  mag=    -0.0000
       N       E                     dE             d eps       ncg     rms          rms(c)
DAV:   1    -0.258928663433E+03    0.24704E-04   -0.12884E-02  2992   0.222E-01    0.223E-02
RMM:   2    -0.258928702787E+03   -0.39355E-04   -0.43237E-04  3122   0.767E-02    0.114E-02
RMM:   3    -0.258928714141E+03   -0.11354E-04   -0.12899E-04  3842   0.369E-02    0.487E-03
RMM:   4    -0.258928716248E+03   -0.21067E-05   -0.25897E-05  3471   0.150E-02    0.357E-03
RMM:   5    -0.258928716196E+03    0.51157E-07   -0.20378E-06  1941   0.519E-03
  40 F= -.27241898E+03 E0= -.27241898E+03  d E =-.641213E-04  mag=    -0.0000
       N       E                     dE             d eps       ncg     rms          rms(c)
DAV:   1    -0.258928706456E+03    0.97921E-05   -0.16444E-03  3200   0.798E-02    0.811E-03
RMM:   2    -0.258928711421E+03   -0.49657E-05   -0.55529E-05  3168   0.267E-02    0.416E-03
RMM:   3    -0.258928712917E+03   -0.14963E-05   -0.17911E-05  3325   0.128E-02    0.182E-03
RMM:   4    -0.258928712857E+03    0.60392E-07   -0.13609E-06  1862   0.567E-03
  41 F= -.27241898E+03 E0= -.27241898E+03  d E =-.646760E-04  mag=     0.0000
       N       E                     dE             d eps       ncg     rms          rms(c)
DAV:   1    -0.258928721195E+03   -0.82774E-05   -0.15480E-03  3136   0.776E-02    0.645E-03
RMM:   2    -0.258928725766E+03   -0.45714E-05   -0.51990E-05  3424   0.254E-02    0.315E-03
RMM:   3    -0.258928726935E+03   -0.11688E-05   -0.14269E-05  3102   0.117E-02    0.178E-03
RMM:   4    -0.258928726951E+03   -0.15727E-07   -0.19534E-06  1946   0.604E-03
  42 F= -.27241900E+03 E0= -.27241900E+03  d E =-.177262E-04  mag=     0.0000
       N       E                     dE             d eps       ncg     rms          rms(c)
DAV:   1    -0.258928726753E+03    0.18193E-06   -0.23742E-03  3344   0.955E-02    0.824E-03
RMM:   2    -0.258928733756E+03   -0.70025E-05   -0.79538E-05  3398   0.321E-02    0.396E-03
RMM:   3    -0.258928735680E+03   -0.19238E-05   -0.23036E-05  3498   0.149E-02    0.218E-03
RMM:   4    -0.258928735757E+03   -0.77260E-07   -0.31486E-06  1976   0.664E-03
  43 F= -.27241901E+03 E0= -.27241901E+03  d E =-.309925E-04  mag=     0.0000
       N       E                     dE             d eps       ncg     rms          rms(c)
DAV:   1    -0.258928689464E+03    0.46216E-04   -0.94745E-03  2992   0.191E-01    0.164E-02
RMM:   2    -0.258928717562E+03   -0.28098E-04   -0.31474E-04  3410   0.633E-02    0.792E-03
RMM:   3    -0.258928724556E+03   -0.69937E-05   -0.82630E-05  3850   0.294E-02    0.424E-03
RMM:   4    -0.258928725741E+03   -0.11857E-05   -0.15924E-05  2976   0.119E-02    0.250E-03
RMM:   5    -0.258928725724E+03    0.17726E-07   -0.12125E-06  1882   0.469E-03
  44 F= -.27241901E+03 E0= -.27241901E+03  d E =-.298723E-04  mag=     0.0000
       N       E                     dE             d eps       ncg     rms          rms(c)
DAV:   1    -0.258928720651E+03    0.50903E-05   -0.40694E-03  2992   0.126E-01    0.111E-02
RMM:   2    -0.258928733056E+03   -0.12405E-04   -0.13387E-04  3428   0.406E-02    0.533E-03
RMM:   3    -0.258928736248E+03   -0.31918E-05   -0.35400E-05  3662   0.189E-02    0.278E-03
RMM:   4    -0.258928736364E+03   -0.11594E-06   -0.47895E-06  2112   0.759E-03
  45 F= -.27241901E+03 E0= -.27241901E+03  d E =-.346618E-04  mag=    -0.0000
       N       E                     dE             d eps       ncg     rms          rms(c)
DAV:   1    -0.258928729296E+03    0.69519E-05   -0.10090E-03  3224   0.631E-02    0.544E-03
RMM:   2    -0.258928732332E+03   -0.30355E-05   -0.34298E-05  3379   0.205E-02    0.263E-03
RMM:   3    -0.258928733136E+03   -0.80460E-06   -0.98396E-06  2871   0.957E-03
  46 F= -.27241901E+03 E0= -.27241901E+03  d E =-.343609E-04  mag=    -0.0000
       N       E                     dE             d eps       ncg     rms          rms(c)
DAV:   1    -0.258928733950E+03   -0.16185E-05   -0.35478E-04  3192   0.379E-02    0.325E-03
RMM:   2    -0.258928735341E+03   -0.13908E-05   -0.14327E-05  3226   0.128E-02    0.152E-03
RMM:   3    -0.258928735485E+03   -0.14405E-06   -0.27482E-06  1989   0.583E-03
  47 F= -.27241901E+03 E0= -.27241901E+03  d E =-.349476E-04  mag=     0.0000
       N       E                     dE             d eps       ncg     rms          rms(c)
DAV:   1    -0.258928733168E+03    0.21729E-05   -0.17441E-04  3104   0.268E-02    0.235E-03
RMM:   2    -0.258928733737E+03   -0.56929E-06   -0.68808E-06  2610   0.940E-03
  48 F= -.27241901E+03 E0= -.27241901E+03  d E =-.344380E-04  mag=     0.0000
       N       E                     dE             d eps       ncg     rms          rms(c)
DAV:   1    -0.258928734767E+03   -0.15994E-05   -0.80853E-05  3024   0.180E-02    0.163E-03
RMM:   2    -0.258928734994E+03   -0.22681E-06   -0.22625E-06  1714   0.582E-03
  49 F= -.27241901E+03 E0= -.27241901E+03  d E =-.348318E-04  mag=    -0.0000
       N       E                     dE             d eps       ncg     rms          rms(c)
DAV:   1    -0.258928734485E+03    0.28274E-06   -0.19139E-05  2864   0.959E-03    0.894E-04
RMM:   2    -0.258928734517E+03   -0.32216E-07   -0.63577E-07  1475   0.297E-03
  50 F= -.27241901E+03 E0= -.27241901E+03  d E =-.347861E-04  mag=    -0.0000
       N       E                     dE             d eps       ncg     rms          rms(c)
DAV:   1    -0.258928734801E+03   -0.31623E-06   -0.52640E-06  1856   0.491E-03    0.487E-04
RMM:   2    -0.258928734832E+03   -0.30741E-07   -0.30181E-07  1408   0.271E-03
  51 F= -.27241901E+03 E0= -.27241901E+03  d E =-.348679E-04  mag=     0.0000
       N       E                     dE             d eps       ncg     rms          rms(c)
DAV:   1    -0.258928728920E+03    0.58812E-05   -0.26598E-03  3040   0.974E-02    0.698E-03
RMM:   2    -0.258928735951E+03   -0.70315E-05   -0.77755E-05  3620   0.305E-02    0.254E-03
RMM:   3    -0.258928737597E+03   -0.16462E-05   -0.19115E-05  3164   0.140E-02    0.180E-03
RMM:   4    -0.258928737790E+03   -0.19294E-06   -0.37822E-06  2094   0.698E-03
  52 F= -.27241903E+03 E0= -.27241903E+03  d E =-.123162E-04  mag=     0.0000
       N       E                     dE             d eps       ncg     rms          rms(c)
DAV:   1    -0.258928731068E+03    0.65295E-05   -0.19076E-03  3288   0.821E-02    0.571E-03
RMM:   2    -0.258928736051E+03   -0.49828E-05   -0.55356E-05  3471   0.264E-02    0.232E-03
RMM:   3    -0.258928737425E+03   -0.13742E-05   -0.16522E-05  3002   0.125E-02    0.192E-03
RMM:   4    -0.258928737404E+03    0.21346E-07   -0.11048E-06  1856   0.553E-03
  53 F= -.27241903E+03 E0= -.27241903E+03  d E =-.197950E-04  mag=    -0.0000
       N       E                     dE             d eps       ncg     rms          rms(c)
DAV:   1    -0.258928702514E+03    0.34911E-04   -0.75705E-03  3152   0.164E-01    0.118E-02
RMM:   2    -0.258928722680E+03   -0.20167E-04   -0.21934E-04  3626   0.524E-02    0.427E-03
RMM:   3    -0.258928727631E+03   -0.49504E-05   -0.54087E-05  3816   0.241E-02    0.300E-03
RMM:   4    -0.258928728549E+03   -0.91854E-06   -0.11845E-05  2522   0.110E-02    0.250E-03
RMM:   5    -0.258928728578E+03   -0.28669E-07   -0.10172E-06  1878   0.461E-03
  54 F= -.27241904E+03 E0= -.27241904E+03  d E =-.267010E-04  mag=     0.0000
       N       E                     dE             d eps       ncg     rms          rms(c)
DAV:   1    -0.258928721706E+03    0.68436E-05   -0.36884E-03  3344   0.110E-01    0.921E-03
RMM:   2    -0.258928731577E+03   -0.98716E-05   -0.10330E-04  3464   0.352E-02    0.348E-03
RMM:   3    -0.258928734439E+03   -0.28615E-05   -0.29299E-05  3438   0.166E-02    0.229E-03
RMM:   4    -0.258928734636E+03   -0.19694E-06   -0.50359E-06  2152   0.823E-03
  55 F= -.27241906E+03 E0= -.27241906E+03  d E =-.160810E-04  mag=    -0.0000
       N       E                     dE             d eps       ncg     rms          rms(c)
DAV:   1    -0.258928734641E+03   -0.20232E-06   -0.19700E-04  3536   0.253E-02    0.234E-03
RMM:   2    -0.258928735239E+03   -0.59796E-06   -0.59291E-06  2304   0.952E-03
  56 F= -.27241906E+03 E0= -.27241906E+03  d E =-.189606E-04  mag=    -0.0000
       N       E                     dE             d eps       ncg     rms          rms(c)
DAV:   1    -0.258928733073E+03    0.15685E-05   -0.77946E-04  3216   0.507E-02    0.405E-03
RMM:   2    -0.258928735375E+03   -0.23027E-05   -0.23371E-05  3098   0.174E-02    0.173E-03
RMM:   3    -0.258928736011E+03   -0.63519E-06   -0.73324E-06  2592   0.847E-03
  57 F= -.27241906E+03 E0= -.27241906E+03  d E =-.242819E-04  mag=     0.0000
       N       E                     dE             d eps       ncg     rms          rms(c)
DAV:   1    -0.258928722007E+03    0.13368E-04   -0.30886E-03  3264   0.101E-01    0.818E-03
RMM:   2    -0.258928730173E+03   -0.81655E-05   -0.84965E-05  3350   0.319E-02    0.328E-03
RMM:   3    -0.258928732624E+03   -0.24518E-05   -0.25734E-05  3334   0.158E-02    0.230E-03
RMM:   4    -0.258928732697E+03   -0.73149E-07   -0.30299E-06  1984   0.674E-03
  58 F= -.27241907E+03 E0= -.27241907E+03  d E =-.300702E-04  mag=    -0.0000
       N       E                     dE             d eps       ncg     rms          rms(c)
DAV:   1    -0.258928726063E+03    0.65617E-05   -0.36728E-03  3320   0.106E-01    0.931E-03
RMM:   2    -0.258928735644E+03   -0.95817E-05   -0.99910E-05  3484   0.338E-02    0.335E-03
RMM:   3    -0.258928738416E+03   -0.27718E-05   -0.28939E-05  3382   0.160E-02    0.227E-03
RMM:   4    -0.258928738449E+03   -0.32289E-07   -0.29583E-06  1958   0.676E-03
  59 F= -.27241908E+03 E0= -.27241908E+03  d E =-.144002E-04  mag=    -0.0000
       N       E                     dE             d eps       ncg     rms          rms(c)
DAV:   1    -0.258928738442E+03   -0.25904E-07   -0.11677E-04  3424   0.190E-02    0.173E-03
RMM:   2    -0.258928738784E+03   -0.34231E-06   -0.33389E-06  1920   0.730E-03
  60 F= -.27241909E+03 E0= -.27241909E+03  d E =-.162452E-04  mag=     0.0000
       N       E                     dE             d eps       ncg     rms          rms(c)
DAV:   1    -0.258928737501E+03    0.94066E-06   -0.46001E-04  3232   0.378E-02    0.314E-03
RMM:   2    -0.258928738885E+03   -0.13836E-05   -0.13965E-05  2966   0.136E-02    0.124E-03
RMM:   3    -0.258928739231E+03   -0.34547E-06   -0.41984E-06  2164   0.650E-03
  61 F= -.27241909E+03 E0= -.27241909E+03  d E =-.197190E-04  mag=     0.0000
       N       E                     dE             d eps       ncg     rms          rms(c)
DAV:   1    -0.258928731233E+03    0.76518E-05   -0.18206E-03  3304   0.750E-02    0.634E-03
RMM:   2    -0.258928736131E+03   -0.48982E-05   -0.50658E-05  3340   0.241E-02    0.242E-03
RMM:   3    -0.258928737474E+03   -0.13421E-05   -0.15132E-05  2818   0.118E-02    0.169E-03
RMM:   4    -0.258928737464E+03    0.96206E-08   -0.15672E-06  1908   0.597E-03
  62 F= -.27241909E+03 E0= -.27241909E+03  d E =-.239986E-04  mag=    -0.0000
       N       E                     dE             d eps       ncg     rms          rms(c)
DAV:   1    -0.258928730253E+03    0.72208E-05   -0.27215E-03  3232   0.882E-02    0.646E-03
RMM:   2    -0.258928737123E+03   -0.68701E-05   -0.72380E-05  3545   0.268E-02    0.182E-03
RMM:   3    -0.258928738519E+03   -0.13960E-05   -0.17818E-05  2705   0.124E-02    0.170E-03
RMM:   4    -0.258928738628E+03   -0.10940E-06   -0.18561E-06  1939   0.567E-03
  63 F= -.27241910E+03 E0= -.27241910E+03  d E =-.946213E-05  mag=     0.0000
       N       E                     dE             d eps       ncg     rms          rms(c)
DAV:   1    -0.258928708747E+03    0.29772E-04   -0.91662E-03  3120   0.161E-01    0.115E-02
RMM:   2    -0.258928731080E+03   -0.22333E-04   -0.23385E-04  3758   0.482E-02    0.338E-03
RMM:   3    -0.258928736173E+03   -0.50938E-05   -0.55658E-05  3729   0.222E-02    0.311E-03
RMM:   4    -0.258928736992E+03   -0.81873E-06   -0.97791E-06  2226   0.927E-03
  64 F= -.27241912E+03 E0= -.27241912E+03  d E =-.230398E-04  mag=     0.0000
       N       E                     dE             d eps       ncg     rms          rms(c)
DAV:   1    -0.258928729392E+03    0.67810E-05   -0.19001E-03  3520   0.732E-02    0.496E-03
RMM:   2    -0.258928734133E+03   -0.47408E-05   -0.49957E-05  3440   0.220E-02    0.220E-03
RMM:   3    -0.258928734986E+03   -0.85265E-06   -0.12344E-05  2364   0.107E-02    0.205E-03
RMM:   4    -0.258928735032E+03   -0.46146E-07   -0.88653E-07  1834   0.505E-03
  65 F= -.27241912E+03 E0= -.27241912E+03  d E =-.279651E-04  mag=    -0.0000
       N       E                     dE             d eps       ncg     rms          rms(c)
DAV:   1    -0.258928704809E+03    0.30177E-04   -0.74951E-03  3072   0.146E-01    0.107E-02
RMM:   2    -0.258928723329E+03   -0.18520E-04   -0.19412E-04  3728   0.436E-02    0.290E-03
RMM:   3    -0.258928727468E+03   -0.41392E-05   -0.46475E-05  3624   0.203E-02    0.267E-03
RMM:   4    -0.258928728077E+03   -0.60897E-06   -0.74363E-06  2145   0.856E-03
  66 F= -.27241913E+03 E0= -.27241913E+03  d E =-.347736E-04  mag=    -0.0000
       N       E                     dE             d eps       ncg     rms          rms(c)
DAV:   1    -0.258928726538E+03    0.93015E-06   -0.16833E-03  3152   0.697E-02    0.641E-03
RMM:   2    -0.258928730993E+03   -0.44547E-05   -0.46686E-05  3482   0.210E-02    0.185E-03
RMM:   3    -0.258928731896E+03   -0.90290E-06   -0.11244E-05  2252   0.983E-03    0.869E-04
RMM:   4    -0.258928731983E+03   -0.87412E-07   -0.82112E-07  1772   0.510E-03
  67 F= -.27241913E+03 E0= -.27241913E+03  d E =-.320899E-04  mag=     0.0000
       N       E                     dE             d eps       ncg     rms          rms(c)
DAV:   1    -0.258928726105E+03    0.57903E-05   -0.10089E-03  3168   0.535E-02    0.406E-03
RMM:   2    -0.258928728655E+03   -0.25492E-05   -0.27258E-05  3340   0.155E-02    0.113E-03
RMM:   3    -0.258928729049E+03   -0.39471E-06   -0.63150E-06  2124   0.777E-03
  68 F= -.27241913E+03 E0= -.27241913E+03  d E =-.342442E-04  mag=     0.0000
       N       E                     dE             d eps       ncg     rms          rms(c)
DAV:   1    -0.258928729641E+03   -0.98597E-06   -0.24273E-04  3216   0.271E-02    0.253E-03
RMM:   2    -0.258928730232E+03   -0.59182E-06   -0.62011E-06  2024   0.824E-03
  69 F= -.27241913E+03 E0= -.27241913E+03  d E =-.328821E-04  mag=     0.0000
       N       E                     dE             d eps       ncg     rms          rms(c)
DAV:   1    -0.258928728900E+03    0.74084E-06   -0.16703E-04  3184   0.225E-02    0.192E-03
RMM:   2    -0.258928729236E+03   -0.33606E-06   -0.38661E-06  1900   0.673E-03
  70 F= -.27241913E+03 E0= -.27241913E+03  d E =-.340104E-04  mag=     0.0000
       N       E                     dE             d eps       ncg     rms          rms(c)
DAV:   1    -0.258928729882E+03   -0.98183E-06   -0.39729E-05  2816   0.114E-02    0.112E-03
RMM:   2    -0.258928729971E+03   -0.89683E-07   -0.94239E-07  1519   0.371E-03
  71 F= -.27241913E+03 E0= -.27241913E+03  d E =-.336835E-04  mag=     0.0000
       N       E                     dE             d eps       ncg     rms          rms(c)
DAV:   1    -0.258928729441E+03    0.44012E-06   -0.24145E-05  2128   0.815E-03    0.764E-04
RMM:   2    -0.258928729495E+03   -0.53346E-07   -0.66842E-07  1462   0.337E-03
  72 F= -.27241913E+03 E0= -.27241913E+03  d E =-.340344E-04  mag=     0.0000
       N       E                     dE             d eps       ncg     rms          rms(c)
DAV:   1    -0.258928723456E+03    0.59849E-05   -0.32263E-03  3064   0.975E-02    0.683E-03
RMM:   2    -0.258928731889E+03   -0.84326E-05   -0.87368E-05  3604   0.292E-02    0.202E-03
RMM:   3    -0.258928733734E+03   -0.18447E-05   -0.22130E-05  2898   0.136E-02    0.207E-03
RMM:   4    -0.258928733776E+03   -0.42601E-07   -0.13892E-06  1914   0.526E-03
  73 F= -.27241914E+03 E0= -.27241914E+03  d E =-.938333E-05  mag=    -0.0000
       N       E                     dE             d eps       ncg     rms          rms(c)
DAV:   1    -0.258928722033E+03    0.11700E-04   -0.43499E-03  3152   0.113E-01    0.799E-03
RMM:   2    -0.258928733014E+03   -0.10980E-04   -0.11459E-04  3684   0.335E-02    0.242E-03
RMM:   3    -0.258928735582E+03   -0.25682E-05   -0.28989E-05  3176   0.158E-02    0.230E-03
RMM:   4    -0.258928735778E+03   -0.19601E-06   -0.32804E-06  2024   0.633E-03
  74 F= -.27241915E+03 E0= -.27241915E+03  d E =-.173098E-04  mag=    -0.0000
       N       E                     dE             d eps       ncg     rms          rms(c)
DAV:   1    -0.258928732992E+03    0.25896E-05   -0.87292E-04  3552   0.504E-02    0.335E-03
RMM:   2    -0.258928735366E+03   -0.23732E-05   -0.24362E-05  3274   0.156E-02    0.138E-03
RMM:   3    -0.258928735740E+03   -0.37446E-06   -0.57971E-06  2102   0.746E-03
  75 F= -.27241915E+03 E0= -.27241915E+03  d E =-.199056E-04  mag=     0.0000
       N       E                     dE             d eps       ncg     rms          rms(c)
DAV:   1    -0.258928735911E+03   -0.54581E-06   -0.15017E-03  3112   0.671E-02    0.500E-03
RMM:   2    -0.258928740073E+03   -0.41615E-05   -0.42619E-05  3410   0.229E-02    0.180E-03
RMM:   3    -0.258928741234E+03   -0.11614E-05   -0.12744E-05  2754   0.105E-02    0.170E-03
RMM:   4    -0.258928741215E+03    0.19203E-07   -0.95781E-07  1873   0.536E-03
  76 F= -.27241916E+03 E0= -.27241916E+03  d E =-.709371E-05  mag=    -0.0000
       N       E                     dE             d eps       ncg     rms          rms(c)
DAV:   1    -0.258928704251E+03    0.36984E-04   -0.12008E-02  3136   0.192E-01    0.150E-02
RMM:   2    -0.258928735601E+03   -0.31350E-04   -0.32958E-04  3558   0.606E-02    0.487E-03
RMM:   3    -0.258928744403E+03   -0.88021E-05   -0.89915E-05  3900   0.282E-02    0.418E-03
RMM:   4    -0.258928745308E+03   -0.90544E-06   -0.12430E-05  2714   0.108E-02    0.343E-03
RMM:   5    -0.258928745209E+03    0.99475E-07   -0.11910E-06  1895   0.480E-03
  77 F= -.27241916E+03 E0= -.27241916E+03  d E =-.156715E-04  mag=    -0.0000
       N       E                     dE             d eps       ncg     rms          rms(c)
DAV:   1    -0.258928741990E+03    0.33177E-05   -0.12203E-03  3408   0.612E-02    0.448E-03
RMM:   2    -0.258928745178E+03   -0.31879E-05   -0.34807E-05  3356   0.188E-02    0.158E-03
RMM:   3    -0.258928745866E+03   -0.68781E-06   -0.90213E-06  2483   0.899E-03
  78 F= -.27241916E+03 E0= -.27241916E+03  d E =-.148611E-04  mag=    -0.0000
       N       E                     dE             d eps       ncg     rms          rms(c)
DAV:   1    -0.258928742918E+03    0.22601E-05   -0.71210E-04  3264   0.468E-02    0.432E-03
RMM:   2    -0.258928745059E+03   -0.21404E-05   -0.22118E-05  3358   0.153E-02    0.132E-03
RMM:   3    -0.258928745462E+03   -0.40338E-06   -0.53821E-06  2140   0.713E-03
  79 F= -.27241916E+03 E0= -.27241916E+03  d E =-.155933E-04  mag=     0.0000
       N       E                     dE             d eps       ncg     rms          rms(c)
DAV:   1    -0.258928745368E+03   -0.30970E-06   -0.17273E-04  3248   0.238E-02    0.227E-03
RMM:   2    -0.258928745788E+03   -0.42000E-06   -0.51908E-06  2064   0.803E-03
  80 F= -.27241916E+03 E0= -.27241916E+03  d E =-.153537E-04  mag=     0.0000
       N       E                     dE             d eps       ncg     rms          rms(c)
DAV:   1    -0.258928745593E+03   -0.22493E-06   -0.62845E-05  3088   0.146E-02    0.140E-03
RMM:   2    -0.258928745757E+03   -0.16347E-06   -0.15837E-06  1644   0.451E-03
  81 F= -.27241916E+03 E0= -.27241916E+03  d E =-.156698E-04  mag=     0.0000
       N       E                     dE             d eps       ncg     rms          rms(c)
DAV:   1    -0.258928745842E+03   -0.24907E-06   -0.14782E-05  2256   0.718E-03    0.739E-04
RMM:   2    -0.258928745877E+03   -0.34217E-07   -0.54223E-07  1458   0.332E-03
  82 F= -.27241916E+03 E0= -.27241916E+03  d E =-.156158E-04  mag=    -0.0000
       N       E                     dE             d eps       ncg     rms          rms(c)
DAV:   1    -0.258928745831E+03    0.11838E-07   -0.49766E-06  1792   0.401E-03    0.488E-04
RMM:   2    -0.258928745848E+03   -0.17471E-07   -0.17666E-07  1406   0.188E-03
  83 F= -.27241916E+03 E0= -.27241916E+03  d E =-.156904E-04  mag=     0.0000
       N       E                     dE             d eps       ncg     rms          rms(c)
DAV:   1    -0.258928744190E+03    0.16411E-05   -0.44566E-04  3088   0.358E-02    0.288E-03
RMM:   2    -0.258928745398E+03   -0.12081E-05   -0.12563E-05  2812   0.112E-02    0.846E-04
RMM:   3    -0.258928745606E+03   -0.20827E-06   -0.28837E-06  1956   0.536E-03
  84 F= -.27241917E+03 E0= -.27241917E+03  d E =-.214874E-05  mag=    -0.0000
       N       E                     dE             d eps       ncg     rms          rms(c)
DAV:   1    -0.258928744423E+03    0.97461E-06   -0.31114E-04  3312   0.297E-02    0.221E-03
RMM:   2    -0.258928745236E+03   -0.81303E-06   -0.84586E-06  2392   0.104E-02
  85 F= -.27241917E+03 E0= -.27241917E+03  d E =-.375253E-05  mag=     0.0000
       N       E                     dE             d eps       ncg     rms          rms(c)
DAV:   1    -0.258928745528E+03   -0.11053E-05   -0.16650E-05  2912   0.102E-02    0.119E-03
RMM:   2    -0.258928745546E+03   -0.17393E-07   -0.13336E-06  1575   0.421E-03
  86 F= -.27241917E+03 E0= -.27241917E+03  d E =-.208685E-05  mag=    -0.0000
       N       E                     dE             d eps       ncg     rms          rms(c)
DAV:   1    -0.258928743640E+03    0.18883E-05   -0.81717E-05  2880   0.187E-02    0.215E-03
RMM:   2    -0.258928743853E+03   -0.21259E-06   -0.56688E-06  2432   0.886E-03
  87 F= -.27241917E+03 E0= -.27241917E+03  d E =-.458694E-05  mag=     0.0000
       N       E                     dE             d eps       ncg     rms          rms(c)
DAV:   1    -0.258928742996E+03    0.64409E-06   -0.11944E-05  3536   0.718E-03    0.122E-03
RMM:   2    -0.258928743017E+03   -0.20917E-07   -0.96170E-07  1520   0.365E-03
  88 F= -.27241917E+03 E0= -.27241917E+03  d E =-.506368E-05  mag=    -0.0000
       N       E                     dE             d eps       ncg     rms          rms(c)
DAV:   1    -0.258928740167E+03    0.28285E-05   -0.29135E-05  2912   0.117E-02    0.124E-03
RMM:   2    -0.258928740243E+03   -0.75486E-07   -0.24770E-06  2012   0.557E-03
  89 F= -.27241917E+03 E0= -.27241917E+03  d E =-.491407E-05  mag=    -0.0000
       N       E                     dE             d eps       ncg     rms          rms(c)
DAV:   1    -0.258928741887E+03   -0.17192E-05   -0.10301E-05  2944   0.818E-03    0.985E-04
RMM:   2    -0.258928742021E+03   -0.13449E-06   -0.77125E-07  1424   0.249E-03
  90 F= -.27241917E+03 E0= -.27241917E+03  d E =-.511775E-05  mag=    -0.0000
       N       E                     dE             d eps       ncg     rms          rms(c)
DAV:   1    -0.258928741249E+03    0.63800E-06   -0.19264E-06  2160   0.390E-03    0.402E-04
RMM:   2    -0.258928741248E+03    0.15098E-09   -0.32943E-07  1360   0.226E-03
  91 F= -.27241917E+03 E0= -.27241917E+03  d E =-.513240E-05  mag=    -0.0000
       N       E                     dE             d eps       ncg     rms          rms(c)
DAV:   1    -0.258928741660E+03   -0.41103E-06   -0.33746E-07  1600   0.176E-03    0.304E-04
RMM:   2    -0.258928741676E+03   -0.16898E-07   -0.84766E-08  1324   0.116E-03
  92 F= -.27241917E+03 E0= -.27241917E+03  d E =-.515907E-05  mag=    -0.0000
       N       E                     dE             d eps       ncg     rms          rms(c)
DAV:   1    -0.258928741499E+03    0.16038E-06   -0.51560E-08  1600   0.784E-04    0.137E-04
RMM:   2    -0.258928741495E+03    0.46784E-08   -0.11995E-08   976   0.509E-04
  93 F= -.27241917E+03 E0= -.27241917E+03  d E =-.516188E-05  mag=     0.0000
       N       E                     dE             d eps       ncg     rms          rms(c)
DAV:   1    -0.258928740153E+03    0.13461E-05   -0.36983E-05  2656   0.114E-02    0.105E-03
RMM:   2    -0.258928740172E+03   -0.18557E-07   -0.11948E-06  1457   0.418E-03
  94 F= -.27241917E+03 E0= -.27241917E+03  d E =-.840363E-06  mag=    -0.0000
       N       E                     dE             d eps       ncg     rms          rms(c)
DAV:   1    -0.258928737132E+03    0.30209E-05   -0.12991E-04  2976   0.212E-02    0.188E-03
RMM:   2    -0.258928737334E+03   -0.20233E-06   -0.40409E-06  2140   0.788E-03
  95 F= -.27241918E+03 E0= -.27241918E+03  d E =-.200817E-05  mag=     0.0000
       N       E                     dE             d eps       ncg     rms          rms(c)
DAV:   1    -0.258928728731E+03    0.84008E-05   -0.51208E-04  3024   0.423E-02    0.369E-03
RMM:   2    -0.258928730039E+03   -0.13072E-05   -0.17653E-05  2946   0.170E-02    0.161E-03
RMM:   3    -0.258928730601E+03   -0.56206E-06   -0.76841E-06  2722   0.794E-03
  96 F= -.27241918E+03 E0= -.27241918E+03  d E =-.328167E-05  mag=    -0.0000
       N       E                     dE             d eps       ncg     rms          rms(c)
DAV:   1    -0.258928733898E+03   -0.38590E-05   -0.17022E-04  2912   0.253E-02    0.301E-03
RMM:   2    -0.258928734764E+03   -0.86627E-06   -0.75823E-06  2652   0.940E-03
  97 F= -.27241918E+03 E0= -.27241918E+03  d E =-.263419E-05  mag=    -0.0000
       N       E                     dE             d eps       ncg     rms          rms(c)
DAV:   1    -0.258928731628E+03    0.22696E-05   -0.93462E-05  2880   0.184E-02    0.173E-03
RMM:   2    -0.258928731728E+03   -0.10044E-06   -0.26922E-06  1830   0.623E-03
  98 F= -.27241918E+03 E0= -.27241918E+03  d E =-.322523E-05  mag=     0.0000
       N       E                     dE             d eps       ncg     rms          rms(c)
DAV:   1    -0.258928733236E+03   -0.16077E-05   -0.22379E-05  2848   0.982E-03    0.109E-03
RMM:   2    -0.258928733365E+03   -0.12973E-06   -0.77121E-07  1478   0.326E-03
  99 F= -.27241918E+03 E0= -.27241918E+03  d E =-.304746E-05  mag=     0.0000
       N       E                     dE             d eps       ncg     rms          rms(c)
DAV:   1    -0.258928732281E+03    0.95411E-06   -0.11208E-05  2720   0.663E-03    0.656E-04
RMM:   2    -0.258928732274E+03    0.73778E-08   -0.42808E-07  1434   0.241E-03
 100 F= -.27241918E+03 E0= -.27241918E+03  d E =-.324952E-05  mag=    -0.0000
       N       E                     dE             d eps       ncg     rms          rms(c)
DAV:   1    -0.258928732992E+03   -0.71038E-06   -0.12754E-04  2848   0.208E-02    0.181E-03
RMM:   2    -0.258928733435E+03   -0.44342E-06   -0.42413E-06  2118   0.741E-03
 101 F= -.27241918E+03 E0= -.27241918E+03  d E =-.181001E-05  mag=    -0.0000
       N       E                     dE             d eps       ncg     rms          rms(c)
DAV:   1    -0.258928733882E+03   -0.89031E-06   -0.66401E-05  3136   0.152E-02    0.128E-03
RMM:   2    -0.258928734160E+03   -0.27741E-06   -0.26202E-06  1819   0.635E-03
 102 F= -.27241918E+03 E0= -.27241918E+03  d E =-.298700E-05  mag=     0.0000
       N       E                     dE             d eps       ncg     rms          rms(c)
DAV:   1    -0.258928733873E+03    0.89076E-08   -0.24566E-04  3128   0.287E-02    0.240E-03
RMM:   2    -0.258928734838E+03   -0.96481E-06   -0.96057E-06  2834   0.112E-02
 103 F= -.27241918E+03 E0= -.27241918E+03  d E =-.457388E-05  mag=     0.0000
       N       E                     dE             d eps       ncg     rms          rms(c)
DAV:   1    -0.258928734884E+03   -0.10110E-05   -0.26161E-05  2928   0.105E-02    0.148E-03
RMM:   2    -0.258928734898E+03   -0.13446E-07   -0.67381E-07  1484   0.321E-03
 104 F= -.27241918E+03 E0= -.27241918E+03  d E =-.432456E-05  mag=    -0.0000
       N       E                     dE             d eps       ncg     rms          rms(c)
DAV:   1    -0.258928734938E+03   -0.53993E-07   -0.15243E-05  2720   0.721E-03    0.713E-04
RMM:   2    -0.258928735004E+03   -0.65598E-07   -0.55157E-07  1430   0.279E-03
 105 F= -.27241918E+03 E0= -.27241918E+03  d E =-.467563E-05  mag=     0.0000
       N       E                     dE             d eps       ncg     rms          rms(c)
DAV:   1    -0.258928735021E+03   -0.83084E-07   -0.53350E-07  1664   0.253E-03    0.185E-04
RMM:   2    -0.258928735037E+03   -0.16054E-07   -0.12416E-07  1373   0.163E-03
 106 F= -.27241918E+03 E0= -.27241918E+03  d E =-.473802E-05  mag=    -0.0000
       N       E                     dE             d eps       ncg     rms          rms(c)
DAV:   1    -0.258928735043E+03   -0.21160E-07   -0.19207E-07  1568   0.142E-03    0.102E-04
RMM:   2    -0.258928735050E+03   -0.70122E-08   -0.58853E-08  1309   0.127E-03
 107 F= -.27241918E+03 E0= -.27241918E+03  d E =-.476925E-05  mag=     0.0000
       N       E                     dE             d eps       ncg     rms          rms(c)
DAV:   1    -0.258928735053E+03   -0.10232E-07   -0.66844E-08  1480   0.821E-04    0.695E-05
RMM:   2    -0.258928735055E+03   -0.20082E-08   -0.21166E-08  1231   0.838E-04
 108 F= -.27241918E+03 E0= -.27241918E+03  d E =-.478347E-05  mag=     0.0000
       N       E                     dE             d eps       ncg     rms          rms(c)
DAV:   1    -0.258928735056E+03   -0.32996E-08   -0.19705E-08  1472   0.454E-04    0.212E-05
RMM:   2    -0.258928735056E+03   -0.21282E-09   -0.42522E-09   755   0.481E-04
 109 F= -.27241918E+03 E0= -.27241918E+03  d E =-.478924E-05  mag=    -0.0000
       N       E                     dE             d eps       ncg     rms          rms(c)
DAV:   1    -0.258928735057E+03   -0.85856E-09   -0.70322E-09  1456   0.372E-04    0.192E-05
RMM:   2    -0.258928735057E+03   -0.41837E-10   -0.41695E-10   468   0.261E-04
 110 F= -.27241918E+03 E0= -.27241918E+03  d E =-.479169E-05  mag=     0.0000
       N       E                     dE             d eps       ncg     rms          rms(c)
DAV:   1    -0.258928735057E+03   -0.59117E-09   -0.29804E-09  1456   0.250E-04    0.901E-06
RMM:   2    -0.258928735058E+03   -0.18190E-10    0.00000E+00   386   0.190E-04
 111 F= -.27241918E+03 E0= -.27241918E+03  d E =-.479293E-05  mag=    -0.0000
       N       E                     dE             d eps       ncg     rms          rms(c)
DAV:   1    -0.258928735058E+03   -0.23647E-09   -0.14901E-09  1456   0.192E-04    0.632E-06
RMM:   2    -0.258928735058E+03   -0.58208E-10    0.00000E+00   348   0.130E-04
 112 F= -.27241918E+03 E0= -.27241918E+03  d E =-.479345E-05  mag=     0.0000
       N       E                     dE             d eps       ncg     rms          rms(c)
DAV:   1    -0.258928735058E+03   -0.34197E-09   -0.78893E-10  1504   0.130E-04    0.494E-06
RMM:   2    -0.258928735058E+03    0.20373E-09    0.00000E+00   320   0.101E-04
 113 F= -.27241918E+03 E0= -.27241918E+03  d E =-.479362E-05  mag=     0.0000
       N       E                     dE             d eps       ncg     rms          rms(c)
DAV:   1    -0.258928735058E+03    0.52751E-10   -0.42949E-10  1464   0.101E-04    0.326E-06
RMM:   2    -0.258928735058E+03    0.10004E-09    0.00000E+00   284   0.689E-05
 114 F= -.27241918E+03 E0= -.27241918E+03  d E =-.479370E-05  mag=    -0.0000
       N       E                     dE             d eps       ncg     rms          rms(c)
DAV:   1    -0.258928735058E+03    0.10914E-10   -0.23757E-10  1432   0.688E-05    0.264E-06
RMM:   2    -0.258928735058E+03    0.21828E-10    0.00000E+00   228   0.554E-05
 115 F= -.27241918E+03 E0= -.27241918E+03  d E =-.479378E-05  mag=     0.0000
       N       E                     dE             d eps       ncg     rms          rms(c)
DAV:   1    -0.258928735058E+03   -0.58208E-10   -0.13694E-10  1448   0.554E-05    0.205E-06
RMM:   2    -0.258928735058E+03    0.29104E-10    0.00000E+00   204   0.379E-05
 116 F= -.27241918E+03 E0= -.27241918E+03  d E =-.479384E-05  mag=     0.0000
       N       E                     dE             d eps       ncg     rms          rms(c)
DAV:   1    -0.258928735058E+03   -0.85493E-10   -0.71624E-11  1432   0.379E-05    0.177E-06
RMM:   2    -0.258928735058E+03    0.81855E-10    0.00000E+00   189   0.314E-05
 117 F= -.27241918E+03 E0= -.27241918E+03  d E =-.479387E-05  mag=     0.0000
       N       E                     dE             d eps       ncg     rms          rms(c)
DAV:   1    -0.258928735058E+03    0.85493E-10   -0.43636E-11  1432   0.314E-05    0.129E-06
RMM:   2    -0.258928735058E+03   -0.27285E-10    0.00000E+00   171   0.216E-05
 118 F= -.27241918E+03 E0= -.27241918E+03  d E =-.479390E-05  mag=     0.0000
       N       E                     dE             d eps       ncg     rms          rms(c)
DAV:   1    -0.258928727982E+03    0.70760E-05   -0.11847E-03  2944   0.624E-02    0.554E-03
RMM:   2    -0.258928731272E+03   -0.32899E-05   -0.37673E-05  3250   0.206E-02    0.192E-03
RMM:   3    -0.258928732256E+03   -0.98416E-06   -0.11612E-05  2962   0.972E-03    0.156E-03
RMM:   4    -0.258928732232E+03    0.23718E-07   -0.12741E-06  1902   0.543E-03
 119 F= -.27241918E+03 E0= -.27241918E+03  d E =0.416931E-07  mag=    -0.0000
