 vasp.6.4.1 05Apr23 (build Jun 07 2023 15:38:11) complex                        
  
 executed on             LinuxIFC date 2023.10.01  02:57:54
 running  128 mpi-ranks, with    1 threads/rank, on    1 nodes
 distrk:  each k-point on  128 cores,    1 groups
 distr:  one band on NCORE=  32 cores,    4 groups


--------------------------------------------------------------------------------------------------------


 INCAR:
   GGA = PE
   PREC = Accu
   EDIFF = 1.e-5
   EDIFFG = -1.e-2
   ENCUT = 520.
   NELM = 100
   NELMDL = -10
   LASPH = .TRUE.
   LREAL = Auto
   LMAXMIX = 4
   ISPIN = 2
   LDIAG = .TRUE.
   LPLANE = .TRUE.
   IVDW = 12
   SIGMA = 0.03
   ISMEAR = 0
   NSW = 1000    number of steps for IOM
   IBRION = 1    ionic relax: 0-MD 1-quasi-New 2-CG
   ISIF = 2    ionic relaxation + stress tensor calcn.
   LCHARG = .FALSE.
   LWAVE = .FALSE.
   ALGO = V
   KPAR = 1
   NPAR = 4

 POTCAR:    PAW_PBE Li_sv_GW 25Mar2010            
 POTCAR:    PAW_PBE P_GW 19Mar2012                
 POTCAR:    PAW_PBE S_GW 19Mar2012                
 POTCAR:    PAW_PBE Cl_GW 19Mar2012               
 -----------------------------------------------------------------------------
|                                                                             |
|           W    W    AA    RRRRR   N    N  II  N    N   GGGG   !!!           |
|           W    W   A  A   R    R  NN   N  II  NN   N  G    G  !!!           |
|           W    W  A    A  R    R  N N  N  II  N N  N  G       !!!           |
|           W WW W  AAAAAA  RRRRR   N  N N  II  N  N N  G  GGG   !            |
|           WW  WW  A    A  R   R   N   NN  II  N   NN  G    G                |
|           W    W  A    A  R    R  N    N  II  N    N   GGGG   !!!           |
|                                                                             |
|     You use a magnetic or noncollinear calculation, but did not specify     |
|     the initial magnetic moment with the MAGMOM tag. Note that a            |
|     default of 1 will be used for all atoms. This ferromagnetic setup       |
|     may break the symmetry of the crystal, in particular it may rule        |
|     out finding an antiferromagnetic solution. Thence, we recommend         |
|     setting the initial magnetic moment manually or verifying carefully     |
|     that this magnetic setup is desired.                                    |
|                                                                             |
 -----------------------------------------------------------------------------

 POTCAR:    PAW_PBE Li_sv_GW 25Mar2010            
   SHA256 =  24a6ace15a582615486b36ce4dc781b048409f4015b7684ed1273ae395fa2fdc Li_sv_GW/POTCAR       
   COPYR  = (c) Copyright 25Mar2010 Georg Kresse                                                    
   COPYR  = This file is part of the software VASP. Any use, copying, and all other rights are regul
   COPYR  = If you do not have a valid VASP license, you may not use, copy or distribute this file. 
   VRHFIN =Li: 1s2s                                                                                 
   LEXCH  = PE                                                                                      
   EATOM  =   200.9989 eV,   14.7730 Ry                                                             
                                                                                                    
   TITEL  = PAW_PBE Li_sv_GW 25Mar2010                                                              
   LULTRA =        F    use ultrasoft PP ?                                                          
   IUNSCR =        0    unscreen: 0-lin 1-nonlin 2-no                                               
   RPACOR =    0.000    partial core radius                                                         
   POMASS =    7.010; ZVAL   =    3.000    mass and valenz                                          
   RCORE  =    1.500    outmost cutoff radius                                                       
   RWIGS  =    1.600; RWIGS  =    0.847    wigner-seitz radius (au A)                               
   ENMAX  =  433.699; ENMIN  =  325.274 eV                                                          
   RCLOC  =    1.003    cutoff for local pot                                                        
   LCOR   =        T    correct aug charges                                                         
   LPAW   =        T    paw PP                                                                      
   EAUG   = 1041.699                                                                                
   RMAX   =    1.536    core radius for proj-oper                                                   
   RAUG   =    1.300    factor for augmentation sphere                                              
   RDEP   =    1.520    radius for radial grids                                                     
   RDEPT  =    1.300    core radius for aug-charge                                                  
                                                                                                    
   Atomic configuration                                                                             
    4 entries                                                                                       
     n  l   j            E        occ.                                                              
     1  0  0.50       -53.3604   2.0000                                                             
     1  0  0.50       -52.0001   0.0000                                                             
     2  1  0.50        -1.5636   1.0000                                                             
     3  2  1.50        -1.3606   0.0000                                                             
   Description                                                                                      
     l       E           TYP  RCUT    TYP  RCUT                                                     
     0    -53.3603633     23  1.200                                                                 
     0    -52.0001064     23  1.200                                                                 
     0    176.8757380     23  1.300                                                                 
     1     -1.5635925     23  1.500                                                                 
     1    108.8466080     23  1.500                                                                 
     2     81.6349560     23  1.500                                                                 
  local pseudopotential read in
  kinetic energy density of atom read in
  atomic valenz-charges read in
  non local Contribution for L=           0  read in
    real space projection operators read in
  non local Contribution for L=           0  read in
    real space projection operators read in
  non local Contribution for L=           0  read in
    real space projection operators read in
  non local Contribution for L=           1  read in
    real space projection operators read in
  non local Contribution for L=           1  read in
    real space projection operators read in
  non local Contribution for L=           2  read in
    real space projection operators read in
    PAW grid and wavefunctions read in
 
   number of l-projection  operators is LMAX  =           6
   number of lm-projection operators is LMMAX =          14
 
 POTCAR:    PAW_PBE P_GW 19Mar2012                
   SHA256 =  715c28f2291d37b61637ce89646c59f66f71c8b8d8bfba631e5feb9f7b42defe P_GW/POTCAR           
   COPYR  = (c) Copyright 19Mar2012 Georg Kresse                                                    
   COPYR  = This file is part of the software VASP. Any use, copying, and all other rights are regul
   COPYR  = If you do not have a valid VASP license, you may not use, copy or distribute this file. 
   VRHFIN =P : s2p3                                                                                 
   LEXCH  = PE                                                                                      
   EATOM  =   176.0430 eV,   12.9388 Ry                                                             
                                                                                                    
   TITEL  = PAW_PBE P_GW 19Mar2012                                                                  
   LULTRA =        F    use ultrasoft PP ?                                                          
   IUNSCR =        1    unscreen: 0-lin 1-nonlin 2-no                                               
   RPACOR =    1.400    partial core radius                                                         
   POMASS =   30.974; ZVAL   =    5.000    mass and valenz                                          
   RCORE  =    2.000    outmost cutoff radius                                                       
   RWIGS  =    1.900; RWIGS  =    1.005    wigner-seitz radius (au A)                               
   ENMAX  =  255.040; ENMIN  =  191.280 eV                                                          
   ICORE  =        3    local potential                                                             
   LCOR   =        T    correct aug charges                                                         
   LPAW   =        T    paw PP                                                                      
   EAUG   =  499.732                                                                                
   DEXC   =    0.000                                                                                
   RMAX   =    2.047    core radius for proj-oper                                                   
   RAUG   =    1.300    factor for augmentation sphere                                              
   RDEP   =    2.059    radius for radial grids                                                     
   RDEPT  =    1.900    core radius for aug-charge                                                  
                                                                                                    
   Atomic configuration                                                                             
    7 entries                                                                                       
     n  l   j            E        occ.                                                              
     1  0  0.50     -2084.0982   2.0000                                                             
     2  0  0.50      -173.9859   2.0000                                                             
     2  1  1.50      -124.4865   6.0000                                                             
     3  0  0.50       -13.9692   2.0000                                                             
     3  1  0.50        -5.5067   3.0000                                                             
     3  2  1.50        -6.8029   0.0000                                                             
     4  3  2.50        -1.3606   0.0000                                                             
   Description                                                                                      
     l       E           TYP  RCUT    TYP  RCUT                                                     
     0    -13.9691528     23  1.900                                                                 
     0    102.0436950     23  1.900                                                                 
     1     -5.5066939     23  1.900                                                                 
     1    102.0436950     23  1.900                                                                 
     2     -8.1634956     23  2.000                                                                 
     2     81.6349560     23  2.000                                                                 
     3     27.2116520     23  2.000                                                                 
  local pseudopotential read in
  partial core-charges read in
  partial kinetic energy density read in
  kinetic energy density of atom read in
  atomic valenz-charges read in
  non local Contribution for L=           0  read in
    real space projection operators read in
  non local Contribution for L=           0  read in
    real space projection operators read in
  non local Contribution for L=           1  read in
    real space projection operators read in
  non local Contribution for L=           1  read in
    real space projection operators read in
  non local Contribution for L=           2  read in
    real space projection operators read in
  non local Contribution for L=           2  read in
    real space projection operators read in
    PAW grid and wavefunctions read in
 
   number of l-projection  operators is LMAX  =           6
   number of lm-projection operators is LMMAX =          18
 
 POTCAR:    PAW_PBE S_GW 19Mar2012                
   SHA256 =  357db9cfb0783579b2eebe03197c2d807131fea8ea663b1fcfb6ce2fa75af011 S_GW/POTCAR           
   COPYR  = (c) Copyright 19Mar2012 Georg Kresse                                                    
   COPYR  = This file is part of the software VASP. Any use, copying, and all other rights are regul
   COPYR  = If you do not have a valid VASP license, you may not use, copy or distribute this file. 
   VRHFIN =S : s2p4                                                                                 
   LEXCH  = PE                                                                                      
   EATOM  =   276.8230 eV,   20.3459 Ry                                                             
                                                                                                    
   TITEL  = PAW_PBE S_GW 19Mar2012                                                                  
   LULTRA =        F    use ultrasoft PP ?                                                          
   IUNSCR =        1    unscreen: 0-lin 1-nonlin 2-no                                               
   RPACOR =    1.400    partial core radius                                                         
   POMASS =   32.066; ZVAL   =    6.000    mass and valenz                                          
   RCORE  =    1.900    outmost cutoff radius                                                       
   RWIGS  =    1.900; RWIGS  =    1.005    wigner-seitz radius (au A)                               
   ENMAX  =  258.689; ENMIN  =  194.016 eV                                                          
   ICORE  =        3    local potential                                                             
   LCOR   =        T    correct aug charges                                                         
   LPAW   =        T    paw PP                                                                      
   EAUG   =  488.319                                                                                
   DEXC   =    0.000                                                                                
   RMAX   =    1.942    core radius for proj-oper                                                   
   RAUG   =    1.300    factor for augmentation sphere                                              
   RDEP   =    1.954    radius for radial grids                                                     
   RDEPT  =    1.900    core radius for aug-charge                                                  
                                                                                                    
   Atomic configuration                                                                             
    7 entries                                                                                       
     n  l   j            E        occ.                                                              
     1  0  0.50     -2405.8406   2.0000                                                             
     2  0  0.50      -211.7007   2.0000                                                             
     2  1  1.50      -156.4958   6.0000                                                             
     3  0  0.50       -17.2562   2.0000                                                             
     3  1  0.50        -7.0085   4.0000                                                             
     3  2  1.50        -8.1635   0.0000                                                             
     4  3  2.50        -1.3606   0.0000                                                             
   Description                                                                                      
     l       E           TYP  RCUT    TYP  RCUT                                                     
     0    -17.2561639     23  1.700                                                                 
     0     88.4378690     23  1.900                                                                 
     1     -7.0085399     23  1.900                                                                 
     1     88.4378690     23  1.900                                                                 
     2    -10.8846608     23  1.900                                                                 
     2     54.4233040     23  1.900                                                                 
     3     27.2116520     23  1.800                                                                 
  local pseudopotential read in
  partial core-charges read in
  partial kinetic energy density read in
  kinetic energy density of atom read in
  atomic valenz-charges read in
  non local Contribution for L=           0  read in
    real space projection operators read in
  non local Contribution for L=           0  read in
    real space projection operators read in
  non local Contribution for L=           1  read in
    real space projection operators read in
  non local Contribution for L=           1  read in
    real space projection operators read in
  non local Contribution for L=           2  read in
    real space projection operators read in
  non local Contribution for L=           2  read in
    real space projection operators read in
    PAW grid and wavefunctions read in
 
   number of l-projection  operators is LMAX  =           6
   number of lm-projection operators is LMMAX =          18
 
 POTCAR:    PAW_PBE Cl_GW 19Mar2012               
   SHA256 =  3ef3b3169d6a9a89979f58b4cf17d927a58518fc660d8883d88cacaee8175441 Cl_GW/POTCAR          
   COPYR  = (c) Copyright 19Mar2012 Georg Kresse                                                    
   COPYR  = This file is part of the software VASP. Any use, copying, and all other rights are regul
   COPYR  = If you do not have a valid VASP license, you may not use, copy or distribute this file. 
   VRHFIN =Cl: s2p5                                                                                 
   LEXCH  = PE                                                                                      
   EATOM  =   409.7259 eV,   30.1140 Ry                                                             
                                                                                                    
   TITEL  = PAW_PBE Cl_GW 19Mar2012                                                                 
   LULTRA =        F    use ultrasoft PP ?                                                          
   IUNSCR =        1    unscreen: 0-lin 1-nonlin 2-no                                               
   RPACOR =    1.400    partial core radius                                                         
   POMASS =   35.453; ZVAL   =    7.000    mass and valenz                                          
   RCORE  =    1.900    outmost cutoff radius                                                       
   RWIGS  =    1.900; RWIGS  =    1.005    wigner-seitz radius (au A)                               
   ENMAX  =  262.472; ENMIN  =  196.854 eV                                                          
   ICORE  =        3    local potential                                                             
   LCOR   =        T    correct aug charges                                                         
   LPAW   =        T    paw PP                                                                      
   EAUG   =  456.703                                                                                
   DEXC   =    0.000                                                                                
   RMAX   =    1.945    core radius for proj-oper                                                   
   RAUG   =    1.300    factor for augmentation sphere                                              
   RDEP   =    2.020    radius for radial grids                                                     
   RDEPT  =    1.900    core radius for aug-charge                                                  
                                                                                                    
   Atomic configuration                                                                             
    7 entries                                                                                       
     n  l   j            E        occ.                                                              
     1  0  0.50     -2751.1850   2.0000                                                             
     2  0  0.50      -252.6861   2.0000                                                             
     2  1  1.50      -191.6157   6.0000                                                             
     3  0  0.50       -20.6916   2.0000                                                             
     3  1  0.50        -8.5949   5.0000                                                             
     3  2  1.50        -9.5241   0.0000                                                             
     4  3  2.50        -9.5241   0.0000                                                             
   Description                                                                                      
     l       E           TYP  RCUT    TYP  RCUT                                                     
     0    -20.6915657     23  1.700                                                                 
     0     95.2407820     23  1.800                                                                 
     1     -8.5948577     23  1.900                                                                 
     1     95.2407820     23  1.900                                                                 
     2    -10.8846608     23  1.900                                                                 
     2     54.4233040     23  1.900                                                                 
     3     27.2116520     23  1.900                                                                 
  local pseudopotential read in
  partial core-charges read in
  partial kinetic energy density read in
  kinetic energy density of atom read in
  atomic valenz-charges read in
  non local Contribution for L=           0  read in
    real space projection operators read in
  non local Contribution for L=           0  read in
    real space projection operators read in
  non local Contribution for L=           1  read in
    real space projection operators read in
  non local Contribution for L=           1  read in
    real space projection operators read in
  non local Contribution for L=           2  read in
    real space projection operators read in
  non local Contribution for L=           2  read in
    real space projection operators read in
    PAW grid and wavefunctions read in
 
   number of l-projection  operators is LMAX  =           6
   number of lm-projection operators is LMMAX =          18
 
 Optimization of the real space projectors (new method)

 maximal supplied QI-value         = 25.13
 optimisation between [QCUT,QGAM] = [ 11.56, 23.12] = [ 37.43,149.72] Ry 
 Optimized for a Real-space Cutoff    1.28 Angstroem

   l    n(q)    QCUT    max X(q) W(low)/X(q) W(high)/X(q)  e(spline) 
   0      9    11.561    87.733    0.11E-03    0.32E-04    0.56E-06
   0      9    11.561    82.800    0.11E-03    0.35E-04    0.56E-06
   0      9    11.561     2.509    0.22E-03    0.42E-04    0.79E-06
   1      8    11.561    12.580    0.94E-04    0.26E-03    0.21E-06
   1      8    11.561     1.319    0.33E-04    0.15E-03    0.19E-06
   2      8    11.561     1.993    0.36E-04    0.89E-04    0.26E-06
 Optimization of the real space projectors (new method)

 maximal supplied QI-value         = 18.90
 optimisation between [QCUT,QGAM] = [ 11.53, 23.24] = [ 37.21,151.29] Ry 
 Optimized for a Real-space Cutoff    1.21 Angstroem

   l    n(q)    QCUT    max X(q) W(low)/X(q) W(high)/X(q)  e(spline) 
   0      8    11.527     8.355    0.73E-04    0.70E-04    0.26E-07
   0      8    11.527     1.401    0.17E-03    0.17E-03    0.63E-07
   1      8    11.527     4.747    0.13E-03    0.17E-03    0.11E-06
   1      8    11.527     2.025    0.16E-03    0.18E-03    0.12E-06
   2      7    11.527     3.169    0.51E-04    0.25E-03    0.60E-07
   2      7    11.527     3.441    0.82E-04    0.22E-03    0.14E-06
 Optimization of the real space projectors (new method)

 maximal supplied QI-value         = 19.84
 optimisation between [QCUT,QGAM] = [ 11.51, 23.22] = [ 37.09,150.92] Ry 
 Optimized for a Real-space Cutoff    1.49 Angstroem

   l    n(q)    QCUT    max X(q) W(low)/X(q) W(high)/X(q)  e(spline) 
   0     10    11.508     7.541    0.34E-04    0.13E-04    0.69E-07
   0     10    11.508     1.809    0.49E-04    0.27E-04    0.14E-06
   1     10    11.508     4.107    0.27E-05    0.41E-05    0.14E-06
   1     10    11.508     2.196    0.26E-05    0.25E-05    0.22E-06
   2      9    11.508     4.265    0.18E-03    0.11E-03    0.81E-06
   2      9    11.508     1.925    0.97E-04    0.76E-04    0.47E-06
 Optimization of the real space projectors (new method)

 maximal supplied QI-value         = 19.84
 optimisation between [QCUT,QGAM] = [ 11.51, 23.22] = [ 37.09,150.92] Ry 
 Optimized for a Real-space Cutoff    1.21 Angstroem

   l    n(q)    QCUT    max X(q) W(low)/X(q) W(high)/X(q)  e(spline) 
   0      8    11.508     6.761    0.57E-04    0.57E-04    0.35E-07
   0      8    11.508     1.642    0.14E-03    0.14E-03    0.91E-07
   1      8    11.508     3.519    0.20E-04    0.72E-04    0.47E-07
   1      8    11.508     2.150    0.27E-04    0.11E-03    0.89E-07
   2      7    11.508     2.976    0.19E-03    0.33E-03    0.16E-06
   2      7    11.508     1.494    0.14E-03    0.29E-03    0.14E-06
  PAW_PBE Li_sv_GW 25Mar2010            :
 energy of atom  1       EATOM= -200.9989
 kinetic energy error for atom=    0.0127 (will be added to EATOM!!)
  PAW_PBE P_GW 19Mar2012                :
 energy of atom  2       EATOM= -176.0430
 kinetic energy error for atom=    0.0011 (will be added to EATOM!!)
  PAW_PBE S_GW 19Mar2012                :
 energy of atom  3       EATOM= -276.8230
 kinetic energy error for atom=    0.0024 (will be added to EATOM!!)
  PAW_PBE Cl_GW 19Mar2012               :
 energy of atom  4       EATOM= -409.7259
 kinetic energy error for atom=    0.0030 (will be added to EATOM!!)
 
 
 POSCAR: Li24 P4 S20 Cl4
  positions in direct lattice
  No initial velocities read in
 exchange correlation table for  LEXCH =        8
   RHO(1)=    0.500       N(1)  =     2000
   RHO(2)=  100.500       N(2)  =     4000

 VTST: version 4.1, (05/19/21)

 CHAIN: initializing optimizer
 
 OPT: Using VASP QUASI-newton optimizer
 CHAIN: Read ICHAIN            0
 
 POSCAR: Li24 P4 S20 Cl4
  positions in direct lattice
  No initial velocities read in
 


--------------------------------------------------------------------------------------------------------


 ion  position               nearest neighbor table
   1  0.977  0.250  0.250-
   2  0.977  0.752  0.751-
   3  0.023  0.250  0.750-
   4  0.023  0.750  0.250-
   5  0.250  0.250  0.977-
   6  0.250  0.750  0.023-
   7  0.750  0.250  0.023-
   8  0.750  0.750  0.977-
   9  0.250  0.977  0.250-
  10  0.250  0.023  0.750-
  11  0.750  0.977  0.750-
  12  0.750  0.023  0.250-
  13  0.250  0.750  0.477-
  14  0.250  0.250  0.524-
  15  0.750  0.750  0.523-
  16  0.750  0.250  0.477-
  17  0.250  0.477  0.750-
  18  0.250  0.523  0.250-
  19  0.750  0.477  0.250-
  20  0.751  0.523  0.750-
  21  0.477  0.250  0.750-
  22  0.477  0.750  0.250-
  23  0.523  0.250  0.250-
  24  0.523  0.750  0.750-
  25  0.500  0.500  0.500-  42 2.05  43 2.05  41 2.05  44 2.05
  26  0.500  1.000  0.000-  38 2.05  39 2.05  37 2.05  40 2.05
  27  1.000  0.500  0.000-  36 2.05  33 2.05  35 2.05  34 2.05
  28  0.000  0.000  0.500-  29 2.05  32 2.05  30 2.05  31 2.05
  29  0.118  0.882  0.618-  28 2.05
  30  0.118  0.118  0.382-  28 2.05
  31  0.882  0.882  0.382-  28 2.05
  32  0.882  0.118  0.618-  28 2.05
  33  0.882  0.618  0.118-  27 2.05
  34  0.882  0.382  0.882-  27 2.05
  35  0.118  0.618  0.882-  27 2.05
  36  0.118  0.382  0.118-  27 2.05
  37  0.618  0.118  0.882-  26 2.05
  38  0.618  0.882  0.118-  26 2.05
  39  0.382  0.118  0.118-  26 2.05
  40  0.382  0.882  0.882-  26 2.05
  41  0.618  0.618  0.382-  25 2.05
  42  0.618  0.382  0.618-  25 2.05
  43  0.382  0.618  0.618-  25 2.05
  44  0.382  0.382  0.382-  25 2.05
  45  0.750  0.750  0.750-
  46  0.750  0.250  0.250-
  47  0.250  0.750  0.250-
  48  0.250  0.250  0.750-
  49  0.000  1.000  0.999-
  50  1.000  0.500  0.499-
  51  0.500  1.000  0.500-
  52  0.500  0.500  0.000-
 
  LATTYP: Found a simple cubic cell.
 ALAT       =    10.0228067168
  
  Lattice vectors:
  
 A1 = (  10.0228067168,   0.0000000000,   0.0000000000)
 A2 = (   0.0000000000,  10.0228067168,   0.0000000000)
 A3 = (   0.0000000000,   0.0000000000,  10.0228067168)


Analysis of symmetry for initial positions (statically):
=====================================================================
 Subroutine PRICEL returns:
 Original cell was already a primitive cell.
 

 Routine SETGRP: Setting up the symmetry group for a 
 simple cubic supercell.


 Subroutine GETGRP returns: Found  1 space group operations
 (whereof  1 operations were pure point group operations)
 out of a pool of 48 trial point group operations.


The static configuration has the point symmetry C_1 .


Analysis of symmetry for dynamics (positions and initial velocities):
=====================================================================
 Subroutine PRICEL returns:
 Original cell was already a primitive cell.
 

 Routine SETGRP: Setting up the symmetry group for a 
 simple cubic supercell.


 Subroutine GETGRP returns: Found  1 space group operations
 (whereof  1 operations were pure point group operations)
 out of a pool of 48 trial point group operations.


The dynamic configuration has the point symmetry C_1 .


Analysis of structural, dynamic, and magnetic symmetry:
=====================================================================
 Subroutine PRICEL returns:
 Original cell was already a primitive cell.
 

 Routine SETGRP: Setting up the symmetry group for a 
 simple cubic supercell.


 Subroutine GETGRP returns: Found  1 space group operations
 (whereof  1 operations were pure point group operations)
 out of a pool of 48 trial point group operations.


The overall configuration has the point symmetry C_1 .


 Subroutine INISYM returns: Found  1 space group operations
 (whereof  1 operations are pure point group operations),
 and found     1 'primitive' translations


----------------------------------------------------------------------------------------

                                     Primitive cell                                     

  volume of cell :    1006.8576

  direct lattice vectors                    reciprocal lattice vectors
    10.022806717  0.000000000  0.000000000     0.099772452  0.000000000  0.000000000
     0.000000000 10.022806717  0.000000000     0.000000000  0.099772452  0.000000000
     0.000000000  0.000000000 10.022806717     0.000000000  0.000000000  0.099772452

  length of vectors
    10.022806717 10.022806717 10.022806717     0.099772452  0.099772452  0.099772452

  position of ions in fractional coordinates (direct lattice)
     0.976518588  0.250130010  0.250140629
     0.977108441  0.751500731  0.751202448
     0.023148650  0.249841333  0.750234121
     0.023116708  0.749804538  0.250030452
     0.250046537  0.250088012  0.977154342
     0.250110042  0.749887074  0.023107171
     0.749771602  0.250117785  0.023120733
     0.750064368  0.750054988  0.976541272
     0.249961654  0.976683238  0.250259748
     0.250030600  0.023223649  0.750272790
     0.749899935  0.976787645  0.749833292
     0.749817330  0.023189064  0.250025506
     0.249931200  0.749732075  0.476715990
     0.249862664  0.249994522  0.523503053
     0.750346931  0.749796818  0.522947386
     0.749842624  0.249917195  0.476744885
     0.250152626  0.476736545  0.750119711
     0.249909885  0.523161856  0.250142997
     0.749919150  0.476717700  0.249892216
     0.750594150  0.523263272  0.749513119
     0.476742415  0.250209127  0.750265477
     0.476716775  0.749940669  0.249884752
     0.522939684  0.250038438  0.250086936
     0.523491619  0.750076624  0.749833901
     0.500050802  0.500019718  0.500111586
     0.500121975  0.999882871  0.000074924
     0.999979170  0.500042528  0.000032347
     0.000098928  0.000143913  0.499954612
     0.118351676  0.882074259  0.617886795
     0.118093288  0.118359532  0.381781699
     0.881990801  0.882052846  0.381743062
     0.881892831  0.118149267  0.618069533
     0.881726417  0.618181308  0.117971925
     0.881832926  0.381900109  0.881893544
     0.118137512  0.618031175  0.881815530
     0.117893309  0.381939019  0.118259370
     0.618100745  0.118060168  0.881849084
     0.618235531  0.881731655  0.118044205
     0.381881490  0.117840110  0.118204380
     0.382072407  0.881752690  0.881826096
     0.618044088  0.618069560  0.381782783
     0.618133392  0.381923002  0.618175879
     0.381958690  0.618177798  0.618203823
     0.381741402  0.381888138  0.382130283
     0.750290453  0.750013946  0.749761858
     0.749751262  0.249932643  0.249906453
     0.249914798  0.749938331  0.249914442
     0.249949561  0.249987912  0.750324279
     0.000040671  0.999536733  0.999267637
     0.999982620  0.499700982  0.499414771
     0.500006121  0.999975203  0.499880759
     0.499682958  0.499801676  0.000145415

  ion indices of the primitive-cell ions
   primitive index   ion index
                 1           1
                 2           2
                 3           3
                 4           4
                 5           5
                 6           6
                 7           7
                 8           8
                 9           9
                10          10
                11          11
                12          12
                13          13
                14          14
                15          15
                16          16
                17          17
                18          18
                19          19
                20          20
                21          21
                22          22
                23          23
                24          24
                25          25
                26          26
                27          27
                28          28
                29          29
                30          30
                31          31
                32          32
                33          33
                34          34
                35          35
                36          36
                37          37
                38          38
                39          39
                40          40
                41          41
                42          42
                43          43
                44          44
                45          45
                46          46
                47          47
                48          48
                49          49
                50          50
                51          51
                52          52

----------------------------------------------------------------------------------------

 
 
 KPOINTS: Automatic mesh                          

Automatic generation of k-mesh.
 Grid dimensions read from file:
 generate k-points for:    2    2    2

 Generating k-lattice:

  Cartesian coordinates                     Fractional coordinates (reciprocal lattice)
     0.049886226  0.000000000  0.000000000     0.500000000  0.000000000  0.000000000
     0.000000000  0.049886226  0.000000000     0.000000000  0.500000000  0.000000000
     0.000000000  0.000000000  0.049886226     0.000000000  0.000000000  0.500000000

  Length of vectors
     0.049886226  0.049886226  0.049886226

  Shift w.r.t. Gamma in fractional coordinates (k-lattice)
     0.500000000  0.500000000  0.500000000

 
 Subroutine IBZKPT returns following result:
 ===========================================
 
 Found      4 irreducible k-points:
 
 Following reciprocal coordinates:
            Coordinates               Weight
  0.250000  0.250000  0.250000      2.000000
 -0.250000  0.250000  0.250000      2.000000
 -0.250000 -0.250000  0.250000      2.000000
  0.250000 -0.250000  0.250000      2.000000
 
 Following cartesian coordinates:
            Coordinates               Weight
  0.024943  0.024943  0.024943      2.000000
 -0.024943  0.024943  0.024943      2.000000
 -0.024943 -0.024943  0.024943      2.000000
  0.024943 -0.024943  0.024943      2.000000
 


--------------------------------------------------------------------------------------------------------




 Dimension of arrays:
   k-points           NKPTS =      4   k-points in BZ     NKDIM =      4   number of bands    NBANDS=    176
   number of dos      NEDOS =    301   number of ions     NIONS =     52
   non local maximal  LDIM  =      6   non local SUM 2l+1 LMDIM =     18
   total plane-waves  NPLWV = 512000
   max r-space proj   IRMAX =   7083   max aug-charges    IRDMAX=  21659
   dimension x,y,z NGX =    80 NGY =   80 NGZ =   80
   dimension x,y,z NGXF=   160 NGYF=  160 NGZF=  160
   support grid    NGXF=   160 NGYF=  160 NGZF=  160
   ions per type =              24   4  20   4
   NGX,Y,Z   is equivalent  to a cutoff of  13.27, 13.27, 13.27 a.u.
   NGXF,Y,Z  is equivalent  to a cutoff of  26.54, 26.54, 26.54 a.u.

 SYSTEM =  unknown system                          
 POSCAR =  Li24 P4 S20 Cl4                         

 Startparameter for this run:
   NWRITE =      2    write-flag & timer
   PREC   = accu      normal or accurate (medium, high low for compatibility)
   ISTART =      0    job   : 0-new  1-cont  2-samecut
   ICHARG =      2    charge: 1-file 2-atom 10-const
   ISPIN  =      2    spin polarized calculation?
   LNONCOLLINEAR =      F non collinear calculations
   LSORBIT =      F    spin-orbit coupling
   INIWAV =      1    electr: 0-lowe 1-rand  2-diag
   LASPH  =      T    aspherical Exc in radial PAW
 Electronic Relaxation 1
   ENCUT  =  520.0 eV  38.22 Ry    6.18 a.u.  18.64 18.64 18.64*2*pi/ulx,y,z
   ENINI  =  520.0     initial cutoff
   ENAUG  = 1041.7 eV  augmentation charge cutoff
   NELM   =    100;   NELMIN=  2; NELMDL=-10     # of ELM steps 
   EDIFF  = 0.1E-04   stopping-criterion for ELM
   LREAL  =      T    real-space projection
   NLSPLINE    = F    spline interpolate recip. space projectors
   LCOMPAT=      F    compatible to vasp.4.4
   GGA_COMPAT  = T    GGA compatible to vasp.4.4-vasp.4.6
   LMAXPAW     = -100 max onsite density
   LMAXMIX     =    4 max onsite mixed and CHGCAR
   VOSKOWN=      0    Vosko Wilk Nusair interpolation
   ROPT   =   -0.00025  -0.00025  -0.00025  -0.00025
 Ionic relaxation
   EDIFFG = -.1E-01   stopping-criterion for IOM
   NSW    =   1000    number of steps for IOM
   NBLOCK =      1;   KBLOCK =   1000    inner block; outer block 
   IBRION =      1    ionic relax: 0-MD 1-quasi-New 2-CG
   NFREE  =      0    steps in history (QN), initial steepest desc. (CG)
   ISIF   =      2    stress and relaxation
   IWAVPR =     11    prediction:  0-non 1-charg 2-wave 3-comb
   ISYM   =      2    0-nonsym 1-usesym 2-fastsym
   LCORR  =      T    Harris-Foulkes like correction to forces

   POTIM  = 0.5000    time-step for ionic-motion
   TEIN   =    0.0    initial temperature
   TEBEG  =    0.0;   TEEND  =   0.0 temperature during run
   SMASS  =  -3.00    Nose mass-parameter (am)
   estimated Nose-frequenzy (Omega)   =  0.10E-29 period in steps = 0.13E+47 mass=  -0.230E-26a.u.
   SCALEE = 1.0000    scale energy and forces
   NPACO  =    256;   APACO  = 10.0  distance and # of slots for P.C.
   PSTRESS=    0.0 pullay stress

  Mass of Ions in am
   POMASS =   7.01 30.97 32.07 35.45
  Ionic Valenz
   ZVAL   =   3.00  5.00  6.00  7.00
  Atomic Wigner-Seitz radii
   RWIGS  =  -1.00 -1.00 -1.00 -1.00
  virtual crystal weights 
   VCA    =   1.00  1.00  1.00  1.00
   NELECT =     240.0000    total number of electrons
   NUPDOWN=      -1.0000    fix difference up-down

 DOS related values:
   EMIN   =  10.00;   EMAX   =-10.00  energy-range for DOS
   EFERMI =   0.00;   METHOD = LEGACY      
   ISMEAR =     0;   SIGMA  =   0.03  broadening in eV -4-tet -1-fermi 0-gaus

 Electronic relaxation 2 (details)
   IALGO  =     48    algorithm
   LDIAG  =      T    sub-space diagonalisation (order eigenvalues)
   LSUBROT=      F    optimize rotation matrix (better conditioning)
   TURBO    =      0    0=normal 1=particle mesh
   IRESTART =      0    0=no restart 2=restart with 2 vectors
   NREBOOT  =      0    no. of reboots
   NMIN     =      0    reboot dimension
   EREF     =   0.00    reference energy to select bands
   IMIX   =      4    mixing-type and parameters
     AMIX     =   0.40;   BMIX     =  1.00
     AMIX_MAG =   1.60;   BMIX_MAG =  1.00
     AMIN     =   0.10
     WC   =   100.;   INIMIX=   1;  MIXPRE=   1;  MAXMIX= -45

 Intra band minimization:
   WEIMIN = 0.0010     energy-eigenvalue tresh-hold
   EBREAK =  0.14E-07  absolut break condition
   DEPER  =   0.30     relativ break condition  

   TIME   =   0.40     timestep for ELM

  volume/ion in A,a.u.               =      19.36       130.67
  Fermi-wavevector in a.u.,A,eV,Ry     =   1.015054  1.918174 14.018558  1.030335
  Thomas-Fermi vector in A             =   2.148318
 
 Write flags
   LWAVE        =      F    write WAVECAR
   LDOWNSAMPLE  =      F    k-point downsampling of WAVECAR
   LCHARG       =      F    write CHGCAR
   LVTOT        =      F    write LOCPOT, total local potential
   LVHAR        =      F    write LOCPOT, Hartree potential only
   LELF         =      F    write electronic localiz. function (ELF)
   LORBIT       =      0    0 simple, 1 ext, 2 COOP (PROOUT), +10 PAW based schemes


 Dipole corrections
   LMONO  =      F    monopole corrections only (constant potential shift)
   LDIPOL =      F    correct potential (dipole corrections)
   IDIPOL =      0    1-x, 2-y, 3-z, 4-all directions 
   EPSILON=  1.0000000 bulk dielectric constant

 Exchange correlation treatment:
   GGA     =    PE    GGA type
   LEXCH   =     8    internal setting for exchange type
   LIBXC   =     F    Libxc                    
   VOSKOWN =     0    Vosko Wilk Nusair interpolation
   LHFCALC =     F    Hartree Fock is set to
   LHFONE  =     F    Hartree Fock one center treatment
   AEXX    =    0.0000 exact exchange contribution

 Linear response parameters
   LEPSILON=     F    determine dielectric tensor
   LRPA    =     F    only Hartree local field effects (RPA)
   LNABLA  =     F    use nabla operator in PAW spheres
   LVEL    =     F    velocity operator in full k-point grid
   CSHIFT  =0.1000    complex shift for real part using Kramers Kronig
   OMEGAMAX=  -1.0    maximum frequency
   DEG_THRESHOLD= 0.2000000E-02 threshold for treating states as degnerate
   RTIME   =   -0.100 relaxation time in fs
  (WPLASMAI=    0.000 imaginary part of plasma frequency in eV, 0.658/RTIME)
   DFIELD  = 0.0000000 0.0000000 0.0000000 field for delta impulse in time
 
  Optional k-point grid parameters
   LKPOINTS_OPT  =     F    use optional k-point grid
   KPOINTS_OPT_MODE=     1    mode for optional k-point grid
 
 Orbital magnetization related:
   ORBITALMAG=     F  switch on orbital magnetization
   LCHIMAG   =     F  perturbation theory with respect to B field
   DQ        =  0.001000  dq finite difference perturbation B field
   LLRAUG    =     F  two centre corrections for induced B field
   LBONE     =     F  B-component reconstruction in AE one-centre
   LVGVCALC  =     T  calculate vGv susceptibility
   LVGVAPPL  =     F  apply vGv susceptibility instead of pGv for G=0

 Random number generation:
   RANDOM_GENERATOR = DEFAULT
   PCG_SEED         = not used


--------------------------------------------------------------------------------------------------------


 quasi-Newton-method for relaxation of ions
 charge density and potential will be updated during run
 spin polarized calculation
 RMM-DIIS sequential band-by-band
 perform sub-space diagonalisation
    before iterative eigenvector-optimisation
 modified Broyden-mixing scheme, WC =      100.0
 initial mixing is a Kerker type mixing with AMIX =  0.4000 and BMIX =      1.0000
 Hartree-type preconditioning will be used
 using additional bands           56
 real space projection scheme for non local part
 use partial core corrections
 calculate Harris-corrections to forces 
   (improved forces if not selfconsistent)
 use gradient corrections 
 use of overlap-Matrix (Vanderbilt PP)
 Gauss-broadening in eV      SIGMA  =   0.03


--------------------------------------------------------------------------------------------------------


  energy-cutoff  :      520.00
  volume of cell :     1006.86
      direct lattice vectors                 reciprocal lattice vectors
    10.022806717  0.000000000  0.000000000     0.099772452  0.000000000  0.000000000
     0.000000000 10.022806717  0.000000000     0.000000000  0.099772452  0.000000000
     0.000000000  0.000000000 10.022806717     0.000000000  0.000000000  0.099772452

  length of vectors
    10.022806717 10.022806717 10.022806717     0.099772452  0.099772452  0.099772452


 
 k-points in units of 2pi/SCALE and weight: Automatic mesh                          
   0.02494311  0.02494311  0.02494311       0.250
  -0.02494311  0.02494311  0.02494311       0.250
  -0.02494311 -0.02494311  0.02494311       0.250
   0.02494311 -0.02494311  0.02494311       0.250
 
 k-points in reciprocal lattice and weights: Automatic mesh                          
   0.25000000  0.25000000  0.25000000       0.250
  -0.25000000  0.25000000  0.25000000       0.250
  -0.25000000 -0.25000000  0.25000000       0.250
   0.25000000 -0.25000000  0.25000000       0.250
 
 position of ions in fractional coordinates (direct lattice) 
   0.97651859  0.25013001  0.25014063
   0.97710844  0.75150073  0.75120245
   0.02314865  0.24984133  0.75023412
   0.02311671  0.74980454  0.25003045
   0.25004654  0.25008801  0.97715434
   0.25011004  0.74988707  0.02310717
   0.74977160  0.25011779  0.02312073
   0.75006437  0.75005499  0.97654127
   0.24996165  0.97668324  0.25025975
   0.25003060  0.02322365  0.75027279
   0.74989994  0.97678764  0.74983329
   0.74981733  0.02318906  0.25002551
   0.24993120  0.74973208  0.47671599
   0.24986266  0.24999452  0.52350305
   0.75034693  0.74979682  0.52294739
   0.74984262  0.24991720  0.47674489
   0.25015263  0.47673654  0.75011971
   0.24990989  0.52316186  0.25014300
   0.74991915  0.47671770  0.24989222
   0.75059415  0.52326327  0.74951312
   0.47674241  0.25020913  0.75026548
   0.47671678  0.74994067  0.24988475
   0.52293968  0.25003844  0.25008694
   0.52349162  0.75007662  0.74983390
   0.50005080  0.50001972  0.50011159
   0.50012198  0.99988287  0.00007492
   0.99997917  0.50004253  0.00003235
   0.00009893  0.00014391  0.49995461
   0.11835168  0.88207426  0.61788679
   0.11809329  0.11835953  0.38178170
   0.88199080  0.88205285  0.38174306
   0.88189283  0.11814927  0.61806953
   0.88172642  0.61818131  0.11797192
   0.88183293  0.38190011  0.88189354
   0.11813751  0.61803118  0.88181553
   0.11789331  0.38193902  0.11825937
   0.61810075  0.11806017  0.88184908
   0.61823553  0.88173165  0.11804421
   0.38188149  0.11784011  0.11820438
   0.38207241  0.88175269  0.88182610
   0.61804409  0.61806956  0.38178278
   0.61813339  0.38192300  0.61817588
   0.38195869  0.61817780  0.61820382
   0.38174140  0.38188814  0.38213028
   0.75029045  0.75001395  0.74976186
   0.74975126  0.24993264  0.24990645
   0.24991480  0.74993833  0.24991444
   0.24994956  0.24998791  0.75032428
   0.00004067  0.99953673  0.99926764
   0.99998262  0.49970098  0.49941477
   0.50000612  0.99997520  0.49988076
   0.49968296  0.49980168  0.00014541
 
 position of ions in cartesian coordinates  (Angst):
   9.78745706  2.50700475  2.50711117
   9.79336905  7.53214657  7.52915694
   0.23201444  2.50411139  7.51945159
   0.23169430  7.51514596  2.50600690
   2.50616811  2.50658380  9.79382910
   2.50680461  7.51597321  0.23159871
   7.51481584  2.50688222  0.23173464
   7.51775018  7.51765617  9.78768442
   2.50531734  9.78910732  2.50830508
   2.50600837  0.23276614  7.51983916
   7.51610211  9.79015377  7.51543415
   7.51527417  0.23241950  2.50595732
   2.50501211  7.51441968  4.77803223
   2.50432519  2.50564677  5.24696992
   7.52058226  7.51506858  5.24140057
   7.51552769  2.50487174  4.77832184
   2.50723142  4.77823824  7.51830488
   2.50479848  5.24355017  2.50713491
   7.51629469  4.77804936  2.50462138
   7.52306009  5.24456664  7.51222513
   4.77829708  2.50779772  7.51976586
   4.77804010  7.51651037  2.50454657
   5.24132337  2.50608694  2.50657302
   5.24685531  7.51787302  7.51544026
   5.01191254  5.01160099  5.01252176
   5.01262589 10.02163276  0.00075094
  10.02259794  5.01182961  0.00032420
   0.00099153  0.00144242  5.01094844
   1.18621597  8.84085981  6.19295992
   1.18362620  1.18629471  3.82652417
   8.84002332  8.84064519  3.82613693
   8.83904139  1.18418727  6.19479147
   8.83737345  6.19591176  1.18240980
   8.83844098  3.82771098  8.83904854
   1.18406944  6.19440701  8.83826662
   1.18162185  3.82810097  1.18529081
   6.19510430  1.18329424  8.83860292
   6.19645523  8.83742595  1.18313425
   3.82752437  1.18108865  1.18473965
   3.82943788  8.83763679  8.83837252
   6.19453644  6.19479173  3.82653504
   6.19543152  3.82794043  6.19585735
   3.82829813  6.19587658  6.19613743
   3.82612028  3.82759100  3.83001796
   7.52001619  7.51724481  7.51471818
   7.51461199  2.50502657  2.50476407
   2.50484771  7.51648694  2.50484414
   2.50519614  2.50558052  7.52035522
   0.00040763 10.01816348 10.01546638
  10.02263252  5.00840636  5.00553773
   5.01146471 10.02255818  5.01020822
   5.00822571  5.00941560  0.00145746
 


--------------------------------------------------------------------------------------------------------


 k-point   1 :   0.2500 0.2500 0.2500  plane waves:   27124
 k-point   2 :  -0.2500 0.2500 0.2500  plane waves:   27124
 k-point   3 :  -0.2500-0.2500 0.2500  plane waves:   27124
 k-point   4 :   0.2500-0.2500 0.2500  plane waves:   27124

 maximum and minimum number of plane-waves per node :       867      830

 maximum number of plane-waves:     27124
 maximum index in each direction: 
   IXMAX=   18   IYMAX=   18   IZMAX=   18
   IXMIN=  -18   IYMIN=  -18   IZMIN=  -18


 real space projection operators:
  total allocation   :      34904.48 KBytes
  max/ min on nodes  :       1345.12        817.11


 parallel 3D FFT for wavefunctions:
    minimum data exchange during FFTs selected (reduces bandwidth)
 parallel 3D FFT for charge:
    minimum data exchange during FFTs selected (reduces bandwidth)


 total amount of memory used by VASP MPI-rank0    51664. kBytes
=======================================================================

   base      :      30000. kBytes
   nonlr-proj:       7918. kBytes
   fftplans  :       2173. kBytes
   grid      :       6510. kBytes
   one-center:         62. kBytes
   wavefun   :       5001. kBytes
 
     INWAV:  cpu time      0.0000: real time      0.0000
 Broyden mixing: mesh for mixing (old mesh)
   NGX = 37   NGY = 37   NGZ = 37
  (NGX  =160   NGY  =160   NGZ  =160)
  gives a total of  50653 points

 initial charge density was supplied:
 charge density of overlapping atoms calculated
 number of electron     240.0000000 magnetization      52.0000000
 keeping initial charge density in first step


--------------------------------------------------------------------------------------------------------


 Maximum index for non-local projection operator          456
 Maximum index for augmentation-charges          913 (set IRDMAX)


--------------------------------------------------------------------------------------------------------


 First call to EWALD:  gamma=   0.177
 Maximum number of real-space cells 3x 3x 3
 Maximum number of reciprocal cells 3x 3x 3

    FEWALD:  cpu time      0.0027: real time      0.0030


--------------------------------------- Ionic step        1  -------------------------------------------




--------------------------------------- Iteration      1(   1)  ---------------------------------------


    POTLOK:  cpu time      0.0740: real time      0.0821
    SETDIJ:  cpu time      0.4311: real time      0.4397
    EDDIAG:  cpu time      0.4966: real time      0.5733
  RMM-DIIS:  cpu time      0.8450: real time      0.8535
    ORTHCH:  cpu time      0.0671: real time      0.0715
       DOS:  cpu time      0.0035: real time      0.0050
    --------------------------------------------
      LOOP:  cpu time      1.9172: real time      2.0251

 eigenvalue-minimisations  :  1408
 total energy-change (2. order) : 0.2379273E+04  (-0.8827832E+04)
 number of electron     240.0000000 magnetization      52.0000000
 augmentation part      240.0000000 magnetization      52.0000000

 Free energy of the ion-electron system (eV)
  ---------------------------------------------------
  alpha Z        PSCENC =       269.60862712
  Ewald energy   TEWEN  =     -8279.24382039
  -Hartree energ DENC   =     -2404.04273171
  -exchange      EXHF   =         0.00000000
  -V(xc)+E(xc)   XCENC  =       529.58875664
  PAW double counting   =      8141.38806575    -8271.61346273
  entropy T*S    EENTRO =        -0.00379130
  eigenvalues    EBANDS =      -309.54867155
  atomic energy  EATOM  =     12703.13999606
  Solvation  Ediel_sol  =         0.00000000
  ---------------------------------------------------
  free energy    TOTEN  =      2379.27296789 eV

  energy without entropy =     2379.27675919  energy(sigma->0) =     2379.27486354


--------------------------------------------------------------------------------------------------------




--------------------------------------- Iteration      1(   2)  ---------------------------------------


    EDDIAG:  cpu time      0.4758: real time      0.4936
  RMM-DIIS:  cpu time      0.8410: real time      0.8488
    ORTHCH:  cpu time      0.0678: real time      0.0705
       DOS:  cpu time      0.0012: real time      0.0012
    --------------------------------------------
      LOOP:  cpu time      1.3857: real time      1.4141

 eigenvalue-minimisations  :  1408
 total energy-change (2. order) :-0.2144236E+04  (-0.2655165E+04)
 number of electron     240.0000000 magnetization      52.0000000
 augmentation part      240.0000000 magnetization      52.0000000

 Free energy of the ion-electron system (eV)
  ---------------------------------------------------
  alpha Z        PSCENC =       269.60862712
  Ewald energy   TEWEN  =     -8279.24382039
  -Hartree energ DENC   =     -2404.04273171
  -exchange      EXHF   =         0.00000000
  -V(xc)+E(xc)   XCENC  =       529.58875664
  PAW double counting   =      8141.38806575    -8271.61346273
  entropy T*S    EENTRO =        -0.00814569
  eigenvalues    EBANDS =     -2453.78008587
  atomic energy  EATOM  =     12703.13999606
  Solvation  Ediel_sol  =         0.00000000
  ---------------------------------------------------
  free energy    TOTEN  =       235.03719918 eV

  energy without entropy =      235.04534487  energy(sigma->0) =      235.04127202


--------------------------------------------------------------------------------------------------------




--------------------------------------- Iteration      1(   3)  ---------------------------------------


    EDDIAG:  cpu time      0.3865: real time      0.3896
  RMM-DIIS:  cpu time      0.8467: real time      0.8548
    ORTHCH:  cpu time      0.0683: real time      0.0702
       DOS:  cpu time      0.0010: real time      0.0010
    --------------------------------------------
      LOOP:  cpu time      1.3025: real time      1.3156

 eigenvalue-minimisations  :  1408
 total energy-change (2. order) :-0.1117743E+03  (-0.6187736E+03)
 number of electron     240.0000000 magnetization      52.0000000
 augmentation part      240.0000000 magnetization      52.0000000

 Free energy of the ion-electron system (eV)
  ---------------------------------------------------
  alpha Z        PSCENC =       269.60862712
  Ewald energy   TEWEN  =     -8279.24382039
  -Hartree energ DENC   =     -2404.04273171
  -exchange      EXHF   =         0.00000000
  -V(xc)+E(xc)   XCENC  =       529.58875664
  PAW double counting   =      8141.38806575    -8271.61346273
  entropy T*S    EENTRO =        -0.00559902
  eigenvalues    EBANDS =     -2565.55694528
  atomic energy  EATOM  =     12703.13999606
  Solvation  Ediel_sol  =         0.00000000
  ---------------------------------------------------
  free energy    TOTEN  =       123.26288644 eV

  energy without entropy =      123.26848546  energy(sigma->0) =      123.26568595


--------------------------------------------------------------------------------------------------------




--------------------------------------- Iteration      1(   4)  ---------------------------------------


    EDDIAG:  cpu time      0.3866: real time      0.3904
  RMM-DIIS:  cpu time      0.8387: real time      0.8955
    ORTHCH:  cpu time      0.0680: real time      0.0697
       DOS:  cpu time      0.0010: real time      0.0011
    --------------------------------------------
      LOOP:  cpu time      1.2944: real time      1.3566

 eigenvalue-minimisations  :  1408
 total energy-change (2. order) :-0.2065696E+03  (-0.1761301E+03)
 number of electron     240.0000000 magnetization      52.0000000
 augmentation part      240.0000000 magnetization      52.0000000

 Free energy of the ion-electron system (eV)
  ---------------------------------------------------
  alpha Z        PSCENC =       269.60862712
  Ewald energy   TEWEN  =     -8279.24382039
  -Hartree energ DENC   =     -2404.04273171
  -exchange      EXHF   =         0.00000000
  -V(xc)+E(xc)   XCENC  =       529.58875664
  PAW double counting   =      8141.38806575    -8271.61346273
  entropy T*S    EENTRO =        -0.00343466
  eigenvalues    EBANDS =     -2772.12872419
  atomic energy  EATOM  =     12703.13999606
  Solvation  Ediel_sol  =         0.00000000
  ---------------------------------------------------
  free energy    TOTEN  =       -83.30672811 eV

  energy without entropy =      -83.30329345  energy(sigma->0) =      -83.30501078


--------------------------------------------------------------------------------------------------------




--------------------------------------- Iteration      1(   5)  ---------------------------------------


    EDDIAG:  cpu time      0.3861: real time      0.3900
  RMM-DIIS:  cpu time      0.8385: real time      0.8938
    ORTHCH:  cpu time      0.0680: real time      0.0685
       DOS:  cpu time      0.0005: real time      0.0005
    --------------------------------------------
      LOOP:  cpu time      1.2931: real time      1.3527

 eigenvalue-minimisations  :  1408
 total energy-change (2. order) :-0.7968752E+02  (-0.7368633E+02)
 number of electron     240.0000000 magnetization      52.0000000
 augmentation part      240.0000000 magnetization      52.0000000

 Free energy of the ion-electron system (eV)
  ---------------------------------------------------
  alpha Z        PSCENC =       269.60862712
  Ewald energy   TEWEN  =     -8279.24382039
  -Hartree energ DENC   =     -2404.04273171
  -exchange      EXHF   =         0.00000000
  -V(xc)+E(xc)   XCENC  =       529.58875664
  PAW double counting   =      8141.38806575    -8271.61346273
  entropy T*S    EENTRO =        -0.00000000
  eigenvalues    EBANDS =     -2851.81967479
  atomic energy  EATOM  =     12703.13999606
  Solvation  Ediel_sol  =         0.00000000
  ---------------------------------------------------
  free energy    TOTEN  =      -162.99424405 eV

  energy without entropy =     -162.99424405  energy(sigma->0) =     -162.99424405


--------------------------------------------------------------------------------------------------------




--------------------------------------- Iteration      1(   6)  ---------------------------------------


    EDDIAG:  cpu time      0.3883: real time      0.3936
  RMM-DIIS:  cpu time      0.8393: real time      0.8469
    ORTHCH:  cpu time      0.0667: real time      0.0670
       DOS:  cpu time      0.0005: real time      0.0005
    --------------------------------------------
      LOOP:  cpu time      1.2947: real time      1.3081

 eigenvalue-minimisations  :  1408
 total energy-change (2. order) :-0.3700007E+02  (-0.3527211E+02)
 number of electron     240.0000000 magnetization      52.0000000
 augmentation part      240.0000000 magnetization      52.0000000

 Free energy of the ion-electron system (eV)
  ---------------------------------------------------
  alpha Z        PSCENC =       269.60862712
  Ewald energy   TEWEN  =     -8279.24382039
  -Hartree energ DENC   =     -2404.04273171
  -exchange      EXHF   =         0.00000000
  -V(xc)+E(xc)   XCENC  =       529.58875664
  PAW double counting   =      8141.38806575    -8271.61346273
  entropy T*S    EENTRO =        -0.00000000
  eigenvalues    EBANDS =     -2888.81974519
  atomic energy  EATOM  =     12703.13999606
  Solvation  Ediel_sol  =         0.00000000
  ---------------------------------------------------
  free energy    TOTEN  =      -199.99431445 eV

  energy without entropy =     -199.99431445  energy(sigma->0) =     -199.99431445


--------------------------------------------------------------------------------------------------------




--------------------------------------- Iteration      1(   7)  ---------------------------------------


    EDDIAG:  cpu time      0.3849: real time      0.3885
  RMM-DIIS:  cpu time      0.8398: real time      0.8475
    ORTHCH:  cpu time      0.0662: real time      0.0666
       DOS:  cpu time      0.0005: real time      0.0005
    --------------------------------------------
      LOOP:  cpu time      1.2914: real time      1.3031

 eigenvalue-minimisations  :  1408
 total energy-change (2. order) :-0.1856079E+02  (-0.1782234E+02)
 number of electron     240.0000000 magnetization      52.0000000
 augmentation part      240.0000000 magnetization      52.0000000

 Free energy of the ion-electron system (eV)
  ---------------------------------------------------
  alpha Z        PSCENC =       269.60862712
  Ewald energy   TEWEN  =     -8279.24382039
  -Hartree energ DENC   =     -2404.04273171
  -exchange      EXHF   =         0.00000000
  -V(xc)+E(xc)   XCENC  =       529.58875664
  PAW double counting   =      8141.38806575    -8271.61346273
  entropy T*S    EENTRO =        -0.00000000
  eigenvalues    EBANDS =     -2907.38053652
  atomic energy  EATOM  =     12703.13999606
  Solvation  Ediel_sol  =         0.00000000
  ---------------------------------------------------
  free energy    TOTEN  =      -218.55510578 eV

  energy without entropy =     -218.55510578  energy(sigma->0) =     -218.55510578


--------------------------------------------------------------------------------------------------------




--------------------------------------- Iteration      1(   8)  ---------------------------------------


    EDDIAG:  cpu time      0.3856: real time      0.3889
  RMM-DIIS:  cpu time      1.9825: real time      2.0038
    ORTHCH:  cpu time      0.0658: real time      0.0681
       DOS:  cpu time      0.0005: real time      0.0005
    --------------------------------------------
      LOOP:  cpu time      2.4345: real time      2.4612

 eigenvalue-minimisations  :  3583
 total energy-change (2. order) :-0.1895340E+02  (-0.1863123E+02)
 number of electron     240.0000000 magnetization      52.0000000
 augmentation part      240.0000000 magnetization      52.0000000

 Free energy of the ion-electron system (eV)
  ---------------------------------------------------
  alpha Z        PSCENC =       269.60862712
  Ewald energy   TEWEN  =     -8279.24382039
  -Hartree energ DENC   =     -2404.04273171
  -exchange      EXHF   =         0.00000000
  -V(xc)+E(xc)   XCENC  =       529.58875664
  PAW double counting   =      8141.38806575    -8271.61346273
  entropy T*S    EENTRO =        -0.00000000
  eigenvalues    EBANDS =     -2926.33393909
  atomic energy  EATOM  =     12703.13999606
  Solvation  Ediel_sol  =         0.00000000
  ---------------------------------------------------
  free energy    TOTEN  =      -237.50850835 eV

  energy without entropy =     -237.50850835  energy(sigma->0) =     -237.50850835


--------------------------------------------------------------------------------------------------------




--------------------------------------- Iteration      1(   9)  ---------------------------------------


    EDDIAG:  cpu time      0.3846: real time      0.3876
  RMM-DIIS:  cpu time      2.3300: real time      2.3653
    ORTHCH:  cpu time      0.0680: real time      0.0684
       DOS:  cpu time      0.0005: real time      0.0005
    --------------------------------------------
      LOOP:  cpu time      2.7831: real time      2.8217

 eigenvalue-minimisations  :  3969
 total energy-change (2. order) :-0.2440294E+01  (-0.2539533E+01)
 number of electron     240.0000000 magnetization      52.0000000
 augmentation part      240.0000000 magnetization      52.0000000

 Free energy of the ion-electron system (eV)
  ---------------------------------------------------
  alpha Z        PSCENC =       269.60862712
  Ewald energy   TEWEN  =     -8279.24382039
  -Hartree energ DENC   =     -2404.04273171
  -exchange      EXHF   =         0.00000000
  -V(xc)+E(xc)   XCENC  =       529.58875664
  PAW double counting   =      8141.38806575    -8271.61346273
  entropy T*S    EENTRO =        -0.00000000
  eigenvalues    EBANDS =     -2928.77423261
  atomic energy  EATOM  =     12703.13999606
  Solvation  Ediel_sol  =         0.00000000
  ---------------------------------------------------
  free energy    TOTEN  =      -239.94880187 eV

  energy without entropy =     -239.94880187  energy(sigma->0) =     -239.94880187


--------------------------------------------------------------------------------------------------------




--------------------------------------- Iteration      1(  10)  ---------------------------------------


    EDDIAG:  cpu time      0.3847: real time      0.3877
  RMM-DIIS:  cpu time      2.4942: real time      2.5173
    ORTHCH:  cpu time      0.0665: real time      0.0669
       DOS:  cpu time      0.0005: real time      0.0005
    CHARGE:  cpu time      0.0792: real time      0.0855
    MIXING:  cpu time      0.0021: real time      0.0030
    --------------------------------------------
      LOOP:  cpu time      3.0272: real time      3.0608

 eigenvalue-minimisations  :  4496
 total energy-change (2. order) :-0.2800442E+00  (-0.2462064E+00)
 number of electron     240.0000129 magnetization      28.5276547
 augmentation part        1.5596911 magnetization      28.9566528

 Broyden mixing:
  rms(total) = 0.65535E+01    rms(broyden)= 0.65532E+01
  rms(prec ) = 0.67954E+01
  weight for this iteration     100.00

 Free energy of the ion-electron system (eV)
  ---------------------------------------------------
  alpha Z        PSCENC =       269.60862712
  Ewald energy   TEWEN  =     -8279.24382039
  -Hartree energ DENC   =     -2404.04273171
  -exchange      EXHF   =         0.00000000
  -V(xc)+E(xc)   XCENC  =       529.58875664
  PAW double counting   =      8141.38806575    -8271.61346273
  entropy T*S    EENTRO =        -0.00000000
  eigenvalues    EBANDS =     -2929.05427682
  atomic energy  EATOM  =     12703.13999606
  Solvation  Ediel_sol  =         0.00000000
  ---------------------------------------------------
  free energy    TOTEN  =      -240.22884608 eV

  energy without entropy =     -240.22884608  energy(sigma->0) =     -240.22884608


--------------------------------------------------------------------------------------------------------




--------------------------------------- Iteration      1(  11)  ---------------------------------------


    POTLOK:  cpu time      0.0733: real time      0.0773
    SETDIJ:  cpu time      0.4077: real time      0.4102
    EDDIAG:  cpu time      0.3862: real time      0.3884
  RMM-DIIS:  cpu time      1.9760: real time      1.9943
    ORTHCH:  cpu time      0.0665: real time      0.0676
       DOS:  cpu time      0.0005: real time      0.0005
    CHARGE:  cpu time      0.0773: real time      0.0800
    MIXING:  cpu time      0.0014: real time      0.0029
    --------------------------------------------
      LOOP:  cpu time      2.9888: real time      3.0212

 eigenvalue-minimisations  :  3554
 total energy-change (2. order) : 0.1739600E+02  (-0.7287317E+01)
 number of electron     240.0000129 magnetization      17.5311364
 augmentation part        1.7198267 magnetization      17.8061574

 Broyden mixing:
  rms(total) = 0.33015E+01    rms(broyden)= 0.33013E+01
  rms(prec ) = 0.34228E+01
  weight for this iteration     100.00

 eigenvalues of (default mixing * dielectric matrix)
  average eigenvalue GAMMA=   0.7278
  0.7278

 Free energy of the ion-electron system (eV)
  ---------------------------------------------------
  alpha Z        PSCENC =       269.60862712
  Ewald energy   TEWEN  =     -8279.24382039
  -Hartree energ DENC   =     -2464.56227852
  -exchange      EXHF   =         0.00000000
  -V(xc)+E(xc)   XCENC  =       542.40529214
  PAW double counting   =      8977.25596244    -9114.05113590
  entropy T*S    EENTRO =        -0.00000000
  eigenvalues    EBANDS =     -2857.38549053
  atomic energy  EATOM  =     12703.13999606
  Solvation  Ediel_sol  =         0.00000000
  ---------------------------------------------------
  free energy    TOTEN  =      -222.83284758 eV

  energy without entropy =     -222.83284758  energy(sigma->0) =     -222.83284758


--------------------------------------------------------------------------------------------------------




--------------------------------------- Iteration      1(  12)  ---------------------------------------


    POTLOK:  cpu time      0.0686: real time      0.0699
    SETDIJ:  cpu time      0.4074: real time      0.4094
    EDDIAG:  cpu time      0.3874: real time      0.3899
  RMM-DIIS:  cpu time      1.9913: real time      2.0247
    ORTHCH:  cpu time      0.0681: real time      0.0691
       DOS:  cpu time      0.0005: real time      0.0005
    CHARGE:  cpu time      0.0762: real time      0.0807
    MIXING:  cpu time      0.0013: real time      0.0013
    --------------------------------------------
      LOOP:  cpu time      3.0008: real time      3.0454

 eigenvalue-minimisations  :  3437
 total energy-change (2. order) :-0.3097817E+02  (-0.4137144E+01)
 number of electron     240.0000129 magnetization       4.0989617
 augmentation part        1.9325686 magnetization       4.4479464

 Broyden mixing:
  rms(total) = 0.22448E+01    rms(broyden)= 0.22448E+01
  rms(prec ) = 0.22930E+01
  weight for this iteration     100.00

 eigenvalues of (default mixing * dielectric matrix)
  average eigenvalue GAMMA=   0.9497
  1.2517  0.6477

 Free energy of the ion-electron system (eV)
  ---------------------------------------------------
  alpha Z        PSCENC =       269.60862712
  Ewald energy   TEWEN  =     -8279.24382039
  -Hartree energ DENC   =     -2501.59612081
  -exchange      EXHF   =         0.00000000
  -V(xc)+E(xc)   XCENC  =       534.91544634
  PAW double counting   =      9372.40581721    -9513.13639039
  entropy T*S    EENTRO =        -0.00000000
  eigenvalues    EBANDS =     -2839.90456829
  atomic energy  EATOM  =     12703.13999606
  Solvation  Ediel_sol  =         0.00000000
  ---------------------------------------------------
  free energy    TOTEN  =      -253.81101315 eV

  energy without entropy =     -253.81101315  energy(sigma->0) =     -253.81101315


--------------------------------------------------------------------------------------------------------




--------------------------------------- Iteration      1(  13)  ---------------------------------------


    POTLOK:  cpu time      0.0680: real time      0.0694
    SETDIJ:  cpu time      0.4074: real time      0.4094
    EDDIAG:  cpu time      0.3853: real time      0.3878
  RMM-DIIS:  cpu time      1.6461: real time      1.6615
    ORTHCH:  cpu time      0.0681: real time      0.0690
       DOS:  cpu time      0.0006: real time      0.0006
    CHARGE:  cpu time      0.0767: real time      0.0801
    MIXING:  cpu time      0.0013: real time      0.0013
    --------------------------------------------
      LOOP:  cpu time      2.6535: real time      2.6791

 eigenvalue-minimisations  :  2954
 total energy-change (2. order) :-0.1972178E+01  (-0.6303008E+00)
 number of electron     240.0000129 magnetization      -1.9296602
 augmentation part        1.9823633 magnetization      -1.7917252

 Broyden mixing:
  rms(total) = 0.96300E+00    rms(broyden)= 0.96300E+00
  rms(prec ) = 0.99059E+00
  weight for this iteration     100.00

 eigenvalues of (default mixing * dielectric matrix)
  average eigenvalue GAMMA=   1.3306
  2.6188  0.7294  0.6437

 Free energy of the ion-electron system (eV)
  ---------------------------------------------------
  alpha Z        PSCENC =       269.60862712
  Ewald energy   TEWEN  =     -8279.24382039
  -Hartree energ DENC   =     -2525.39160370
  -exchange      EXHF   =         0.00000000
  -V(xc)+E(xc)   XCENC  =       535.07283566
  PAW double counting   =      9766.03845230    -9910.18392901
  entropy T*S    EENTRO =        -0.00000000
  eigenvalues    EBANDS =     -2814.82374942
  atomic energy  EATOM  =     12703.13999606
  Solvation  Ediel_sol  =         0.00000000
  ---------------------------------------------------
  free energy    TOTEN  =      -255.78319139 eV

  energy without entropy =     -255.78319139  energy(sigma->0) =     -255.78319139


--------------------------------------------------------------------------------------------------------




--------------------------------------- Iteration      1(  14)  ---------------------------------------


    POTLOK:  cpu time      0.0702: real time      0.0715
    SETDIJ:  cpu time      0.4074: real time      0.4092
    EDDIAG:  cpu time      0.3854: real time      0.3886
  RMM-DIIS:  cpu time      1.8897: real time      1.9066
    ORTHCH:  cpu time      0.0660: real time      0.0672
       DOS:  cpu time      0.0005: real time      0.0005
    CHARGE:  cpu time      0.0762: real time      0.0789
    MIXING:  cpu time      0.0014: real time      0.0014
    --------------------------------------------
      LOOP:  cpu time      2.8968: real time      2.9240

 eigenvalue-minimisations  :  3419
 total energy-change (2. order) :-0.3179838E+00  (-0.2432124E+00)
 number of electron     240.0000129 magnetization      -1.1474259
 augmentation part        1.9554320 magnetization      -1.1187625

 Broyden mixing:
  rms(total) = 0.32378E+00    rms(broyden)= 0.32378E+00
  rms(prec ) = 0.35240E+00
  weight for this iteration     100.00

 eigenvalues of (default mixing * dielectric matrix)
  average eigenvalue GAMMA=   1.2803
  2.7131  1.1063  0.6947  0.6071

 Free energy of the ion-electron system (eV)
  ---------------------------------------------------
  alpha Z        PSCENC =       269.60862712
  Ewald energy   TEWEN  =     -8279.24382039
  -Hartree energ DENC   =     -2534.64399636
  -exchange      EXHF   =         0.00000000
  -V(xc)+E(xc)   XCENC  =       536.31054786
  PAW double counting   =      9934.90095687   -10080.57555865
  entropy T*S    EENTRO =        -0.00000000
  eigenvalues    EBANDS =     -2805.59792771
  atomic energy  EATOM  =     12703.13999606
  Solvation  Ediel_sol  =         0.00000000
  ---------------------------------------------------
  free energy    TOTEN  =      -256.10117520 eV

  energy without entropy =     -256.10117520  energy(sigma->0) =     -256.10117520


--------------------------------------------------------------------------------------------------------




--------------------------------------- Iteration      1(  15)  ---------------------------------------


    POTLOK:  cpu time      0.0673: real time      0.0684
    SETDIJ:  cpu time      0.4057: real time      0.4076
    EDDIAG:  cpu time      0.3847: real time      0.3870
  RMM-DIIS:  cpu time      1.8856: real time      1.9033
    ORTHCH:  cpu time      0.0673: real time      0.0677
       DOS:  cpu time      0.0005: real time      0.0005
    CHARGE:  cpu time      0.0759: real time      0.0783
    MIXING:  cpu time      0.0015: real time      0.0015
    --------------------------------------------
      LOOP:  cpu time      2.8886: real time      2.9142

 eigenvalue-minimisations  :  3385
 total energy-change (2. order) : 0.7224166E-03  (-0.4612645E-01)
 number of electron     240.0000129 magnetization      -0.2927849
 augmentation part        1.8979024 magnetization      -0.2706223

 Broyden mixing:
  rms(total) = 0.71925E-01    rms(broyden)= 0.71923E-01
  rms(prec ) = 0.86780E-01
  weight for this iteration     100.00

 eigenvalues of (default mixing * dielectric matrix)
  average eigenvalue GAMMA=   1.2960
  2.5740  1.6906  0.9065  0.6904  0.6185

 Free energy of the ion-electron system (eV)
  ---------------------------------------------------
  alpha Z        PSCENC =       269.60862712
  Ewald energy   TEWEN  =     -8279.24382039
  -Hartree energ DENC   =     -2530.40286422
  -exchange      EXHF   =         0.00000000
  -V(xc)+E(xc)   XCENC  =       535.90331600
  PAW double counting   =      9895.97172924   -10041.29181872
  entropy T*S    EENTRO =        -0.00000000
  eigenvalues    EBANDS =     -2809.78561787
  atomic energy  EATOM  =     12703.13999606
  Solvation  Ediel_sol  =         0.00000000
  ---------------------------------------------------
  free energy    TOTEN  =      -256.10045278 eV

  energy without entropy =     -256.10045278  energy(sigma->0) =     -256.10045278


--------------------------------------------------------------------------------------------------------




--------------------------------------- Iteration      1(  16)  ---------------------------------------


    POTLOK:  cpu time      0.0677: real time      0.0687
    SETDIJ:  cpu time      0.4088: real time      0.4099
    EDDIAG:  cpu time      0.4009: real time      0.4086
  RMM-DIIS:  cpu time      1.8531: real time      1.8700
    ORTHCH:  cpu time      0.0721: real time      0.0776
       DOS:  cpu time      0.0014: real time      0.0014
    CHARGE:  cpu time      0.0775: real time      0.0803
    MIXING:  cpu time      0.0016: real time      0.0016
    --------------------------------------------
      LOOP:  cpu time      2.8829: real time      2.9180

[...]
  0.000   0.000   0.000   0.003  -0.002   0.000   0.000  -0.000  -0.000   0.000   0.000   0.000  -0.000  -0.000
  0.000   0.000   0.000  -0.002   0.003   0.000  -0.000   0.000   0.000  -0.000   0.000  -0.000   0.000  -0.000
 -0.002   0.002   0.000   0.000   0.000   0.007  -0.000   0.000   0.000  -0.000  -0.000   0.000  -0.000  -0.000
  0.000  -0.000  -0.000   0.006  -0.007  -0.000   0.000  -0.000  -0.000   0.000   0.000   0.000  -0.000   0.000
 -0.034   0.034   0.000   0.000   0.000  -0.006   0.000   0.000  -0.000   0.000   0.000  -0.000   0.000   0.000
 -0.019   0.019   0.000   0.000  -0.000   0.006   0.000  -0.000   0.000   0.000  -0.000   0.000  -0.000  -0.000
  0.000  -0.000  -0.000  -0.007   0.006  -0.000  -0.000   0.000  -0.000  -0.000   0.000  -0.000   0.000   0.000
  0.033  -0.033  -0.000  -0.000  -0.000  -0.011  -0.000  -0.000  -0.000   0.000   0.000  -0.000   0.000   0.000
 total augmentation occupancy for first ion, spin component:           2
  0.000  -0.000   0.000   0.000   0.000   0.000  -0.000  -0.000  -0.000   0.000  -0.000  -0.000   0.000  -0.000
 -0.000   0.000  -0.000  -0.000  -0.000  -0.000   0.000   0.000   0.000  -0.000   0.000   0.000  -0.000   0.000
  0.000  -0.000  -0.000   0.000  -0.000  -0.000   0.000   0.000  -0.000   0.000   0.000  -0.000  -0.000   0.000
  0.000  -0.000   0.000   0.000  -0.000   0.000   0.000   0.000  -0.000   0.000   0.000  -0.000  -0.000  -0.000
  0.000  -0.000  -0.000  -0.000   0.000  -0.000  -0.000  -0.000  -0.000  -0.000  -0.000   0.000   0.000   0.000
  0.000  -0.000  -0.000   0.000  -0.000   0.000  -0.000   0.000   0.000   0.000  -0.000   0.000   0.000   0.000
 -0.000   0.000   0.000   0.000  -0.000  -0.000   0.000  -0.000  -0.000   0.000   0.000   0.000  -0.000  -0.000
 -0.000   0.000   0.000   0.000  -0.000   0.000  -0.000  -0.000  -0.000   0.000   0.000   0.000  -0.000  -0.000
 -0.000   0.000  -0.000  -0.000  -0.000   0.000  -0.000  -0.000  -0.000   0.000   0.000   0.000  -0.000  -0.000
  0.000  -0.000   0.000   0.000  -0.000   0.000   0.000   0.000   0.000   0.000  -0.000  -0.000  -0.000   0.000
 -0.000   0.000   0.000   0.000  -0.000  -0.000   0.000   0.000   0.000  -0.000   0.000   0.000  -0.000   0.000
 -0.000   0.000  -0.000  -0.000   0.000   0.000   0.000   0.000   0.000  -0.000   0.000   0.000   0.000   0.000
  0.000  -0.000  -0.000  -0.000   0.000   0.000  -0.000  -0.000  -0.000  -0.000  -0.000   0.000   0.000   0.000
 -0.000   0.000   0.000  -0.000   0.000   0.000  -0.000  -0.000  -0.000   0.000   0.000   0.000   0.000  -0.000


------------------------ aborting loop because EDIFF is reached ----------------------------------------


    CHARGE:  cpu time      0.0772: real time      0.0776
    FORLOC:  cpu time      0.0052: real time      0.0052
    FORNL :  cpu time      0.4591: real time      0.4626
    STRESS:  cpu time      1.3803: real time      1.3929
    FORCOR:  cpu time      0.0652: real time      0.0656
    FORHAR:  cpu time      0.0111: real time      0.0111
    MIXING:  cpu time      0.0010: real time      0.0010
    OFIELD:  cpu time      0.0000: real time      0.0000

 ---------------------------------------------------------------------------------------------

         DFTD3 V3.0 Rev 1        
 Edisp (eV)  -12.09893

 E6    (eV) :    -7.4503
 E8    (eV) :    -4.6486
 % E8        : 38.42
    FORVDW:  cpu time      0.2836: real time      0.2855

  FORCE on cell =-STRESS in cart. coord.  units (eV):
  Direction    XX          YY          ZZ          XY          YZ          ZX
  --------------------------------------------------------------------------------------
  Alpha Z   269.60863   269.60863   269.60863
  Ewald   -2759.80127 -2759.63075 -2759.82255     0.02059     0.17439     0.15400
  Hartree   843.84318   843.93304   843.82555     0.12726     0.10834     0.18683
  E(xc)    -946.89816  -946.89807  -946.89806    -0.00061    -0.00032    -0.00022
  Local   -1759.77161 -1760.04417 -1759.72672    -0.17152    -0.29480    -0.36234
  n-local  1481.15363  1481.16221  1481.14907     0.00525     0.01328     0.00457
  augment  -356.06281  -356.06553  -356.06186    -0.00041    -0.00222    -0.00091
  Kinetic  3240.61990  3240.64706  3240.60831     0.00462     0.01791     0.01217
  Fock        0.00000     0.00000     0.00000     0.00000     0.00000     0.00000
  vdW       -12.85166   -12.85160   -12.85164     0.00031     0.00004     0.00017
  -------------------------------------------------------------------------------------
  Total      -0.16018    -0.13918    -0.16927    -0.01451     0.01663    -0.00573
  in kB      -0.25489    -0.22147    -0.26936    -0.02308     0.02646    -0.00912
  external pressure =       -0.25 kB  Pullay stress =        0.00 kB


 VOLUME and BASIS-vectors are now :
 -----------------------------------------------------------------------------
  energy-cutoff  :      520.00
  volume of cell :     1006.86
      direct lattice vectors                 reciprocal lattice vectors
    10.022806717  0.000000000  0.000000000     0.099772452  0.000000000  0.000000000
     0.000000000 10.022806717  0.000000000     0.000000000  0.099772452  0.000000000
     0.000000000  0.000000000 10.022806717     0.000000000  0.000000000  0.099772452

  length of vectors
    10.022806717 10.022806717 10.022806717     0.099772452  0.099772452  0.099772452


 FORCES acting on ions
    electron-ion (+dipol)            ewald-force                    non-local-force                 convergence-correction
 -----------------------------------------------------------------------------------------------
   -.674E+01 0.165E+00 0.133E+00   0.605E+01 -.159E+00 -.128E+00   0.686E+00 -.854E-02 -.749E-02   0.249E-03 0.100E-02 0.910E-03
   -.681E+01 -.170E+00 -.203E+00   0.611E+01 0.142E+00 0.174E+00   0.693E+00 0.201E-01 0.210E-01   -.641E-03 0.294E-02 0.323E-02
   0.678E+01 -.653E-01 -.288E-01   -.608E+01 0.682E-01 0.296E-01   -.690E+00 -.182E-02 -.217E-02   0.206E-03 -.309E-03 0.594E-03
   0.679E+01 -.623E-01 -.101E+00   -.609E+01 0.650E-01 0.981E-01   -.691E+00 -.266E-02 0.292E-02   0.123E-03 0.100E-03 0.224E-03
   0.171E-01 0.212E-01 -.684E+01   -.187E-01 -.209E-01 0.614E+01   0.443E-03 -.817E-03 0.695E+00   0.340E-03 0.163E-03 -.783E-03
   -.821E-01 0.107E-01 0.673E+01   0.794E-01 -.121E-01 -.603E+01   0.242E-02 0.143E-02 -.691E+00   0.135E-03 -.302E-04 0.110E-03
   -.435E-01 -.439E-01 0.677E+01   0.415E-01 0.407E-01 -.607E+01   0.264E-02 0.192E-02 -.690E+00   -.213E-03 0.504E-03 0.183E-03
   0.177E+00 0.113E+00 -.677E+01   -.175E+00 -.113E+00 0.607E+01   -.236E-02 -.170E-03 0.685E+00   -.136E-03 -.309E-04 0.148E-03
   0.360E-01 -.681E+01 -.145E-02   -.337E-01 0.611E+01 -.106E-02   -.207E-02 0.691E+00 0.272E-02   -.100E-03 0.644E-04 -.113E-03
   -.632E-01 0.676E+01 0.491E-01   0.651E-01 -.606E+01 -.520E-01   -.170E-02 -.692E+00 0.238E-02   -.169E-03 -.465E-04 0.156E-03
   0.222E+00 -.684E+01 0.136E+00   -.216E+00 0.614E+01 -.136E+00   -.499E-02 0.690E+00 0.362E-03   -.579E-03 0.422E-03 -.485E-03
   -.669E-01 0.677E+01 -.716E-02   0.647E-01 -.607E+01 0.602E-02   0.274E-02 -.690E+00 -.259E-03   -.207E-03 0.101E-03 0.524E-03
   0.114E+00 0.886E-01 -.685E+01   -.109E+00 -.817E-01 0.616E+01   -.428E-02 -.670E-02 0.690E+00   -.135E-03 -.932E-04 -.471E-04
   -.455E-01 0.177E-01 0.670E+01   0.458E-01 -.153E-01 -.601E+01   -.388E-03 -.284E-02 -.684E+00   -.433E-05 0.221E-03 -.511E-03
   -.129E+00 0.141E+00 0.677E+01   0.128E+00 -.133E+00 -.607E+01   -.608E-03 -.758E-02 -.693E+00   0.761E-03 -.278E-03 0.273E-03
   0.712E-01 0.482E-01 -.681E+01   -.704E-01 -.446E-01 0.611E+01   -.939E-03 -.327E-02 0.688E+00   -.506E-04 -.191E-03 -.160E-03
   0.563E-01 -.683E+01 0.995E-01   -.594E-01 0.613E+01 -.948E-01   0.290E-02 0.690E+00 -.498E-02   0.512E-04 0.223E-03 0.165E-03
   -.547E-01 0.679E+01 -.700E-02   0.519E-01 -.609E+01 0.639E-02   0.246E-02 -.691E+00 0.416E-03   0.824E-04 0.265E-04 0.839E-04
   0.532E-01 -.680E+01 0.411E-01   -.553E-01 0.611E+01 -.376E-01   0.192E-02 0.689E+00 -.380E-02   -.175E-04 0.243E-03 -.173E-04
   -.190E+00 0.674E+01 0.188E+00   0.184E+00 -.605E+01 -.178E+00   0.280E-02 -.690E+00 -.722E-02   0.158E-02 0.196E-03 -.112E-02
   -.681E+01 -.694E-01 0.134E-01   0.612E+01 0.642E-01 -.142E-01   0.691E+00 0.466E-02 -.149E-03   -.346E-04 0.231E-03 0.348E-03
   -.680E+01 -.762E-03 -.194E-01   0.610E+01 -.181E-03 0.211E-01   0.689E+00 0.123E-02 -.202E-02   -.659E-04 -.159E-03 0.928E-04
   0.681E+01 -.124E-01 0.137E-02   -.611E+01 0.943E-02 -.114E-02   -.693E+00 0.285E-02 0.376E-04   0.334E-03 -.432E-04 -.205E-03
   0.673E+01 0.265E-01 0.376E-01   -.604E+01 -.279E-01 -.378E-01   -.685E+00 0.267E-03 0.116E-02   -.375E-03 0.370E-03 -.404E-03
   -.789E-01 -.375E-01 -.696E-01   0.757E-01 0.355E-01 0.698E-01   0.469E-02 0.128E-02 0.193E-02   -.344E-03 0.288E-04 -.249E-03
   -.901E-02 -.605E-01 -.604E-01   0.828E-02 0.539E-01 0.582E-01   0.173E-02 0.609E-02 0.421E-02   -.382E-03 0.402E-04 -.391E-03
   -.764E-02 0.710E-01 0.123E+00   0.525E-02 -.715E-01 -.121E+00   0.352E-02 -.104E-03 0.211E-03   -.315E-03 -.321E-03 -.498E-03
   0.386E-03 0.843E-01 0.808E-01   0.257E-02 -.807E-01 -.830E-01   -.210E-02 -.434E-02 0.423E-02   -.153E-03 -.208E-03 -.606E-03
   -.452E+02 0.453E+02 -.446E+02   0.485E+02 -.486E+02 0.479E+02   -.331E+01 0.330E+01 -.328E+01   0.182E-03 -.560E-03 -.457E-03
   -.450E+02 -.450E+02 0.452E+02   0.483E+02 0.483E+02 -.485E+02   -.329E+01 -.330E+01 0.329E+01   -.125E-03 -.442E-03 -.596E-03
   0.450E+02 0.450E+02 0.451E+02   -.483E+02 -.483E+02 -.484E+02   0.329E+01 0.329E+01 0.330E+01   0.401E-03 0.301E-03 -.204E-03
   0.451E+02 -.451E+02 -.449E+02   -.484E+02 0.484E+02 0.482E+02   0.330E+01 -.330E+01 -.329E+01   -.783E-04 0.251E-03 -.133E-03
   0.452E+02 -.450E+02 -.450E+02   -.485E+02 0.483E+02 0.483E+02   0.330E+01 -.330E+01 -.329E+01   -.252E-03 0.648E-04 -.169E-03
   0.451E+02 0.450E+02 0.451E+02   -.484E+02 -.483E+02 -.484E+02   0.330E+01 0.329E+01 0.329E+01   0.214E-03 0.163E-03 0.161E-03
   -.450E+02 -.447E+02 0.455E+02   0.483E+02 0.479E+02 -.488E+02   -.330E+01 -.329E+01 0.331E+01   -.120E-03 -.477E-03 -.455E-03
   -.449E+02 0.453E+02 -.449E+02   0.482E+02 -.485E+02 0.482E+02   -.329E+01 0.329E+01 -.331E+01   -.508E-04 -.748E-03 -.349E-03
   -.450E+02 -.451E+02 0.451E+02   0.483E+02 0.484E+02 -.484E+02   -.329E+01 -.329E+01 0.330E+01   -.510E-04 0.728E-05 0.170E-03
   -.451E+02 0.451E+02 -.450E+02   0.484E+02 -.484E+02 0.483E+02   -.330E+01 0.330E+01 -.329E+01   0.325E-03 -.239E-03 0.183E-03
   0.452E+02 -.449E+02 -.451E+02   -.485E+02 0.482E+02 0.484E+02   0.330E+01 -.329E+01 -.331E+01   -.361E-03 -.845E-04 -.169E-03
   0.449E+02 0.451E+02 0.451E+02   -.482E+02 -.484E+02 -.484E+02   0.328E+01 0.329E+01 0.330E+01   0.368E-03 0.210E-03 0.246E-03
   -.450E+02 -.451E+02 0.450E+02   0.483E+02 0.484E+02 -.483E+02   -.329E+01 -.330E+01 0.330E+01   -.112E-03 0.135E-03 0.722E-04
   -.450E+02 0.450E+02 -.452E+02   0.483E+02 -.483E+02 0.485E+02   -.329E+01 0.329E+01 -.330E+01   0.195E-03 -.687E-04 0.393E-03
   0.451E+02 -.451E+02 -.451E+02   -.483E+02 0.484E+02 0.484E+02   0.329E+01 -.330E+01 -.329E+01   -.151E-03 0.516E-04 0.407E-04
   0.450E+02 0.451E+02 0.449E+02   -.483E+02 -.484E+02 -.482E+02   0.330E+01 0.329E+01 0.328E+01   0.273E-03 0.192E-03 0.238E-03
   0.830E-01 0.394E+00 0.328E+00   -.774E-01 -.400E+00 -.336E+00   -.642E-02 0.730E-02 0.935E-02   -.294E-03 -.577E-03 -.937E-04
   -.766E-02 0.137E+00 0.135E+00   0.238E-02 -.138E+00 -.135E+00   0.567E-02 0.113E-02 0.821E-03   0.321E-03 -.432E-03 -.462E-03
   0.150E-01 -.143E+00 0.156E-01   -.169E-01 0.144E+00 -.204E-01   0.225E-02 -.120E-02 0.517E-02   -.202E-04 0.308E-03 0.387E-04
   0.102E-01 -.344E-01 0.506E-01   -.126E-01 0.328E-01 -.438E-01   0.276E-02 0.159E-02 -.816E-02   -.363E-04 0.949E-04 -.116E-03
   0.772E-02 -.691E+00 -.101E+01   -.895E-02 0.713E+00 0.105E+01   0.141E-02 -.264E-01 -.419E-01   0.413E-05 0.798E-03 0.120E-02
   -.272E-01 -.440E+00 -.813E+00   0.319E-01 0.449E+00 0.836E+00   -.576E-02 -.104E-01 -.275E-01   0.154E-03 0.310E-03 0.631E-03
   0.445E-01 0.215E-01 -.140E+00   -.507E-01 -.237E-01 0.145E+00   0.717E-02 0.253E-02 -.598E-02   -.101E-03 -.471E-04 0.759E-04
   -.366E+00 -.204E+00 0.206E+00   0.377E+00 0.215E+00 -.212E+00   -.133E-01 -.133E-01 0.755E-02   0.191E-03 0.162E-03 -.128E-03
 -----------------------------------------------------------------------------------------------
   -.150E-01 0.124E-01 0.174E-01   -.940E-13 0.251E-13 0.320E-13   0.105E-02 -.406E-01 -.438E-01   0.818E-03 0.454E-02 0.157E-02
 
 
 POSITION                                       TOTAL-FORCE (eV/Angst)
 -----------------------------------------------------------------------------------
      9.78757      2.50770      2.50768         0.000025     -0.001252     -0.001269
      9.79314      7.53353      7.53056         0.001029     -0.004768     -0.005053
      0.23216      2.50383      7.51970        -0.000048      0.001223     -0.000352
      0.23184      7.51497      2.50618         0.000104      0.000644      0.000113
      2.50645      2.50679      9.79346        -0.000629     -0.000001      0.001366
      2.50681      7.51590      0.23173         0.000138      0.000440      0.000499
      7.51462      2.50717      0.23188         0.000745     -0.000389      0.000333
      7.51775      7.51776      9.78774        -0.000038      0.000173      0.000528
      2.50564      9.78920      2.50843         0.000385      0.000472      0.000462
      2.50575      0.23268      7.51994         0.000376      0.000547      0.000064
      7.51596      9.79032      7.51524         0.000589      0.000016      0.000881
      7.51497      0.23243      2.50629         0.000677      0.000346     -0.000497
      2.50490      7.51435      4.77803         0.000205      0.000584      0.000537
      2.50431      2.50575      5.24678         0.000168      0.000164      0.001076
      7.52094      7.51492      5.24157        -0.000831      0.000797      0.000183
      7.51549      2.50485      4.77827         0.000153      0.000573      0.000724
      2.50741      4.77838      7.51845         0.000019      0.000353      0.000230
      2.50474      5.24349      2.50716        -0.000057      0.000363      0.000310
      7.51639      4.77819      2.50472         0.000019      0.000260      0.000157
      7.52369      5.24462      7.51167        -0.001822      0.000271      0.001890
      4.77835      2.50800      7.51993         0.000214      0.000089     -0.000162
      4.77807      7.51648      2.50460         0.000302      0.000562      0.000230
      5.24152      2.50608      2.50649         0.000039      0.000302      0.000538
      5.24675      7.51804      7.51526         0.000725     -0.000288      0.001012
      5.01145      5.01153      5.01196         0.001454     -0.000176      0.002284
      5.01197     10.02182      0.00010         0.000855      0.000095      0.002125
     10.02232      5.01166     -0.00007         0.001146     -0.000346      0.001983
      0.00066      0.00117      5.01067         0.000919     -0.000514      0.002060
      1.18621      8.84056      6.19314        -0.001062     -0.000081     -0.000204
      1.18360      1.18603      3.82670         0.000038     -0.000577      0.000393
      8.84009      8.84054      3.82619        -0.000948     -0.001095     -0.000806
      8.83917      1.18420      6.19482         0.000574      0.000197     -0.000012
      8.83754      6.19586      1.18249         0.000717     -0.000073      0.000164
      8.83851      3.82762      8.83915        -0.000962     -0.001131     -0.000648
      1.18395      6.19432      8.83841        -0.000190      0.000324      0.000036
      1.18188      3.82787      1.18522        -0.000109      0.000336     -0.001318
      6.19510      1.18326      8.83884         0.000264      0.000922      0.000273
      6.19641      8.83748      1.18323        -0.002101      0.002304     -0.001241
      3.82750      1.18125      1.18474        -0.000481      0.001134     -0.000052
      3.82942      8.83760      8.83847        -0.001690     -0.001001     -0.000991
      6.19459      6.19474      3.82686         0.000422      0.000702      0.000835
      6.19557      3.82788      6.19599        -0.001065      0.001534     -0.000824
      3.82836      6.19585      6.19619         0.000029      0.000089      0.000050
      3.82629      3.82753      3.83004        -0.000857     -0.001217     -0.001395
      7.51976      7.51730      7.51486        -0.000825      0.000610      0.000912
      7.51478      2.50508      2.50483         0.000933      0.000560      0.000538
      2.50495      7.51650      2.50496         0.000525      0.000474      0.000791
      2.50527      2.50560      7.52001         0.000500      0.000466     -0.000967
      0.00046     10.01735     10.01417         0.000403     -0.003434     -0.005664
     10.02247      5.00809      5.00473        -0.000575     -0.001095     -0.003213
      5.01168     10.02264      5.01003         0.001080      0.000725     -0.000376
      5.00782      5.00901      0.00171        -0.001480     -0.001213      0.001469
 -----------------------------------------------------------------------------------
    total drift:                               -0.013129     -0.023697     -0.024844


--------------------------------------------------------------------------------------------------------



  FREE ENERGIE OF THE ION-ELECTRON SYSTEM (eV)
  ---------------------------------------------------
  free  energy   TOTEN  =      -268.23204733 eV

  energy  without entropy=     -268.23204733  energy(sigma->0) =     -268.23204733
 
 d Force = 0.3479918E-05[-0.417E-06, 0.738E-05]  d Energy = 0.7742945E-05-0.426E-05
 d Force =-0.1978206E-03[-0.200E-03,-0.196E-03]  d Ewald  =-0.1978206E-03-0.109E-10


--------------------------------------------------------------------------------------------------------


    POTLOK:  cpu time      0.4641: real time      0.4664


--------------------------------------------------------------------------------------------------------


 stress matrix after NEB project (eV)
     -0.16018     -0.01451     -0.00573
     -0.01451     -0.13918      0.01663
     -0.00573      0.01663     -0.16927
  FORCES: max atom, RMS     0.007023    0.001993
  FORCE total and by dimension    0.014373    0.005664
  Stress total and by dimension    0.273350    0.169272
 Quasi-Newton relaxation of ions (Broydens 2nd method)
  g(Force)  = 0.997E-05   g(Stress)= 0.000E+00

 retain information from N=  2 steps
 eigenvalues of (default step * inverse Hessian matrix)
  average eigenvalue of G=   0.6154
 eigenvalue spectrum of G is  0.6154  0.6154


--------------------------------------------------------------------------------------------------------


  
 reached required accuracy - stopping structural energy minimisation
     LOOP+:  cpu time      7.5935: real time      7.6778
    4ORBIT:  cpu time      0.0000: real time      0.0000

 total amount of memory used by VASP MPI-rank0    51664. kBytes
=======================================================================

   base      :      30000. kBytes
   nonlr-proj:       7918. kBytes
   fftplans  :       2173. kBytes
   grid      :       6510. kBytes
   one-center:         62. kBytes
   wavefun   :       5001. kBytes
 
  
  
 General timing and accounting informations for this job:
 ========================================================
  
                  Total CPU time used (sec):      107.420
                            User time (sec):      106.254
                          System time (sec):        1.166
                         Elapsed time (sec):      112.031
  
                   Maximum memory used (kb):      423288.
                   Average memory used (kb):          N/A
  
                          Minor page faults:        62188
                          Major page faults:          128
                 Voluntary context switches:         4647
