<?xml version="1.0" encoding="ISO-8859-1"?>
<modeling>
 <generator>
  <i name="program" type="string">vasp </i>
  <i name="version" type="string">6.4.1  </i>
  <i name="subversion" type="string">05Apr23 (build Jun 07 2023 15:38:11) complex                          parallel </i>
  <i name="platform" type="string">LinuxIFC </i>
  <i name="date" type="string">2023 10 30 </i>
  <i name="time" type="string">11:16:26 </i>
 </generator>
 <incar>
  <i type="string" name="PREC">Accu</i>
  <i type="string" name="ALGO">F</i>
  <i type="logical" name="LDIAG"> T  </i>
  <i type="int" name="ISPIN">     2</i>
  <i type="int" name="NELM">   100</i>
  <i type="int" name="NELMDL">   -10</i>
  <i type="int" name="IBRION">     2</i>
  <i name="EDIFF">      0.00000100</i>
  <i name="EDIFFG">     -0.00100000</i>
  <i type="int" name="NSW">  1000</i>
  <i type="int" name="ISIF">     2</i>
  <i name="ENCUT">    520.00000000</i>
  <i name="POTIM">      0.20000000</i>
  <i type="string" name="LREAL">Auto</i>
  <i type="logical" name="LPLANE"> T  </i>
  <i type="int" name="ISMEAR">     0</i>
  <i name="SIGMA">      0.03000000</i>
  <i type="int" name="LMAXMIX">     4</i>
  <i type="logical" name="LWAVE"> F  </i>
  <i type="logical" name="LCHARG"> F  </i>
  <i type="logical" name="LASPH"> T  </i>
  <i type="string" name="GGA">PE</i>
  <i type="int" name="IVDW">    12</i>
 </incar>
 <primitive_cell>
  <structure name="primitive_cell" >
   <crystal>
    <varray name="basis" >
     <v>       9.68058200       0.00000000       0.00000000 </v>
     <v>       0.00000000       9.68058200       0.00000000 </v>
     <v>       0.00000000       0.00000000       9.68058200 </v>
    </varray>
    <i name="volume">    907.20284691 </i>
    <varray name="rec_basis" >
     <v>       0.10329957       0.00000000       0.00000000 </v>
     <v>       0.00000000       0.10329957       0.00000000 </v>
     <v>       0.00000000       0.00000000       0.10329957 </v>
    </varray>
   </crystal>
   <varray name="positions" >
    <v>       0.95821061       0.16439341       0.18992078 </v>
    <v>       0.99049394       0.77855810       0.78822592 </v>
    <v>       0.02539007       0.20338017       0.82321517 </v>
    <v>       0.01831070       0.80719837       0.19732888 </v>
    <v>       0.29370221       0.27719683       0.98878383 </v>
    <v>       0.22371290       0.80350481       0.01690378 </v>
    <v>       0.68778744       0.31816815       0.02592126 </v>
    <v>       0.68138995       0.67020052       0.95335567 </v>
    <v>       0.30856943       0.96940240       0.35392387 </v>
    <v>       0.22501692       0.01940871       0.78140371 </v>
    <v>       0.79493552       0.97308855       0.82380522 </v>
    <v>       0.66962894       0.02169740       0.29525607 </v>
    <v>       0.17844019       0.67188467       0.46510303 </v>
    <v>       0.15412394       0.32749444       0.54393434 </v>
    <v>       0.81262244       0.71730482       0.51017947 </v>
    <v>       0.70900012       0.21941260       0.48740379 </v>
    <v>       0.34441902       0.47831079       0.79907938 </v>
    <v>       0.28107222       0.52394462       0.19685140 </v>
    <v>       0.83131019       0.46313936       0.30756982 </v>
    <v>       0.81520408       0.51683718       0.69102321 </v>
    <v>       0.46133084       0.18609046       0.67405197 </v>
    <v>       0.48205478       0.73141414       0.21941817 </v>
    <v>       0.50769562       0.29122304       0.23002987 </v>
    <v>       0.54594438       0.82810094       0.65737224 </v>
    <v>       0.49546136       0.50920973       0.50197925 </v>
    <v>       0.50616639       0.99871297       0.99514911 </v>
    <v>       0.00078328       0.49759048       0.00223895 </v>
    <v>       0.00066062       0.00992782       0.50023029 </v>
    <v>       0.12798948       0.87721741       0.60568223 </v>
    <v>       0.12025630       0.13612558       0.38141958 </v>
    <v>       0.87501009       0.90044212       0.36845960 </v>
    <v>       0.88308676       0.12332667       0.63419810 </v>
    <v>       0.87453005       0.62342578       0.11583706 </v>
    <v>       0.87318857       0.37999307       0.88075005 </v>
    <v>       0.13687441       0.60897695       0.88469512 </v>
    <v>       0.10618675       0.36541060       0.12966529 </v>
    <v>       0.61378363       0.13431646       0.87476420 </v>
    <v>       0.64204212       0.87488145       0.10101271 </v>
    <v>       0.37844168       0.09856739       0.13151233 </v>
    <v>       0.39855596       0.87088055       0.86482257 </v>
    <v>       0.62810534       0.61287906       0.37359557 </v>
    <v>       0.60709992       0.38798329       0.63577193 </v>
    <v>       0.37970046       0.64358653       0.61568087 </v>
    <v>       0.35885252       0.38835433       0.39382921 </v>
    <v>       0.75973438       0.74823351       0.74046433 </v>
    <v>       0.73981561       0.24778250       0.25104834 </v>
    <v>       0.24778099       0.75521696       0.24810535 </v>
    <v>       0.24783018       0.25513076       0.75714881 </v>
    <v>       0.02166830       0.98032078       0.96744439 </v>
    <v>       0.98107800       0.51736873       0.50169090 </v>
    <v>       0.51623661       0.01854776       0.49471379 </v>
    <v>       0.47871381       0.47423632       0.02802923 </v>
   </varray>
  </structure>
  <varray name="primitive_index" >
   <v type="int" >        1 </v>
   <v type="int" >        2 </v>
   <v type="int" >        3 </v>
   <v type="int" >        4 </v>
   <v type="int" >        5 </v>
   <v type="int" >        6 </v>
   <v type="int" >        7 </v>
   <v type="int" >        8 </v>
   <v type="int" >        9 </v>
   <v type="int" >       10 </v>
   <v type="int" >       11 </v>
   <v type="int" >       12 </v>
   <v type="int" >       13 </v>
   <v type="int" >       14 </v>
   <v type="int" >       15 </v>
   <v type="int" >       16 </v>
   <v type="int" >       17 </v>
   <v type="int" >       18 </v>
   <v type="int" >       19 </v>
   <v type="int" >       20 </v>
   <v type="int" >       21 </v>
   <v type="int" >       22 </v>
   <v type="int" >       23 </v>
   <v type="int" >       24 </v>
   <v type="int" >       25 </v>
   <v type="int" >       26 </v>
   <v type="int" >       27 </v>
   <v type="int" >       28 </v>
   <v type="int" >       29 </v>
   <v type="int" >       30 </v>
   <v type="int" >       31 </v>
   <v type="int" >       32 </v>
   <v type="int" >       33 </v>
   <v type="int" >       34 </v>
   <v type="int" >       35 </v>
   <v type="int" >       36 </v>
   <v type="int" >       37 </v>
   <v type="int" >       38 </v>
   <v type="int" >       39 </v>
   <v type="int" >       40 </v>
   <v type="int" >       41 </v>
   <v type="int" >       42 </v>
   <v type="int" >       43 </v>
   <v type="int" >       44 </v>
   <v type="int" >       45 </v>
   <v type="int" >       46 </v>
   <v type="int" >       47 </v>
   <v type="int" >       48 </v>
   <v type="int" >       49 </v>
   <v type="int" >       50 </v>
   <v type="int" >       51 </v>
   <v type="int" >       52 </v>
  </varray>
 </primitive_cell>
 <kpoints>
  <generation param="Monkhorst-Pack">
   <v type="int" name="divisions">       2        2        2 </v>
   <v name="usershift">      0.00000000       0.00000000       0.00000000 </v>
   <v name="genvec1">      0.50000000       0.00000000       0.00000000 </v>
   <v name="genvec2">      0.00000000       0.50000000       0.00000000 </v>
   <v name="genvec3">      0.00000000       0.00000000       0.50000000 </v>
   <v name="shift">      0.50000000       0.50000000       0.50000000 </v>
  </generation>
  <varray name="kpointlist" >
   <v>       0.25000000       0.25000000       0.25000000 </v>
   <v>      -0.25000000       0.25000000       0.25000000 </v>
   <v>      -0.25000000      -0.25000000       0.25000000 </v>
   <v>       0.25000000      -0.25000000       0.25000000 </v>
  </varray>
  <varray name="weights" >
   <v>       0.25000000 </v>
   <v>       0.25000000 </v>
   <v>       0.25000000 </v>
   <v>       0.25000000 </v>
  </varray>
 </kpoints>
 <parameters>
  <separator name="general" >
   <i type="string" name="SYSTEM">unknown system</i>
   <i type="logical" name="LCOMPAT"> F  </i>
  </separator>
  <separator name="electronic" >
   <i type="string" name="PREC">accu</i>
   <i name="ENMAX">    520.00000000</i>
   <i name="ENAUG">   1041.69900000</i>
   <i name="EDIFF">      0.00000100</i>
   <i type="int" name="IALGO">    68</i>
   <i type="int" name="IWAVPR">    11</i>
   <i type="int" name="NBANDS">   176</i>
   <i type="int" name="NBANDSLOW">    -1</i>
   <i type="int" name="NBANDSHIGH">    -1</i>
   <i name="NELECT">    240.00000000</i>
   <i type="int" name="TURBO">     0</i>
   <i type="int" name="IRESTART">     0</i>
   <i type="int" name="NREBOOT">     0</i>
   <i type="int" name="NMIN">     0</i>
   <i name="EREF">      0.00000000</i>
   <separator name="electronic smearing" >
    <i type="int" name="ISMEAR">     0</i>
    <i name="SIGMA">      0.03000000</i>
    <i name="KSPACING">      0.50000000</i>
    <i type="logical" name="KGAMMA"> T  </i>
    <i type="logical" name="KBLOWUP"> T  </i>
   </separator>
   <separator name="electronic projectors" >
    <i type="logical" name="LREAL"> T  </i>
    <v name="ROPT">     -0.00025000     -0.00025000     -0.00025000     -0.00025000</v>
    <i type="int" name="LMAXPAW">  -100</i>
    <i type="int" name="LMAXMIX">     4</i>
    <i type="logical" name="NLSPLINE"> F  </i>
   </separator>
   <separator name="electronic startup" >
    <i type="int" name="ISTART">     0</i>
    <i type="int" name="ICHARG">     2</i>
    <i type="int" name="INIWAV">     1</i>
   </separator>
   <separator name="electronic spin" >
    <i type="int" name="ISPIN">     2</i>
    <i type="logical" name="LNONCOLLINEAR"> F  </i>
    <v name="MAGMOM">      1.00000000      1.00000000      1.00000000      1.00000000      1.00000000      1.00000000      1.00000000      1.00000000      1.00000000      1.00000000      1.00000000      1.00000000      1.00000000      1.00000000      1.00000000      1.00000000      1.00000000      1.00000000      1.00000000      1.00000000
      1.00000000      1.00000000      1.00000000      1.00000000      1.00000000      1.00000000      1.00000000      1.00000000      1.00000000      1.00000000      1.00000000      1.00000000      1.00000000      1.00000000      1.00000000      1.00000000      1.00000000      1.00000000      1.00000000      1.00000000
      1.00000000      1.00000000      1.00000000      1.00000000      1.00000000      1.00000000      1.00000000      1.00000000      1.00000000      1.00000000      1.00000000      1.00000000</v>
    <i name="NUPDOWN">     -1.00000000</i>
    <i type="logical" name="LSORBIT"> F  </i>
    <v name="SAXIS">      0.00000000      0.00000000      1.00000000</v>
    <i type="logical" name="LSPIRAL"> F  </i>
    <v name="QSPIRAL">      0.00000000      0.00000000      0.00000000</v>
    <i type="logical" name="LZEROZ"> F  </i>
   </separator>
   <separator name="electronic exchange-correlation" >
    <i type="logical" name="LASPH"> T  </i>
    <i type="logical" name="LMETAGGA"> F  </i>
   </separator>
   <separator name="electronic convergence" >
    <i type="int" name="NELM">   100</i>
    <i type="int" name="NELMDL">   -10</i>
    <i type="int" name="NELMIN">     2</i>
    <i name="ENINI">    520.00000000</i>
    <separator name="electronic convergence detail" >
     <i type="logical" name="LDIAG"> T  </i>
     <i type="logical" name="LSUBROT"> F  </i>
     <i name="WEIMIN">      0.00100000</i>
     <i name="EBREAK">      0.00000000</i>
     <i name="DEPER">      0.30000000</i>
     <i type="int" name="NRMM">     4</i>
     <i name="TIME">      0.40000000</i>
    </separator>
   </separator>
   <separator name="electronic mixer" >
    <i name="AMIX">      0.40000000</i>
    <i name="BMIX">      1.00000000</i>
    <i name="AMIN">      0.10000000</i>
    <i name="AMIX_MAG">      1.60000000</i>
    <i name="BMIX_MAG">      1.00000000</i>
    <separator name="electronic mixer details" >
     <i type="int" name="IMIX">     4</i>
     <i type="logical" name="MIXFIRST"> F  </i>
     <i type="int" name="MAXMIX">   -45</i>
     <i name="WC">    100.00000000</i>
     <i type="int" name="INIMIX">     1</i>
     <i type="int" name="MIXPRE">     1</i>
     <i type="int" name="MREMOVE">     5</i>
    </separator>
   </separator>
   <separator name="electronic dipolcorrection" >
    <i type="logical" name="LDIPOL"> F  </i>
    <i type="logical" name="LMONO"> F  </i>
    <i type="int" name="IDIPOL">     0</i>
    <i name="EPSILON">      1.00000000</i>
    <v name="DIPOL">   -100.00000000   -100.00000000   -100.00000000</v>
    <i name="EFIELD">      0.00000000</i>
   </separator>
  </separator>
  <separator name="grids" >
   <i type="int" name="NGX">    72</i>
   <i type="int" name="NGY">    72</i>
   <i type="int" name="NGZ">    72</i>
   <i type="int" name="NGXF">   144</i>
   <i type="int" name="NGYF">   144</i>
   <i type="int" name="NGZF">   144</i>
   <i type="logical" name="ADDGRID"> F  </i>
  </separator>
  <separator name="ionic" >
   <i type="int" name="NSW">  1000</i>
   <i type="int" name="IBRION">     2</i>
   <i type="int" name="MDALGO">     0</i>
   <i type="int" name="ISIF">     2</i>
   <i name="PSTRESS">      0.00000000</i>
   <i name="EDIFFG">     -0.00100000</i>
   <i type="int" name="NFREE">     1</i>
   <i name="POTIM">      0.20000000</i>
   <i name="SMASS">     -3.00000000</i>
   <i name="SCALEE">      1.00000000</i>
  </separator>
  <separator name="ionic md" >
   <i name="TEBEG">      0.00010000</i>
   <i name="TEEND">      0.00010000</i>
   <i type="int" name="NBLOCK">     1</i>
   <i type="int" name="KBLOCK">  1000</i>
   <i type="int" name="NPACO">   256</i>
   <i name="APACO">     10.00000000</i>
  </separator>
  <separator name="symmetry" >
   <i type="int" name="ISYM">     2</i>
   <i name="SYMPREC">      0.00001000</i>
  </separator>
  <separator name="dos" >
   <i type="int" name="LORBIT">     0</i>
   <v name="RWIGS">     -1.00000000     -1.00000000     -1.00000000     -1.00000000</v>
   <i type="int" name="NEDOS">   301</i>
   <i name="EMIN">     10.00000000</i>
   <i name="EMAX">    -10.00000000</i>
   <i name="EFERMI">      0.00000000</i>
  </separator>
  <separator name="writing" >
   <i type="int" name="NWRITE">     2</i>
   <i type="logical" name="LWAVE"> F  </i>
   <i type="logical" name="LDOWNSAMPLE"> F  </i>
   <i type="logical" name="LCHARG"> F  </i>
   <i type="logical" name="LPARD"> F  </i>
   <i type="logical" name="LVTOT"> F  </i>
   <i type="logical" name="LVHAR"> F  </i>
   <i type="logical" name="LELF"> F  </i>
   <i type="logical" name="LOPTICS"> F  </i>
   <v name="STM">      0.00000000      0.00000000      0.00000000      0.00000000      0.00000000      0.00000000      0.00000000</v>
  </separator>
  <separator name="performance" >
   <i type="int" name="NPAR">     4</i>
   <i type="int" name="NSIM">     4</i>
   <i type="int" name="NBLK">    -1</i>
   <i type="logical" name="LPLANE"> T  </i>
   <i type="logical" name="LSCALAPACK"> T  </i>
   <i type="logical" name="LSCAAWARE"> F  </i>
   <i type="logical" name="LSCALU"> F  </i>
   <i type="logical" name="LASYNC"> F  </i>
   <i type="logical" name="LORBITALREAL"> F  </i>
  </separator>
  <separator name="miscellaneous" >
   <i type="int" name="IDIOT">     3</i>
   <i type="int" name="PHON_NSTRUCT">    -1</i>
   <i type="logical" name="LMUSIC"> F  </i>
   <v name="POMASS">      7.01000000     30.97400000     32.06600000     35.45300000</v>
   <v name="DARWINR">      0.00000000      0.00000000      0.00000000      0.00000000</v>
   <v name="DARWINV">      1.00000000      1.00000000      1.00000000      1.00000000</v>
   <i type="logical" name="LCORR"> T  </i>
  </separator>
  <i type="logical" name="GGA_COMPAT"> T  </i>
  <i type="logical" name="LBERRY"> F  </i>
  <i type="int" name="ICORELEVEL">     0</i>
  <i type="logical" name="LDAU"> F  </i>
  <i type="int" name="I_CONSTRAINED_M">     0</i>
  <separator name="electronic exchange-correlation" >
   <i type="string" name="GGA">PE</i>
   <i type="int" name="VOSKOWN">     0</i>
   <i type="logical" name="LHFCALC"> F  </i>
   <i type="string" name="PRECFOCK"></i>
   <i type="logical" name="LSYMGRAD"> F  </i>
   <i type="logical" name="LHFONE"> F  </i>
   <i type="logical" name="LRHFCALC"> F  </i>
   <i type="logical" name="LTHOMAS"> F  </i>
   <i type="logical" name="LMODELHF"> F  </i>
   <i type="logical" name="LFOCKACE"> F  </i>
   <i name="ENCUT4O">     -1.00000000</i>
   <i type="int" name="EXXOEP">     0</i>
   <i type="int" name="FOURORBIT">     0</i>
   <i name="AEXX">      0.00000000</i>
   <i name="HFALPHA">      0.00000000</i>
   <i name="MCALPHA">      0.00000000</i>
   <i name="ALDAX">      1.00000000</i>
   <i name="AGGAX">      1.00000000</i>
   <i name="ALDAC">      1.00000000</i>
   <i name="AGGAC">      1.00000000</i>
   <i type="int" name="NKREDX">     1</i>
   <i type="int" name="NKREDY">     1</i>
   <i type="int" name="NKREDZ">     1</i>
   <i type="logical" name="SHIFTRED"> F  </i>
   <i type="logical" name="ODDONLY"> F  </i>
   <i type="logical" name="EVENONLY"> F  </i>
   <i type="int" name="LMAXFOCK">     0</i>
   <i type="int" name="NMAXFOCKAE">     0</i>
   <i type="logical" name="LFOCKAEDFT"> F  </i>
   <i name="HFSCREEN">      0.00000000</i>
   <i name="HFSCREENC">      0.00000000</i>
   <i type="int" name="NBANDSGWLOW">     0</i>
  </separator>
  <separator name="vdW DFT" >
   <i type="logical" name="LUSE_VDW"> F  </i>
   <i type="int" name="IVDW_NL">     1</i>
   <i type="logical" name="LSPIN_VDW"> F  </i>
   <i name="Zab_VDW">     -0.84910000</i>
   <i name="PARAM1">      0.12340000</i>
   <i name="PARAM2">      1.00000000</i>
   <i name="PARAM3">      0.00000000</i>
  </separator>
  <separator name="model GW" >
   <i type="int" name="MODEL_GW">     0</i>
   <i name="MODEL_EPS0">     10.46772516</i>
   <i name="MODEL_ALPHA">      1.00000000</i>
  </separator>
  <separator name="linear response parameters" >
   <i type="logical" name="LEPSILON"> F  </i>
   <i type="logical" name="LRPA"> F  </i>
   <i type="logical" name="LNABLA"> F  </i>
   <i type="logical" name="LVEL"> F  </i>
   <i name="CSHIFT">      0.10000000</i>
   <i name="OMEGAMAX">     -1.00000000</i>
   <i name="DEG_THRESHOLD">      0.00200000</i>
   <i name="RTIME">     -0.10000000</i>
   <i name="WPLASMAI">      0.00000000</i>
   <v name="DFIELD">      0.00000000      0.00000000      0.00000000</v>
   <v name="WPLASMA">      0.00000000      0.00000000      0.00000000      0.00000000      0.00000000      0.00000000      0.00000000      0.00000000      0.00000000</v>
  </separator>
  <separator name="orbital magnetization" >
   <i type="logical" name="NUCIND"> F  </i>
   <v name="MAGPOS">      0.00000000      0.00000000      0.00000000</v>
   <i type="logical" name="LNICSALL"> T  </i>
   <i type="logical" name="ORBITALMAG"> F  </i>
   <i type="logical" name="LMAGBLOCH"> F  </i>
   <i type="logical" name="LCHIMAG"> F  </i>
   <i type="logical" name="LGAUGE"> T  </i>
   <i type="int" name="MAGATOM">     0</i>
   <v name="MAGDIPOL">      0.00000000      0.00000000      0.00000000</v>
   <v name="AVECCONST">      0.00000000      0.00000000      0.00000000</v>
  </separator>
  <separator name="response functions" >
   <i type="logical" name="LALL_IN_ONE"> F  </i>
   <i type="int" name="IALL_IN_ONE">    -1</i>
   <i type="int" name="NBANDS_WAVE">    -1</i>
   <i type="logical" name="LFINITE_TEMPERATURE"> F  </i>
   <i type="logical" name="LADDER"> F  </i>
   <i type="logical" name="LRPAFORCE"> F  </i>
   <i type="logical" name="LFXC"> F  </i>
   <i type="logical" name="LHARTREE"> T  </i>
   <i type="int" name="IBSE">     0</i>
   <v type="int" name="KPOINT">    -1     0     0     0</v>
   <i type="logical" name="LTCTC"> F  </i>
   <i type="logical" name="LTCTE"> F  </i>
   <i type="logical" name="LTETE"> F  </i>
   <i type="logical" name="LTRIPLET"> F  </i>
   <i type="logical" name="LFXCEPS"> F  </i>
   <i type="logical" name="LFXHEG"> F  </i>
   <i type="int" name="NATURALO">     2</i>
   <i type="logical" name="LHOLEGF"> F  </i>
   <i type="logical" name="L2ORDER"> F  </i>
   <i type="logical" name="LDMP1"> F  </i>
   <i type="logical" name="LMP2LT"> F  </i>
   <i type="logical" name="LSMP2LT"> F  </i>
   <i type="logical" name="LGWLF"> F  </i>
   <i name="ENCUTGW">     -1.60000002</i>
   <i name="ENCUTGWSOFT">     -1.60000002</i>
   <i name="ENCUTLF">     -1.00000000</i>
   <i type="logical" name="LESF_SPLINES"> F  </i>
   <i type="int" name="LMAXMP2">    -1</i>
   <i name="SCISSOR">      0.00000000</i>
   <i type="int" name="NOMEGA">     0</i>
   <i type="int" name="NOMEGAR">     0</i>
   <i type="int" name="NBANDSGW">    -1</i>
   <i type="int" name="NBANDSO">    -1</i>
   <i type="int" name="NBANDSV">    -1</i>
   <i type="int" name="NELMGW">     1</i>
   <i type="int" name="NELMHF">     1</i>
   <i type="int" name="DIM">     3</i>
   <i type="int" name="IESPILON">     4</i>
   <i type="int" name="ANTIRES">     0</i>
   <i name="OMEGAMAX">    -30.00000000</i>
   <i name="OMEGAMIN">    -30.00000000</i>
   <i name="OMEGATL">   -200.00000000</i>
   <i type="int" name="OMEGAGRID">     0</i>
   <i name="CSHIFT">     -0.10000000</i>
   <i type="logical" name="LSELFENERGY"> F  </i>
   <i type="logical" name="LSPECTRAL"> F  </i>
   <i type="logical" name="LSPECTRALGW"> F  </i>
   <i type="logical" name="LSINGLES"> F  </i>
   <i type="logical" name="LFERMIGW"> F  </i>
   <i type="logical" name="ODDONLYGW"> F  </i>
   <i type="logical" name="EVENONLYGW"> F  </i>
   <i type="int" name="NKREDLFX">     1</i>
   <i type="int" name="NKREDLFY">     1</i>
   <i type="int" name="NKREDLFZ">     1</i>
   <i type="int" name="MAXMEM">  2800</i>
   <i type="int" name="TELESCOPE">     0</i>
   <i type="int" name="NTAUPAR">    -1</i>
   <i type="int" name="NOMEGAPAR">    -1</i>
   <i name="DAMP_NEWTON">      0.80000001</i>
   <i name="LAMBDA">      1.00000000</i>
  </separator>
  <separator name="External order field" >
   <i name="OFIELD_KAPPA">      0.00000000</i>
   <v name="OFIELD_K">      0.00000000      0.00000000      0.00000000</v>
   <i name="OFIELD_Q6_NEAR">      0.00000000</i>
   <i name="OFIELD_Q6_FAR">      0.00000000</i>
   <i name="OFIELD_A">      0.00000000</i>
  </separator>
  <separator name="optional k-points parameters" >
   <i type="int" name="KPOINTS_OPT_MODE">     1</i>
   <i type="logical" name="LKPOINTS_OPT"> F  </i>
  </separator>
 </parameters>
 <atominfo>
  <atoms>      52 </atoms>
  <types>       4 </types>
  <array name="atoms" >
   <dimension dim="1">ion</dimension>
   <field type="string">element</field>
   <field type="int">atomtype</field>
   <set>
    <rc><c>Li</c><c>   1</c></rc>
    <rc><c>Li</c><c>   1</c></rc>
    <rc><c>Li</c><c>   1</c></rc>
    <rc><c>Li</c><c>   1</c></rc>
    <rc><c>Li</c><c>   1</c></rc>
    <rc><c>Li</c><c>   1</c></rc>
    <rc><c>Li</c><c>   1</c></rc>
    <rc><c>Li</c><c>   1</c></rc>
    <rc><c>Li</c><c>   1</c></rc>
    <rc><c>Li</c><c>   1</c></rc>
    <rc><c>Li</c><c>   1</c></rc>
    <rc><c>Li</c><c>   1</c></rc>
    <rc><c>Li</c><c>   1</c></rc>
    <rc><c>Li</c><c>   1</c></rc>
    <rc><c>Li</c><c>   1</c></rc>
    <rc><c>Li</c><c>   1</c></rc>
    <rc><c>Li</c><c>   1</c></rc>
    <rc><c>Li</c><c>   1</c></rc>
    <rc><c>Li</c><c>   1</c></rc>
    <rc><c>Li</c><c>   1</c></rc>
    <rc><c>Li</c><c>   1</c></rc>
    <rc><c>Li</c><c>   1</c></rc>
    <rc><c>Li</c><c>   1</c></rc>
    <rc><c>Li</c><c>   1</c></rc>
    <rc><c>P </c><c>   2</c></rc>
    <rc><c>P </c><c>   2</c></rc>
    <rc><c>P </c><c>   2</c></rc>
    <rc><c>P </c><c>   2</c></rc>
    <rc><c>S </c><c>   3</c></rc>
    <rc><c>S </c><c>   3</c></rc>
    <rc><c>S </c><c>   3</c></rc>
    <rc><c>S </c><c>   3</c></rc>
    <rc><c>S </c><c>   3</c></rc>
    <rc><c>S </c><c>   3</c></rc>
    <rc><c>S </c><c>   3</c></rc>
    <rc><c>S </c><c>   3</c></rc>
    <rc><c>S </c><c>   3</c></rc>
    <rc><c>S </c><c>   3</c></rc>
    <rc><c>S </c><c>   3</c></rc>
    <rc><c>S </c><c>   3</c></rc>
    <rc><c>S </c><c>   3</c></rc>
    <rc><c>S </c><c>   3</c></rc>
    <rc><c>S </c><c>   3</c></rc>
    <rc><c>S </c><c>   3</c></rc>
    <rc><c>S </c><c>   3</c></rc>
    <rc><c>S </c><c>   3</c></rc>
    <rc><c>S </c><c>   3</c></rc>
    <rc><c>S </c><c>   3</c></rc>
    <rc><c>Cl</c><c>   4</c></rc>
    <rc><c>Cl</c><c>   4</c></rc>
    <rc><c>Cl</c><c>   4</c></rc>
    <rc><c>Cl</c><c>   4</c></rc>
   </set>
  </array>
  <array name="atomtypes" >
   <dimension dim="1">type</dimension>
   <field type="int">atomspertype</field>
   <field type="string">element</field>
   <field>mass</field>
   <field>valence</field>
   <field type="string">pseudopotential</field>
   <set>
    <rc><c>  24</c><c>Li</c><c>      7.01000000</c><c>      3.00000000</c><c>  PAW_PBE Li_sv_GW 25Mar2010            </c></rc>
    <rc><c>   4</c><c>P </c><c>     30.97400000</c><c>      5.00000000</c><c>  PAW_PBE P_GW 19Mar2012                </c></rc>
    <rc><c>  20</c><c>S </c><c>     32.06600000</c><c>      6.00000000</c><c>  PAW_PBE S_GW 19Mar2012                </c></rc>
    <rc><c>   4</c><c>Cl</c><c>     35.45300000</c><c>      7.00000000</c><c>  PAW_PBE Cl_GW 19Mar2012               </c></rc>
   </set>
  </array>
 </atominfo>
 <structure name="initialpos" >
  <crystal>
   <varray name="basis" >
    <v>       9.68058200       0.00000000       0.00000000 </v>
    <v>       0.00000000       9.68058200       0.00000000 </v>
    <v>       0.00000000       0.00000000       9.68058200 </v>
   </varray>
   <i name="volume">    907.20284691 </i>
   <varray name="rec_basis" >
    <v>       0.10329957       0.00000000       0.00000000 </v>
    <v>       0.00000000       0.10329957       0.00000000 </v>
    <v>       0.00000000       0.00000000       0.10329957 </v>
   </varray>
  </crystal>
  <varray name="positions" >
   <v>       0.95821061       0.16439341       0.18992078 </v>
   <v>       0.99049394       0.77855810       0.78822592 </v>
   <v>       0.02539007       0.20338017       0.82321517 </v>
   <v>       0.01831070       0.80719837       0.19732888 </v>
   <v>       0.29370221       0.27719683       0.98878383 </v>
   <v>       0.22371290       0.80350481       0.01690378 </v>
   <v>       0.68778744       0.31816815       0.02592126 </v>
   <v>       0.68138995       0.67020052       0.95335567 </v>
   <v>       0.30856943       0.96940240       0.35392387 </v>
   <v>       0.22501692       0.01940871       0.78140371 </v>
   <v>       0.79493552       0.97308855       0.82380522 </v>
   <v>       0.66962894       0.02169740       0.29525607 </v>
   <v>       0.17844019       0.67188467       0.46510303 </v>
   <v>       0.15412394       0.32749444       0.54393434 </v>
   <v>       0.81262244       0.71730482       0.51017947 </v>
   <v>       0.70900012       0.21941260       0.48740379 </v>
   <v>       0.34441902       0.47831079       0.79907938 </v>
   <v>       0.28107222       0.52394462       0.19685140 </v>
   <v>       0.83131019       0.46313936       0.30756982 </v>
   <v>       0.81520408       0.51683718       0.69102321 </v>
   <v>       0.46133084       0.18609046       0.67405197 </v>
   <v>       0.48205478       0.73141414       0.21941817 </v>
   <v>       0.50769562       0.29122304       0.23002987 </v>
   <v>       0.54594438       0.82810094       0.65737224 </v>
   <v>       0.49546136       0.50920973       0.50197925 </v>
   <v>       0.50616639       0.99871297       0.99514911 </v>
   <v>       0.00078328       0.49759048       0.00223895 </v>
   <v>       0.00066062       0.00992782       0.50023029 </v>
   <v>       0.12798948       0.87721741       0.60568223 </v>
   <v>       0.12025630       0.13612558       0.38141958 </v>
   <v>       0.87501009       0.90044212       0.36845960 </v>
   <v>       0.88308676       0.12332667       0.63419810 </v>
   <v>       0.87453005       0.62342578       0.11583706 </v>
   <v>       0.87318857       0.37999307       0.88075005 </v>
   <v>       0.13687441       0.60897695       0.88469512 </v>
   <v>       0.10618675       0.36541060       0.12966529 </v>
   <v>       0.61378363       0.13431646       0.87476420 </v>
   <v>       0.64204212       0.87488145       0.10101271 </v>
   <v>       0.37844168       0.09856739       0.13151233 </v>
   <v>       0.39855596       0.87088055       0.86482257 </v>
   <v>       0.62810534       0.61287906       0.37359557 </v>
   <v>       0.60709992       0.38798329       0.63577193 </v>
   <v>       0.37970046       0.64358653       0.61568087 </v>
   <v>       0.35885252       0.38835433       0.39382921 </v>
   <v>       0.75973438       0.74823351       0.74046433 </v>
   <v>       0.73981561       0.24778250       0.25104834 </v>
   <v>       0.24778099       0.75521696       0.24810535 </v>
   <v>       0.24783018       0.25513076       0.75714881 </v>
   <v>       0.02166830       0.98032078       0.96744439 </v>
   <v>       0.98107800       0.51736873       0.50169090 </v>
   <v>       0.51623661       0.01854776       0.49471379 </v>
   <v>       0.47871381       0.47423632       0.02802923 </v>
  </varray>
 </structure>
 <calculation>
  <scstep>
   <time name="dav">    2.22    2.28</time>
   <time name="total">    2.69    2.77</time>
   <energy>
    <i name="alphaZ">    299.22470438 </i>
    <i name="ewald">  -8798.99861651 </i>
    <i name="hartreedc">  -2118.09289025 </i>
    <i name="XCdc">    534.01242925 </i>
    <i name="pawpsdc">   8141.38806575 </i>
    <i name="pawaedc">  -8271.61346273 </i>
    <i name="eentropy">     -0.00618449 </i>
    <i name="bandstr">   -899.01816074 </i>
    <i name="atom">  12703.13999606 </i>
    <i name="e_fr_energy">   1590.03588071 </i>
    <i name="e_wo_entrp">   1590.04206520 </i>
    <i name="e_0_energy">   1590.03897295 </i>
   </energy>
  </scstep>
  <scstep>
   <time name="dav">    2.64    2.66</time>
   <time name="total">    2.64    2.66</time>
   <energy>
    <i name="e_fr_energy">    -55.92490407 </i>
    <i name="e_wo_entrp">    -55.92490407 </i>
    <i name="e_0_energy">    -55.92490407 </i>
   </energy>
  </scstep>
  <scstep>
   <time name="dav">    2.62    2.64</time>
   <time name="total">    2.62    2.64</time>
   <energy>
    <i name="e_fr_energy">   -228.52722254 </i>
    <i name="e_wo_entrp">   -228.52722254 </i>
    <i name="e_0_energy">   -228.52722254 </i>
   </energy>
  </scstep>
  <scstep>
   <time name="dav">    3.10    3.13</time>
   <time name="total">    3.10    3.13</time>
   <energy>
    <i name="e_fr_energy">   -241.92852968 </i>
    <i name="e_wo_entrp">   -241.92852968 </i>
    <i name="e_0_energy">   -241.92852968 </i>
   </energy>
  </scstep>
  <scstep>
   <time name="dav">    2.98    3.00</time>
   <time name="total">    2.98    3.00</time>
   <energy>
    <i name="e_fr_energy">   -242.20050344 </i>
    <i name="e_wo_entrp">   -242.20050344 </i>
    <i name="e_0_energy">   -242.20050344 </i>
   </energy>
  </scstep>
  <scstep>
   <time name="dav">    3.06    3.08</time>
   <time name="total">    3.06    3.08</time>
   <energy>
    <i name="e_fr_energy">   -242.21127937 </i>
    <i name="e_wo_entrp">   -242.21127937 </i>
    <i name="e_0_energy">   -242.21127937 </i>
   </energy>
  </scstep>
  <scstep>
   <time name="dav">    3.03    3.05</time>
   <time name="total">    3.03    3.05</time>
   <energy>
    <i name="e_fr_energy">   -242.21165451 </i>
    <i name="e_wo_entrp">   -242.21165451 </i>
    <i name="e_0_energy">   -242.21165451 </i>
   </energy>
  </scstep>
  <scstep>
   <time name="dav">    3.04    3.07</time>
   <time name="total">    3.04    3.07</time>
   <energy>
    <i name="e_fr_energy">   -242.21167617 </i>
    <i name="e_wo_entrp">   -242.21167617 </i>
    <i name="e_0_energy">   -242.21167617 </i>
   </energy>
  </scstep>
  <scstep>
   <time name="dav">    2.94    2.96</time>
   <time name="total">    2.94    2.96</time>
   <energy>
    <i name="e_fr_energy">   -242.21167755 </i>
    <i name="e_wo_entrp">   -242.21167755 </i>
    <i name="e_0_energy">   -242.21167755 </i>
   </energy>
  </scstep>
  <scstep>
   <time name="dav">    1.97    1.99</time>
   <time name="total">    2.04    2.07</time>
   <energy>
    <i name="e_fr_energy">   -242.21167761 </i>
    <i name="e_wo_entrp">   -242.21167761 </i>
    <i name="e_0_energy">   -242.21167761 </i>
   </energy>
  </scstep>
  <scstep>
   <time name="diag">    0.36    0.37</time>
   <time name="diis">    1.16    1.17</time>
   <time name="orth">    0.06    0.06</time>
   <time name="total">    2.10    2.14</time>
   <energy>
    <i name="e_fr_energy">   -235.93778846 </i>
    <i name="e_wo_entrp">   -235.93778846 </i>
    <i name="e_0_energy">   -235.93778846 </i>
   </energy>
  </scstep>
  <scstep>
   <time name="diag">    0.36    0.36</time>
   <time name="diis">    1.21    1.23</time>
   <time name="orth">    0.06    0.06</time>
   <time name="total">    2.16    2.18</time>
   <energy>
    <i name="e_fr_energy">   -256.22334007 </i>
    <i name="e_wo_entrp">   -256.22334007 </i>
    <i name="e_0_energy">   -256.22334007 </i>
   </energy>
  </scstep>
  <scstep>
   <time name="diag">    0.35    0.36</time>
   <time name="diis">    1.20    1.21</time>
   <time name="orth">    0.06    0.06</time>
   <time name="total">    2.15    2.16</time>
   <energy>
    <i name="e_fr_energy">   -258.72593278 </i>
    <i name="e_wo_entrp">   -258.72593278 </i>
    <i name="e_0_energy">   -258.72593278 </i>
   </energy>
  </scstep>
  <scstep>
   <time name="diag">    0.35    0.36</time>
   <time name="diis">    1.54    1.55</time>
   <time name="orth">    0.06    0.06</time>
   <time name="total">    2.49    2.51</time>
   <energy>
    <i name="e_fr_energy">   -258.92463908 </i>
    <i name="e_wo_entrp">   -258.92463908 </i>
    <i name="e_0_energy">   -258.92463908 </i>
   </energy>
  </scstep>
  <scstep>
   <time name="diag">    0.36    0.36</time>
   <time name="diis">    1.27    1.28</time>
   <time name="orth">    0.06    0.06</time>
   <time name="total">    2.22    2.24</time>
   <energy>
    <i name="e_fr_energy">   -258.89653219 </i>
    <i name="e_wo_entrp">   -258.89653219 </i>
    <i name="e_0_energy">   -258.89653219 </i>
   </energy>
  </scstep>
  <scstep>
   <time name="diag">    0.36    0.36</time>
   <time name="diis">    1.27    1.28</time>
   <time name="orth">    0.06    0.06</time>
   <time name="total">    2.22    2.24</time>
   <energy>
    <i name="e_fr_energy">   -258.91631681 </i>
    <i name="e_wo_entrp">   -258.91631681 </i>
    <i name="e_0_energy">   -258.91631681 </i>
   </energy>
  </scstep>
  <scstep>
   <time name="diag">    0.35    0.36</time>
   <time name="diis">    1.44    1.45</time>
   <time name="orth">    0.06    0.07</time>
   <time name="total">    2.39    2.41</time>
   <energy>
    <i name="e_fr_energy">   -258.92236880 </i>
    <i name="e_wo_entrp">   -258.92236880 </i>
    <i name="e_0_energy">   -258.92236880 </i>
   </energy>
  </scstep>
  <scstep>
   <time name="diag">    0.36    0.36</time>
   <time name="diis">    1.39    1.41</time>
   <time name="orth">    0.06    0.06</time>
   <time name="total">    2.34    2.36</time>
   <energy>
    <i name="e_fr_energy">   -258.92358322 </i>
    <i name="e_wo_entrp">   -258.92358322 </i>
    <i name="e_0_energy">   -258.92358322 </i>
   </energy>
  </scstep>
  <scstep>
   <time name="diag">    0.35    0.36</time>
   <time name="diis">    1.62    1.64</time>
   <time name="orth">    0.06    0.06</time>
   <time name="total">    2.57    2.59</time>
   <energy>
    <i name="e_fr_energy">   -258.92405274 </i>
    <i name="e_wo_entrp">   -258.92405274 </i>
    <i name="e_0_energy">   -258.92405274 </i>
   </energy>
  </scstep>
  <scstep>
   <time name="diag">    0.36    0.36</time>
   <time name="diis">    1.60    1.62</time>
   <time name="orth">    0.06    0.06</time>
   <time name="total">    2.56    2.58</time>
   <energy>
    <i name="e_fr_energy">   -258.92414509 </i>
    <i name="e_wo_entrp">   -258.92414509 </i>
    <i name="e_0_energy">   -258.92414509 </i>
   </energy>
  </scstep>
  <scstep>
   <time name="diag">    0.36    0.36</time>
   <time name="diis">    1.45    1.46</time>
   <time name="orth">    0.06    0.06</time>
   <time name="total">    2.40    2.41</time>
   <energy>
    <i name="e_fr_energy">   -258.92416253 </i>
    <i name="e_wo_entrp">   -258.92416253 </i>
    <i name="e_0_energy">   -258.92416253 </i>
   </energy>
  </scstep>
  <scstep>
   <time name="diag">    0.35    0.36</time>
   <time name="diis">    1.59    1.60</time>
   <time name="orth">    0.06    0.06</time>
   <time name="total">    2.54    2.56</time>
   <energy>
    <i name="e_fr_energy">   -258.92416835 </i>
    <i name="e_wo_entrp">   -258.92416835 </i>
    <i name="e_0_energy">   -258.92416835 </i>
   </energy>
  </scstep>
  <scstep>
   <time name="diag">    0.36    0.36</time>
   <time name="diis">    1.25    1.26</time>
   <time name="orth">    0.06    0.06</time>
   <time name="total">    2.19    2.21</time>
   <energy>
    <i name="e_fr_energy">   -258.92416813 </i>
    <i name="e_wo_entrp">   -258.92416813 </i>
    <i name="e_0_energy">   -258.92416813 </i>
   </energy>
  </scstep>
  <scstep>
   <time name="diag">    0.36    0.36</time>
   <time name="diis">    0.94    0.94</time>
   <time name="orth">    0.06    0.06</time>
   <time name="total">    1.82    1.83</time>
   <energy>
    <i name="alphaZ">    299.22470438 </i>
    <i name="ewald">  -8798.99861651 </i>
    <i name="hartreedc">  -2217.97599130 </i>
    <i name="XCdc">    537.75831433 </i>
    <i name="pawpsdc">   9817.47731609 </i>
    <i name="pawaedc">  -9961.48642113 </i>
    <i name="eentropy">     -0.00000000 </i>
    <i name="bandstr">  -2638.06346939 </i>
    <i name="atom">  12703.13999606 </i>
    <i name="e_fr_energy">   -258.92416748 </i>
    <i name="e_wo_entrp">   -258.92416748 </i>
    <i name="e_0_energy">   -258.92416748 </i>
   </energy>
  </scstep>
  <structure>
   <crystal>
    <varray name="basis" >
     <v>       9.68058200       0.00000000       0.00000000 </v>
     <v>       0.00000000       9.68058200       0.00000000 </v>
     <v>       0.00000000       0.00000000       9.68058200 </v>
    </varray>
    <i name="volume">    907.20284691 </i>
    <varray name="rec_basis" >
     <v>       0.10329957       0.00000000       0.00000000 </v>
     <v>       0.00000000       0.10329957       0.00000000 </v>
     <v>       0.00000000       0.00000000       0.10329957 </v>
    </varray>
   </crystal>
   <varray name="positions" >
    <v>       0.95821061       0.16439341       0.18992078 </v>
    <v>       0.99049394       0.77855810       0.78822592 </v>
    <v>       0.02539007       0.20338017       0.82321517 </v>
    <v>       0.01831070       0.80719837       0.19732888 </v>
    <v>       0.29370221       0.27719683       0.98878383 </v>
    <v>       0.22371290       0.80350481       0.01690378 </v>
    <v>       0.68778744       0.31816815       0.02592126 </v>
    <v>       0.68138995       0.67020052       0.95335567 </v>
    <v>       0.30856943       0.96940240       0.35392387 </v>
    <v>       0.22501692       0.01940871       0.78140371 </v>
    <v>       0.79493552       0.97308855       0.82380522 </v>
    <v>       0.66962894       0.02169740       0.29525607 </v>
    <v>       0.17844019       0.67188467       0.46510303 </v>
    <v>       0.15412394       0.32749444       0.54393434 </v>
    <v>       0.81262244       0.71730482       0.51017947 </v>
    <v>       0.70900012       0.21941260       0.48740379 </v>
    <v>       0.34441902       0.47831079       0.79907938 </v>
    <v>       0.28107222       0.52394462       0.19685140 </v>
    <v>       0.83131019       0.46313936       0.30756982 </v>
    <v>       0.81520408       0.51683718       0.69102321 </v>
    <v>       0.46133084       0.18609046       0.67405197 </v>
    <v>       0.48205478       0.73141414       0.21941817 </v>
    <v>       0.50769562       0.29122304       0.23002987 </v>
    <v>       0.54594438       0.82810094       0.65737224 </v>
    <v>       0.49546136       0.50920973       0.50197925 </v>
    <v>       0.50616639       0.99871297       0.99514911 </v>
    <v>       0.00078328       0.49759048       0.00223895 </v>
    <v>       0.00066062       0.00992782       0.50023029 </v>
    <v>       0.12798948       0.87721741       0.60568223 </v>
    <v>       0.12025630       0.13612558       0.38141958 </v>
    <v>       0.87501009       0.90044212       0.36845960 </v>
    <v>       0.88308676       0.12332667       0.63419810 </v>
    <v>       0.87453005       0.62342578       0.11583706 </v>
    <v>       0.87318857       0.37999307       0.88075005 </v>
    <v>       0.13687441       0.60897695       0.88469512 </v>
    <v>       0.10618675       0.36541060       0.12966529 </v>
    <v>       0.61378363       0.13431646       0.87476420 </v>
    <v>       0.64204212       0.87488145       0.10101271 </v>
    <v>       0.37844168       0.09856739       0.13151233 </v>
    <v>       0.39855596       0.87088055       0.86482257 </v>
    <v>       0.62810534       0.61287906       0.37359557 </v>
    <v>       0.60709992       0.38798329       0.63577193 </v>
    <v>       0.37970046       0.64358653       0.61568087 </v>
    <v>       0.35885252       0.38835433       0.39382921 </v>
    <v>       0.75973438       0.74823351       0.74046433 </v>
    <v>       0.73981561       0.24778250       0.25104834 </v>
    <v>       0.24778099       0.75521696       0.24810535 </v>
    <v>       0.24783018       0.25513076       0.75714881 </v>
    <v>       0.02166830       0.98032078       0.96744439 </v>
    <v>       0.98107800       0.51736873       0.50169090 </v>
    <v>       0.51623661       0.01854776       0.49471379 </v>
    <v>       0.47871381       0.47423632       0.02802923 </v>
   </varray>
  </structure>
  <varray name="forces" >
   <v>       0.00552807      -0.01079024      -0.01179085 </v>
   <v>       0.00465978       0.00453815       0.00401368 </v>
   <v>      -0.00422716      -0.00887750       0.00696751 </v>
   <v>      -0.00279342       0.00960245      -0.01111536 </v>
   <v>       0.00485311       0.00667414       0.00636740 </v>
   <v>      -0.00665765       0.00386296      -0.00659132 </v>
   <v>      -0.00667206       0.00699593      -0.00219725 </v>
   <v>      -0.01291222      -0.01211074       0.00719623 </v>
   <v>       0.00558779       0.00330847       0.00430309 </v>
   <v>      -0.00533257      -0.00433219       0.00446163 </v>
   <v>       0.00549323       0.00296298       0.00992834 </v>
   <v>      -0.00692643      -0.00464820       0.00517266 </v>
   <v>      -0.00675646      -0.00760594       0.00293308 </v>
   <v>      -0.00647239       0.00847196      -0.00332114 </v>
   <v>       0.00298774      -0.00829938      -0.00442877 </v>
   <v>      -0.00325100      -0.00366029       0.00439785 </v>
   <v>       0.00780043       0.00273451       0.00509014 </v>
   <v>       0.00555815      -0.00409031      -0.00507928 </v>
   <v>       0.00634241       0.00461321       0.00371804 </v>
   <v>       0.00280536      -0.00283173      -0.00703162 </v>
   <v>       0.00567239      -0.00694006      -0.00558263 </v>
   <v>       0.00336541      -0.00237346      -0.00608424 </v>
   <v>      -0.00578678       0.00244421      -0.00573315 </v>
   <v>      -0.00368017       0.00721253      -0.00454863 </v>
   <v>       0.00452326       0.00033915       0.00342752 </v>
   <v>      -0.00523434       0.00816157      -0.00169198 </v>
   <v>       0.00845976      -0.00260119       0.00027685 </v>
   <v>      -0.00274356      -0.00766150       0.00776868 </v>
   <v>       0.05829856      -0.05625659       0.03645450 </v>
   <v>       0.05732564       0.06218443      -0.05588011 </v>
   <v>      -0.05365120      -0.04090288      -0.05562805 </v>
   <v>      -0.05122165       0.04890517       0.05403403 </v>
   <v>      -0.05672581       0.05765143       0.04830018 </v>
   <v>      -0.05409115      -0.04755410      -0.04981752 </v>
   <v>       0.06371474       0.03840337      -0.05730246 </v>
   <v>       0.03562227      -0.05720056       0.05942910 </v>
   <v>       0.04482414       0.06465282      -0.05434367 </v>
   <v>       0.07022848      -0.04994043       0.04042861 </v>
   <v>      -0.06126454       0.03239978       0.06338476 </v>
   <v>      -0.03500546      -0.06278037      -0.05833547 </v>
   <v>       0.05482097       0.04248505      -0.05556239 </v>
   <v>       0.04484034      -0.04364463       0.06606803 </v>
   <v>      -0.05334840       0.06501285       0.04889409 </v>
   <v>      -0.06378525      -0.05603928      -0.03632767 </v>
   <v>      -0.01026675       0.00032291       0.00047839 </v>
   <v>       0.00916434       0.00036953      -0.00340939 </v>
   <v>      -0.00305221       0.00453093       0.00829220 </v>
   <v>      -0.00011097       0.00863946      -0.00998384 </v>
   <v>      -0.00260007       0.00222450       0.01298198 </v>
   <v>       0.00801853      -0.00576628       0.00060172 </v>
   <v>      -0.00267908      -0.00322711       0.00005030 </v>
   <v>       0.00675388       0.01043048      -0.00363382 </v>
  </varray>
  <varray name="stress" >
   <v>      -1.84808764      -0.92655199      -0.76011939 </v>
   <v>      -0.92655169       1.17008495      -0.03951448 </v>
   <v>      -0.76011913      -0.03951484      -0.18107551 </v>
  </varray>
  <energy>
   <i name="e_fr_energy">   -272.41408876 </i>
   <i name="e_wo_entrp">   -272.41408876 </i>
   <i name="e_0_energy">   -272.41408876 </i>
  </energy>
  <time name="totalsc">   63.35   64.00</time>
 </calculation>
 <calculation>
  <scstep>
   <time name="dav">    2.15    2.18</time>
   <time name="total">    2.68    2.71</time>
   <energy>
    <i name="alphaZ">    299.22470438 </i>
    <i name="ewald">  -8801.29233162 </i>
    <i name="hartreedc">  -2216.19942870 </i>
    <i name="XCdc">    537.70686937 </i>
    <i name="pawpsdc">   9817.47128136 </i>
    <i name="pawaedc">  -9961.48029849 </i>
    <i name="eentropy">     -0.00000000 </i>
    <i name="bandstr">  -2637.49666630 </i>
    <i name="atom">  12703.13999606 </i>
    <i name="e_fr_energy">   -258.92587395 </i>
    <i name="e_wo_entrp">   -258.92587395 </i>
    <i name="e_0_energy">   -258.92587395 </i>
   </energy>
  </scstep>
  <scstep>
   <time name="diag">    3.66    3.68</time>
   <time name="diis">    1.95    2.01</time>
   <time name="orth">    0.06    0.07</time>
   <time name="total">    6.19    6.27</time>
   <energy>
    <i name="e_fr_energy">   -258.92605741 </i>
    <i name="e_wo_entrp">   -258.92605741 </i>
    <i name="e_0_energy">   -258.92605741 </i>
   </energy>
  </scstep>
  <scstep>
   <time name="diag">    0.36    0.36</time>
   <time name="diis">    1.34    1.36</time>
   <time name="orth">    0.06    0.07</time>
   <time name="total">    2.29    2.31</time>
   <energy>
    <i name="e_fr_energy">   -258.92615990 </i>
    <i name="e_wo_entrp">   -258.92615990 </i>
    <i name="e_0_energy">   -258.92615990 </i>
   </energy>
  </scstep>
  <scstep>
   <time name="diag">    0.36    0.36</time>
   <time name="diis">    1.55    1.57</time>
   <time name="orth">    0.06    0.06</time>
   <time name="total">    2.50    2.52</time>
   <energy>
    <i name="e_fr_energy">   -258.92618320 </i>
    <i name="e_wo_entrp">   -258.92618320 </i>
    <i name="e_0_energy">   -258.92618320 </i>
   </energy>
  </scstep>
  <scstep>
   <time name="diag">    0.35    0.36</time>
   <time name="diis">    1.34    1.35</time>
   <time name="orth">    0.06    0.06</time>
   <time name="total">    2.28    2.30</time>
   <energy>
    <i name="e_fr_energy">   -258.92618429 </i>
    <i name="e_wo_entrp">   -258.92618429 </i>
    <i name="e_0_energy">   -258.92618429 </i>
   </energy>
  </scstep>
  <scstep>
   <time name="diag">    0.36    0.36</time>
   <time name="diis">    1.14    1.15</time>
   <time name="orth">    0.06    0.06</time>
   <time name="total">    2.03    2.04</time>
   <energy>
    <i name="alphaZ">    299.22470438 </i>
    <i name="ewald">  -8801.29233162 </i>
    <i name="hartreedc">  -2215.98974165 </i>
    <i name="XCdc">    537.69621927 </i>
    <i name="pawpsdc">   9813.67092152 </i>
    <i name="pawaedc">  -9957.66346756 </i>
    <i name="eentropy">     -0.00000000 </i>
    <i name="bandstr">  -2637.71248544 </i>
    <i name="atom">  12703.13999606 </i>
    <i name="e_fr_energy">   -258.92618503 </i>
    <i name="e_wo_entrp">   -258.92618503 </i>
    <i name="e_0_energy">   -258.92618503 </i>
   </energy>
  </scstep>
  <structure>
   <crystal>
    <varray name="basis" >
     <v>       9.68058200       0.00000000       0.00000000 </v>
     <v>       0.00000000       9.68058200       0.00000000 </v>
     <v>       0.00000000       0.00000000       9.68058200 </v>
    </varray>
    <i name="volume">    907.20284691 </i>
    <varray name="rec_basis" >
     <v>       0.10329957       0.00000000       0.00000000 </v>
     <v>       0.00000000       0.10329957       0.00000000 </v>
     <v>       0.00000000       0.00000000       0.10329957 </v>
    </varray>
   </crystal>
   <varray name="positions" >
    <v>       0.95822163       0.16437190       0.18989728 </v>
    <v>       0.99050323       0.77856715       0.78823392 </v>
    <v>       0.02538165       0.20336247       0.82322906 </v>
    <v>       0.01830513       0.80721751       0.19730673 </v>
    <v>       0.29371188       0.27721014       0.98879652 </v>
    <v>       0.22369962       0.80351251       0.01689064 </v>
    <v>       0.68777414       0.31818209       0.02591688 </v>
    <v>       0.68136421       0.67017638       0.95337002 </v>
    <v>       0.30858056       0.96940900       0.35393244 </v>
    <v>       0.22500629       0.01940008       0.78141260 </v>
    <v>       0.79494647       0.97309445       0.82382501 </v>
    <v>       0.66961513       0.02168813       0.29526639 </v>
    <v>       0.17842672       0.67186951       0.46510888 </v>
    <v>       0.15411103       0.32751132       0.54392772 </v>
    <v>       0.81262839       0.71728828       0.51017065 </v>
    <v>       0.70899364       0.21940530       0.48741256 </v>
    <v>       0.34443457       0.47831624       0.79908953 </v>
    <v>       0.28108330       0.52393647       0.19684127 </v>
    <v>       0.83132284       0.46314855       0.30757723 </v>
    <v>       0.81520967       0.51683154       0.69100919 </v>
    <v>       0.46134215       0.18607662       0.67404085 </v>
    <v>       0.48206149       0.73140941       0.21940604 </v>
    <v>       0.50768409       0.29122791       0.23001845 </v>
    <v>       0.54593704       0.82811531       0.65736317 </v>
    <v>       0.49547038       0.50921040       0.50198608 </v>
    <v>       0.50615595       0.99872924       0.99514574 </v>
    <v>       0.00080014       0.49758530       0.00223950 </v>
    <v>       0.00065515       0.00991255       0.50024577 </v>
    <v>       0.12810570       0.87710527       0.60575489 </v>
    <v>       0.12037057       0.13624953       0.38130819 </v>
    <v>       0.87490314       0.90036059       0.36834871 </v>
    <v>       0.88298465       0.12342415       0.63430581 </v>
    <v>       0.87441697       0.62354070       0.11593334 </v>
    <v>       0.87308075       0.37989828       0.88065074 </v>
    <v>       0.13700142       0.60905350       0.88458089 </v>
    <v>       0.10625776       0.36529658       0.12978375 </v>
    <v>       0.61387299       0.13444534       0.87465588 </v>
    <v>       0.64218211       0.87478190       0.10109330 </v>
    <v>       0.37831955       0.09863198       0.13163868 </v>
    <v>       0.39848618       0.87075541       0.86470629 </v>
    <v>       0.62821462       0.61296375       0.37348481 </v>
    <v>       0.60718930       0.38789629       0.63590363 </v>
    <v>       0.37959411       0.64371612       0.61577833 </v>
    <v>       0.35872538       0.38824263       0.39375679 </v>
    <v>       0.75971392       0.74823415       0.74046529 </v>
    <v>       0.73983387       0.24778323       0.25104154 </v>
    <v>       0.24777491       0.75522599       0.24812188 </v>
    <v>       0.24782996       0.25514798       0.75712891 </v>
    <v>       0.02166312       0.98032522       0.96747026 </v>
    <v>       0.98109398       0.51735724       0.50169210 </v>
    <v>       0.51623127       0.01854132       0.49471389 </v>
    <v>       0.47872727       0.47425711       0.02802198 </v>
   </varray>
  </structure>
  <varray name="forces" >
   <v>       0.00481357      -0.01158079      -0.01173563 </v>
   <v>       0.00307322       0.00413067       0.00401717 </v>
   <v>      -0.00293311      -0.00854323       0.00732035 </v>
   <v>      -0.00158242       0.00978294      -0.01119000 </v>
   <v>       0.00479505       0.00658521       0.00501157 </v>
   <v>      -0.00633936       0.00405122      -0.00527299 </v>
   <v>      -0.00669546       0.00744980      -0.00094163 </v>
   <v>      -0.01309145      -0.01230401       0.00620511 </v>
   <v>       0.00536319       0.00287303       0.00476306 </v>
   <v>      -0.00487784      -0.00306836       0.00464897 </v>
   <v>       0.00504837       0.00227346       0.01029441 </v>
   <v>      -0.00768163      -0.00345517       0.00501641 </v>
   <v>      -0.00690820      -0.00838937       0.00199483 </v>
   <v>      -0.00696064       0.00849596      -0.00285491 </v>
   <v>       0.00342247      -0.00807437      -0.00336075 </v>
   <v>      -0.00356498      -0.00351395       0.00294139 </v>
   <v>       0.00847934       0.00235309       0.00474451 </v>
   <v>       0.00545823      -0.00314808      -0.00501209 </v>
   <v>       0.00668449       0.00398520       0.00368714 </v>
   <v>       0.00350550      -0.00155294      -0.00734493 </v>
   <v>       0.00454436      -0.00715861      -0.00589493 </v>
   <v>       0.00225347      -0.00175562      -0.00643448 </v>
   <v>      -0.00444995       0.00255856      -0.00545999 </v>
   <v>      -0.00281735       0.00749709      -0.00505233 </v>
   <v>      -0.00077595       0.00204082       0.00467410 </v>
   <v>      -0.00049617       0.00396885      -0.00179228 </v>
   <v>       0.00346739      -0.00102057       0.00136662 </v>
   <v>       0.00126065      -0.00033395       0.00038607 </v>
   <v>       0.03778155      -0.03458592       0.01976800 </v>
   <v>       0.03233982       0.03449399      -0.03105297 </v>
   <v>      -0.03262073      -0.02315413      -0.03418405 </v>
   <v>      -0.03074646       0.02932659       0.03178814 </v>
   <v>      -0.03311636       0.03308586       0.02683082 </v>
   <v>      -0.03195190      -0.02737807      -0.02773706 </v>
   <v>       0.04095732       0.02007505      -0.03739729 </v>
   <v>       0.01863137      -0.03515245       0.03771104 </v>
   <v>       0.02459848       0.03937803      -0.03283643 </v>
   <v>       0.04444279      -0.02682757       0.02009679 </v>
   <v>      -0.04061665       0.01668355       0.04068853 </v>
   <v>      -0.01567436      -0.04000272      -0.03490387 </v>
   <v>       0.03310954       0.02491752      -0.03398980 </v>
   <v>       0.02590745      -0.02364997       0.04435784 </v>
   <v>      -0.03153633       0.03805789       0.02714522 </v>
   <v>      -0.03927546      -0.03418973      -0.01697696 </v>
   <v>      -0.00846153       0.00015256       0.00038478 </v>
   <v>       0.00750728       0.00014422      -0.00294774 </v>
   <v>      -0.00266998       0.00351216       0.00671533 </v>
   <v>      -0.00028545       0.00701191      -0.00797343 </v>
   <v>      -0.00228577       0.00196436       0.01196269 </v>
   <v>       0.00682136      -0.00510976       0.00091904 </v>
   <v>      -0.00211373      -0.00278536      -0.00006148 </v>
   <v>       0.00626297       0.00988512      -0.00303194 </v>
  </varray>
  <varray name="stress" >
   <v>      -2.43696421      -0.93583634      -0.73119115 </v>
   <v>      -0.93583601       0.59485127      -0.03745025 </v>
   <v>      -0.73119088      -0.03745091      -0.75920068 </v>
  </varray>
  <energy>
   <i name="e_fr_energy">   -272.41626193 </i>
   <i name="e_wo_entrp">   -272.41626193 </i>
   <i name="e_0_energy">   -272.41626193 </i>
  </energy>
  <time name="totalsc">   21.06   21.29</time>
 </calculation>
 <calculation>
  <scstep>
   <time name="dav">    2.29    2.31</time>
   <time name="total">    2.82    2.84</time>
   <energy>
    <i name="alphaZ">    299.22470438 </i>
    <i name="ewald">  -8805.40076481 </i>
    <i name="hartreedc">  -2212.79981676 </i>
    <i name="XCdc">    537.60329352 </i>
    <i name="pawpsdc">   9813.62995455 </i>
    <i name="pawaedc">  -9957.62230319 </i>
    <i name="eentropy">     -0.00000000 </i>
    <i name="bandstr">  -2636.70113268 </i>
    <i name="atom">  12703.13999606 </i>
    <i name="e_fr_energy">   -258.92606892 </i>
    <i name="e_wo_entrp">   -258.92606892 </i>
    <i name="e_0_energy">   -258.92606892 </i>
   </energy>
  </scstep>
  <scstep>
   <time name="diag">    0.49    0.50</time>
   <time name="diis">    1.18    1.19</time>
   <time name="orth">    0.06    0.06</time>
   <time name="total">    2.25    2.28</time>
   <energy>
    <i name="e_fr_energy">   -258.92673880 </i>
    <i name="e_wo_entrp">   -258.92673880 </i>
    <i name="e_0_energy">   -258.92673880 </i>
   </energy>
  </scstep>
  <scstep>
   <time name="diag">    0.36    0.36</time>
   <time name="diis">    1.34    1.35</time>
   <time name="orth">    0.06    0.06</time>
   <time name="total">    2.29    2.30</time>
   <energy>
    <i name="e_fr_energy">   -258.92706980 </i>
    <i name="e_wo_entrp">   -258.92706980 </i>
    <i name="e_0_energy">   -258.92706980 </i>
   </energy>
  </scstep>
  <scstep>
   <time name="diag">    0.36    0.36</time>
   <time name="diis">    1.58    1.59</time>
   <time name="orth">    0.06    0.06</time>
   <time name="total">    2.53    2.55</time>
   <energy>
    <i name="e_fr_energy">   -258.92714173 </i>
    <i name="e_wo_entrp">   -258.92714173 </i>
    <i name="e_0_energy">   -258.92714173 </i>
   </energy>
  </scstep>
  <scstep>
   <time name="diag">    0.35    0.36</time>
   <time name="diis">    1.44    1.46</time>
   <time name="orth">    0.06    0.06</time>
   <time name="total">    2.39    2.41</time>
   <energy>
    <i name="e_fr_energy">   -258.92714311 </i>
    <i name="e_wo_entrp">   -258.92714311 </i>
    <i name="e_0_energy">   -258.92714311 </i>
   </energy>
  </scstep>
  <scstep>
   <time name="diag">    0.35    0.36</time>
   <time name="diis">    1.41    1.43</time>
   <time name="orth">    0.06    0.06</time>
   <time name="total">    2.36    2.39</time>
   <energy>
    <i name="e_fr_energy">   -258.92714525 </i>
    <i name="e_wo_entrp">   -258.92714525 </i>
    <i name="e_0_energy">   -258.92714525 </i>
   </energy>
  </scstep>
  <scstep>
   <time name="diag">    0.36    0.36</time>
   <time name="diis">    1.06    1.07</time>
   <time name="orth">    0.06    0.06</time>
   <time name="total">    1.95    1.96</time>
   <energy>
    <i name="alphaZ">    299.22470438 </i>
    <i name="ewald">  -8805.40076481 </i>
    <i name="hartreedc">  -2212.41487137 </i>
    <i name="XCdc">    537.58397882 </i>
    <i name="pawpsdc">   9806.73815924 </i>
    <i name="pawaedc">  -9950.70163760 </i>
    <i name="eentropy">     -0.00000000 </i>
    <i name="bandstr">  -2637.09671008 </i>
    <i name="atom">  12703.13999606 </i>
    <i name="e_fr_energy">   -258.92714537 </i>
    <i name="e_wo_entrp">   -258.92714537 </i>
    <i name="e_0_energy">   -258.92714537 </i>
   </energy>
  </scstep>
  <structure>
   <crystal>
    <varray name="basis" >
     <v>       9.68058200       0.00000000       0.00000000 </v>
     <v>       0.00000000       9.68058200       0.00000000 </v>
     <v>       0.00000000       0.00000000       9.68058200 </v>
    </varray>
    <i name="volume">    907.20284691 </i>
    <varray name="rec_basis" >
     <v>       0.10329957       0.00000000       0.00000000 </v>
     <v>       0.00000000       0.10329957       0.00000000 </v>
     <v>       0.00000000       0.00000000       0.10329957 </v>
    </varray>
   </crystal>
   <varray name="positions" >
    <v>       0.95824155       0.16433302       0.18985480 </v>
    <v>       0.99052002       0.77858350       0.78824838 </v>
    <v>       0.02536642       0.20333048       0.82325416 </v>
    <v>       0.01829507       0.80725211       0.19726668 </v>
    <v>       0.29372937       0.27723418       0.98881947 </v>
    <v>       0.22367564       0.80352643       0.01686689 </v>
    <v>       0.68775010       0.31820730       0.02590897 </v>
    <v>       0.68131769       0.67013274       0.95339594 </v>
    <v>       0.30860070       0.96942092       0.35394795 </v>
    <v>       0.22498708       0.01938447       0.78142868 </v>
    <v>       0.79496627       0.97310513       0.82386078 </v>
    <v>       0.66959018       0.02167138       0.29528502 </v>
    <v>       0.17840238       0.67184210       0.46511945 </v>
    <v>       0.15408771       0.32754185       0.54391576 </v>
    <v>       0.81263916       0.71725838       0.51015469 </v>
    <v>       0.70898192       0.21939211       0.48742840 </v>
    <v>       0.34446267       0.47832609       0.79910787 </v>
    <v>       0.28110332       0.52392173       0.19682297 </v>
    <v>       0.83134569       0.46316517       0.30759063 </v>
    <v>       0.81521978       0.51682133       0.69098386 </v>
    <v>       0.46136258       0.18605162       0.67402073 </v>
    <v>       0.48207361       0.73140086       0.21938412 </v>
    <v>       0.50766324       0.29123672       0.22999779 </v>
    <v>       0.54592378       0.82814130       0.65734678 </v>
    <v>       0.49548667       0.50921163       0.50199843 </v>
    <v>       0.50613709       0.99875864       0.99513964 </v>
    <v>       0.00083062       0.49757592       0.00224049 </v>
    <v>       0.00064527       0.00988494       0.50027376 </v>
    <v>       0.12831574       0.87690258       0.60588624 </v>
    <v>       0.12057711       0.13647358       0.38110686 </v>
    <v>       0.87470984       0.90021322       0.36814829 </v>
    <v>       0.88280011       0.12360035       0.63450049 </v>
    <v>       0.87421259       0.62374841       0.11610736 </v>
    <v>       0.87288586       0.37972694       0.88047126 </v>
    <v>       0.13723098       0.60919187       0.88437444 </v>
    <v>       0.10638610       0.36509049       0.12999787 </v>
    <v>       0.61403448       0.13467828       0.87446008 </v>
    <v>       0.64243514       0.87460197       0.10123896 </v>
    <v>       0.37809882       0.09874871       0.13186705 </v>
    <v>       0.39836006       0.87052921       0.86449611 </v>
    <v>       0.62841214       0.61311682       0.37328463 </v>
    <v>       0.60735086       0.38773904       0.63614167 </v>
    <v>       0.37940190       0.64395036       0.61595449 </v>
    <v>       0.35849556       0.38804072       0.39362591 </v>
    <v>       0.75967693       0.74823531       0.74046701 </v>
    <v>       0.73986689       0.24778457       0.25102926 </v>
    <v>       0.24776391       0.75524232       0.24815176 </v>
    <v>       0.24782956       0.25517911       0.75709294 </v>
    <v>       0.02165375       0.98033323       0.96751704 </v>
    <v>       0.98112287       0.51733646       0.50169426 </v>
    <v>       0.51622161       0.01852970       0.49471407 </v>
    <v>       0.47875160       0.47429469       0.02800889 </v>
   </varray>
  </structure>
  <varray name="forces" >
   <v>       0.00378293      -0.01294486      -0.01167429 </v>
   <v>       0.00066111       0.00374450       0.00424287 </v>
   <v>      -0.00065493      -0.00798896       0.00794317 </v>
   <v>       0.00052402       0.01023322      -0.01147492 </v>
   <v>       0.00481152       0.00653885       0.00275267 </v>
   <v>      -0.00576596       0.00444873      -0.00311924 </v>
   <v>      -0.00675004       0.00833807       0.00117008 </v>
   <v>      -0.01338789      -0.01266585       0.00459602 </v>
   <v>       0.00541561       0.00242377       0.00585695 </v>
   <v>      -0.00411211      -0.00097926       0.00504209 </v>
   <v>       0.00432623       0.00121972       0.01100644 </v>
   <v>      -0.00903956      -0.00141222       0.00473579 </v>
   <v>      -0.00715682      -0.00979576       0.00042899 </v>
   <v>      -0.00780111       0.00862313      -0.00218769 </v>
   <v>       0.00429687      -0.00785626      -0.00164996 </v>
   <v>      -0.00429413      -0.00348865       0.00068654 </v>
   <v>       0.00985433       0.00183311       0.00413257 </v>
   <v>       0.00539616      -0.00158406      -0.00499847 </v>
   <v>       0.00742897       0.00303915       0.00361613 </v>
   <v>       0.00484139       0.00065273      -0.00808364 </v>
   <v>       0.00273803      -0.00754584      -0.00649865 </v>
   <v>       0.00062191      -0.00080825      -0.00754162 </v>
   <v>      -0.00215635       0.00280337      -0.00504792 </v>
   <v>      -0.00139395       0.00810669      -0.00602730 </v>
   <v>      -0.01010510       0.00509693       0.00687975 </v>
   <v>       0.00734757      -0.00136024      -0.00208678 </v>
   <v>      -0.00569115      -0.00090616       0.00243045 </v>
   <v>       0.00490786       0.01269976      -0.01175209 </v>
   <v>       0.00141782       0.00393351      -0.01001918 </v>
   <v>      -0.01214485      -0.01493640       0.01330243 </v>
   <v>       0.00492425       0.00865504       0.00412992 </v>
   <v>       0.00605359      -0.00549099      -0.00774957 </v>
   <v>       0.00910063      -0.01080563      -0.01150873 </v>
   <v>       0.00770218       0.00872254       0.01161282 </v>
   <v>       0.00042641      -0.01277008      -0.00188956 </v>
   <v>      -0.01161428       0.00412066      -0.00088075 </v>
   <v>      -0.01135341      -0.00568741       0.00555576 </v>
   <v>      -0.00147389       0.01431891      -0.01625996 </v>
   <v>      -0.00373327      -0.01125565       0.00015718 </v>
   <v>       0.01894990       0.00068933       0.00681978 </v>
   <v>      -0.00582774      -0.00672038       0.00479050 </v>
   <v>      -0.00804995       0.01209032       0.00526350 </v>
   <v>       0.00743461      -0.00992557      -0.01170772 </v>
   <v>       0.00452861       0.00503094       0.01770338 </v>
   <v>      -0.00524676      -0.00013959       0.00022175 </v>
   <v>       0.00461065      -0.00023931      -0.00215919 </v>
   <v>      -0.00186151       0.00180990       0.00384638 </v>
   <v>      -0.00051075       0.00410714      -0.00438561 </v>
   <v>      -0.00179829       0.00185446       0.01107545 </v>
   <v>       0.00561715      -0.00463888       0.00134886 </v>
   <v>      -0.00153955      -0.00235638      -0.00013762 </v>
   <v>       0.00574304       0.00916814      -0.00250776 </v>
  </varray>
  <varray name="stress" >
   <v>      -3.45230362      -0.95130146      -0.67411842 </v>
   <v>      -0.95130110      -0.39794680      -0.03564496 </v>
   <v>      -0.67411804      -0.03564537      -1.75507195 </v>
  </varray>
  <energy>
   <i name="e_fr_energy">   -272.41749505 </i>
   <i name="e_wo_entrp">   -272.41749505 </i>
   <i name="e_0_energy">   -272.41749505 </i>
  </energy>
  <time name="totalsc">   19.65   19.84</time>
 </calculation>
 <calculation>
  <scstep>
   <time name="dav">    2.26    2.28</time>
   <time name="total">    2.78    2.80</time>
   <energy>
    <i name="alphaZ">    299.22470438 </i>
    <i name="ewald">  -8804.82121496 </i>
    <i name="hartreedc">  -2212.86076834 </i>
    <i name="XCdc">    537.59638611 </i>
    <i name="pawpsdc">   9806.60981513 </i>
    <i name="pawaedc">  -9950.57227437 </i>
    <i name="eentropy">     -0.00000000 </i>
    <i name="bandstr">  -2637.24383718 </i>
    <i name="atom">  12703.13999606 </i>
    <i name="e_fr_energy">   -258.92719316 </i>
    <i name="e_wo_entrp">   -258.92719316 </i>
    <i name="e_0_energy">   -258.92719316 </i>
   </energy>
  </scstep>
  <scstep>
   <time name="diag">    0.36    0.36</time>
   <time name="diis">    1.17    1.18</time>
   <time name="orth">    0.06    0.06</time>
   <time name="total">    2.11    2.13</time>
   <energy>
    <i name="e_fr_energy">   -258.92720869 </i>
    <i name="e_wo_entrp">   -258.92720869 </i>
    <i name="e_0_energy">   -258.92720869 </i>
   </energy>
  </scstep>
  <scstep>
   <time name="diag">    0.35    0.36</time>
   <time name="diis">    1.31    1.32</time>
   <time name="orth">    0.06    0.06</time>
   <time name="total">    2.26    2.28</time>
   <energy>
    <i name="e_fr_energy">   -258.92721693 </i>
    <i name="e_wo_entrp">   -258.92721693 </i>
    <i name="e_0_energy">   -258.92721693 </i>
   </energy>
  </scstep>
  <scstep>
   <time name="diag">    0.35    0.36</time>
   <time name="diis">    1.18    1.19</time>
   <time name="orth">    0.06    0.07</time>
   <time name="total">    2.13    2.14</time>
   <energy>
    <i name="e_fr_energy">   -258.92721768 </i>
    <i name="e_wo_entrp">   -258.92721768 </i>
    <i name="e_0_energy">   -258.92721768 </i>
   </energy>
  </scstep>
  <scstep>
   <time name="diag">    0.36    0.36</time>
   <time name="diis">    0.82    0.82</time>
   <time name="orth">    0.06    0.06</time>
   <time name="total">    1.70    1.71</time>
   <energy>
    <i name="alphaZ">    299.22470438 </i>
    <i name="ewald">  -8804.82121496 </i>
    <i name="hartreedc">  -2212.91562130 </i>
    <i name="XCdc">    537.59836107 </i>
    <i name="pawpsdc">   9807.40616071 </i>
    <i name="pawaedc">  -9951.37071668 </i>
    <i name="eentropy">     -0.00000000 </i>
    <i name="bandstr">  -2637.18888666 </i>
    <i name="atom">  12703.13999606 </i>
    <i name="e_fr_energy">   -258.92721738 </i>
    <i name="e_wo_entrp">   -258.92721738 </i>
    <i name="e_0_energy">   -258.92721738 </i>
   </energy>
  </scstep>
  <structure>
   <crystal>
    <varray name="basis" >
     <v>       9.68058200       0.00000000       0.00000000 </v>
     <v>       0.00000000       9.68058200       0.00000000 </v>
     <v>       0.00000000       0.00000000       9.68058200 </v>
    </varray>
    <i name="volume">    907.20284691 </i>
    <varray name="rec_basis" >
     <v>       0.10329957       0.00000000       0.00000000 </v>
     <v>       0.00000000       0.10329957       0.00000000 </v>
     <v>       0.00000000       0.00000000       0.10329957 </v>
    </varray>
   </crystal>
   <varray name="positions" >
    <v>       0.95823872       0.16433854       0.18986082 </v>
    <v>       0.99051764       0.77858118       0.78824633 </v>
    <v>       0.02536858       0.20333502       0.82325060 </v>
    <v>       0.01829649       0.80724720       0.19727236 </v>
    <v>       0.29372689       0.27723077       0.98881621 </v>
    <v>       0.22367904       0.80352445       0.01687026 </v>
    <v>       0.68775351       0.31820373       0.02591009 </v>
    <v>       0.68132428       0.67013893       0.95339227 </v>
    <v>       0.30859784       0.96941923       0.35394575 </v>
    <v>       0.22498980       0.01938668       0.78142640 </v>
    <v>       0.79496346       0.97310361       0.82385571 </v>
    <v>       0.66959371       0.02167376       0.29528238 </v>
    <v>       0.17840583       0.67184599       0.46511795 </v>
    <v>       0.15409102       0.32753752       0.54391745 </v>
    <v>       0.81263763       0.71726262       0.51015695 </v>
    <v>       0.70898358       0.21939398       0.48742616 </v>
    <v>       0.34445869       0.47832469       0.79910527 </v>
    <v>       0.28110048       0.52392382       0.19682557 </v>
    <v>       0.83134245       0.46316282       0.30758873 </v>
    <v>       0.81521834       0.51682278       0.69098745 </v>
    <v>       0.46135969       0.18605516       0.67402358 </v>
    <v>       0.48207189       0.73140207       0.21938722 </v>
    <v>       0.50766619       0.29123547       0.23000072 </v>
    <v>       0.54592566       0.82813762       0.65734910 </v>
    <v>       0.49548436       0.50921145       0.50199668 </v>
    <v>       0.50613977       0.99875447       0.99514051 </v>
    <v>       0.00082630       0.49757725       0.00224035 </v>
    <v>       0.00064667       0.00988886       0.50026979 </v>
    <v>       0.12828596       0.87693132       0.60586761 </v>
    <v>       0.12054783       0.13644182       0.38113540 </v>
    <v>       0.87473724       0.90023411       0.36817670 </v>
    <v>       0.88282627       0.12357537       0.63447289 </v>
    <v>       0.87424157       0.62371896       0.11608269 </v>
    <v>       0.87291349       0.37975123       0.88049670 </v>
    <v>       0.13719843       0.60917225       0.88440371 </v>
    <v>       0.10636791       0.36511970       0.12996751 </v>
    <v>       0.61401159       0.13464525       0.87448784 </v>
    <v>       0.64239927       0.87462748       0.10121831 </v>
    <v>       0.37813012       0.09873216       0.13183468 </v>
    <v>       0.39837794       0.87056128       0.86452591 </v>
    <v>       0.62838414       0.61309512       0.37331301 </v>
    <v>       0.60732795       0.38776133       0.63610792 </v>
    <v>       0.37942915       0.64391715       0.61592952 </v>
    <v>       0.35852814       0.38806935       0.39364446 </v>
    <v>       0.75968217       0.74823515       0.74046677 </v>
    <v>       0.73986221       0.24778438       0.25103100 </v>
    <v>       0.24776547       0.75524000       0.24814752 </v>
    <v>       0.24782962       0.25517469       0.75709804 </v>
    <v>       0.02165508       0.98033210       0.96751041 </v>
    <v>       0.98111878       0.51733941       0.50169396 </v>
    <v>       0.51622298       0.01853135       0.49471404 </v>
    <v>       0.47874815       0.47428936       0.02801075 </v>
   </varray>
  </structure>
  <varray name="forces" >
   <v>       0.00405755      -0.01297388      -0.01193185 </v>
   <v>       0.00121427       0.00404197       0.00443114 </v>
   <v>      -0.00111647      -0.00834737       0.00809797 </v>
   <v>       0.00013817       0.01047695      -0.01175128 </v>
   <v>       0.00498450       0.00679198       0.00331957 </v>
   <v>      -0.00605762       0.00453360      -0.00363973 </v>
   <v>      -0.00695357       0.00839862       0.00082023 </v>
   <v>      -0.01360690      -0.01284531       0.00498720 </v>
   <v>       0.00565669       0.00264978       0.00594122 </v>
   <v>      -0.00442336      -0.00141179       0.00515986 </v>
   <v>       0.00452080       0.00147108       0.01117229 </v>
   <v>      -0.00912037      -0.00183443       0.00495095 </v>
   <v>      -0.00731830      -0.00979037       0.00076531 </v>
   <v>      -0.00788339       0.00883852      -0.00235869 </v>
   <v>       0.00425369      -0.00813885      -0.00201380 </v>
   <v>      -0.00439054      -0.00364952       0.00126689 </v>
   <v>       0.00986772       0.00199494       0.00432146 </v>
   <v>       0.00555102      -0.00194983      -0.00517186 </v>
   <v>       0.00750200       0.00332424       0.00373960 </v>
   <v>       0.00470089       0.00026965      -0.00818868 </v>
   <v>       0.00314631      -0.00766290      -0.00654492 </v>
   <v>       0.00100423      -0.00104799      -0.00770828 </v>
   <v>      -0.00271624       0.00286627      -0.00528512 </v>
   <v>      -0.00174248       0.00820755      -0.00600121 </v>
   <v>      -0.00881872       0.00468551       0.00656895 </v>
   <v>       0.00628487      -0.00115218      -0.00294407 </v>
   <v>      -0.00429898      -0.00118096       0.00236871 </v>
   <v>       0.00494942       0.01137681      -0.01004965 </v>
   <v>       0.00706853      -0.00202113      -0.00547784 </v>
   <v>      -0.00549453      -0.00753034       0.00664819 </v>
   <v>      -0.00084343       0.00382172      -0.00172568 </v>
   <v>       0.00039879      -0.00013748      -0.00168105 </v>
   <v>       0.00268970      -0.00413535      -0.00573681 </v>
   <v>       0.00162949       0.00324611       0.00565528 </v>
   <v>       0.00672724      -0.00782055      -0.00742700 </v>
   <v>      -0.00704696      -0.00196712       0.00517729 </v>
   <v>      -0.00593335       0.00127845      -0.00033160 </v>
   <v>       0.00558061       0.00819902      -0.01086379 </v>
   <v>      -0.00955483      -0.00706182       0.00647700 </v>
   <v>       0.01375610      -0.00560979       0.00038860 </v>
   <v>       0.00005681      -0.00189927      -0.00114899 </v>
   <v>      -0.00285548       0.00664316       0.01144991 </v>
   <v>       0.00150430      -0.00262333      -0.00582943 </v>
   <v>      -0.00215873      -0.00094656       0.01258254 </v>
   <v>      -0.00574918      -0.00006791       0.00027316 </v>
   <v>       0.00504557      -0.00017053      -0.00225724 </v>
   <v>      -0.00201201       0.00206337       0.00431678 </v>
   <v>      -0.00048685       0.00454764      -0.00489803 </v>
   <v>      -0.00193371       0.00192160       0.01149506 </v>
   <v>       0.00594193      -0.00484368       0.00133858 </v>
   <v>      -0.00172524      -0.00249187      -0.00010077 </v>
   <v>       0.00601007       0.00966356      -0.00264639 </v>
  </varray>
  <varray name="stress" >
   <v>      -3.29882647      -0.94843133      -0.68197749 </v>
   <v>      -0.94843093      -0.24753363      -0.03456450 </v>
   <v>      -0.68197745      -0.03456493      -1.60454420 </v>
  </varray>
  <energy>
   <i name="e_fr_energy">   -272.41752905 </i>
   <i name="e_wo_entrp">   -272.41752905 </i>
   <i name="e_0_energy">   -272.41752905 </i>
  </energy>
  <time name="totalsc">   14.05   14.18</time>
 </calculation>
 <calculation>
  <scstep>
   <time name="dav">    2.50    2.54</time>
   <time name="total">    3.03    3.07</time>
   <energy>
    <i name="alphaZ">    299.22470438 </i>
    <i name="ewald">  -8804.86626200 </i>
    <i name="hartreedc">  -2212.87975837 </i>
    <i name="XCdc">    537.59722411 </i>
    <i name="pawpsdc">   9807.43410144 </i>
    <i name="pawaedc">  -9951.39897377 </i>
    <i name="eentropy">     -0.00000000 </i>
    <i name="bandstr">  -2637.17824604 </i>
    <i name="atom">  12703.13999606 </i>
    <i name="e_fr_energy">   -258.92721418 </i>
    <i name="e_wo_entrp">   -258.92721418 </i>
    <i name="e_0_energy">   -258.92721418 </i>
   </energy>
  </scstep>
  <scstep>
   <time name="diag">    0.36    0.36</time>
   <time name="diis">    0.80    0.81</time>
   <time name="orth">    0.06    0.06</time>
   <time name="total">    1.68    1.69</time>
   <energy>
    <i name="alphaZ">    299.22470438 </i>
    <i name="ewald">  -8804.86626200 </i>
    <i name="hartreedc">  -2212.87774616 </i>
    <i name="XCdc">    537.59718406 </i>
    <i name="pawpsdc">   9807.40766238 </i>
    <i name="pawaedc">  -9951.37249081 </i>
    <i name="eentropy">     -0.00000000 </i>
    <i name="bandstr">  -2637.18026206 </i>
    <i name="atom">  12703.13999606 </i>
    <i name="e_fr_energy">   -258.92721413 </i>
    <i name="e_wo_entrp">   -258.92721413 </i>
    <i name="e_0_energy">   -258.92721413 </i>
   </energy>
  </scstep>
  <structure>
   <crystal>
    <varray name="basis" >
     <v>       9.68058200       0.00000000       0.00000000 </v>
     <v>       0.00000000       9.68058200       0.00000000 </v>
     <v>       0.00000000       0.00000000       9.68058200 </v>
    </varray>
    <i name="volume">    907.20284691 </i>
    <varray name="rec_basis" >
     <v>       0.10329957       0.00000000       0.00000000 </v>
     <v>       0.00000000       0.10329957       0.00000000 </v>
     <v>       0.00000000       0.00000000       0.10329957 </v>
    </varray>
   </crystal>
   <varray name="positions" >
    <v>       0.95823894       0.16433811       0.18986035 </v>
    <v>       0.99051782       0.77858136       0.78824649 </v>
    <v>       0.02536841       0.20333467       0.82325088 </v>
[...]
   <v>      -0.00024492      -0.00023893       0.00015407 </v>
   <v>       0.00044823      -0.00013877      -0.00005478 </v>
   <v>      -0.00002775       0.00026238      -0.00028708 </v>
   <v>       0.00000670       0.00020092      -0.00003441 </v>
   <v>       0.00031254      -0.00030314       0.00123574 </v>
   <v>      -0.00009550      -0.00039645      -0.00003069 </v>
   <v>      -0.00055745       0.00058410      -0.00005669 </v>
   <v>       0.00047896       0.00074753       0.00014369 </v>
  </varray>
  <varray name="stress" >
   <v>      -3.83492523      -0.91837303      -0.55622122 </v>
   <v>      -0.91837267      -0.76794604      -0.03493681 </v>
   <v>      -0.55622110      -0.03493720      -2.22978126 </v>
  </varray>
  <energy>
   <i name="e_fr_energy">   -272.41918110 </i>
   <i name="e_wo_entrp">   -272.41918110 </i>
   <i name="e_0_energy">   -272.41918110 </i>
  </energy>
  <time name="totalsc">    6.28    6.35</time>
 </calculation>
 <calculation>
  <scstep>
   <time name="dav">    1.29    1.30</time>
   <time name="total">    1.82    1.83</time>
   <energy>
    <i name="alphaZ">    299.22470438 </i>
    <i name="ewald">  -8809.13381881 </i>
    <i name="hartreedc">  -2208.85996672 </i>
    <i name="XCdc">    537.53762485 </i>
    <i name="pawpsdc">   9801.81548815 </i>
    <i name="pawaedc">  -9945.75398525 </i>
    <i name="eentropy">     -0.00000000 </i>
    <i name="bandstr">  -2636.89877771 </i>
    <i name="atom">  12703.13999606 </i>
    <i name="e_fr_energy">   -258.92873506 </i>
    <i name="e_wo_entrp">   -258.92873506 </i>
    <i name="e_0_energy">   -258.92873506 </i>
   </energy>
  </scstep>
  <scstep>
   <time name="diag">    0.36    0.36</time>
   <time name="diis">    0.34    0.34</time>
   <time name="orth">    0.07    0.07</time>
   <time name="total">    1.21    1.22</time>
   <energy>
    <i name="alphaZ">    299.22470438 </i>
    <i name="ewald">  -8809.13381881 </i>
    <i name="hartreedc">  -2208.85996668 </i>
    <i name="XCdc">    537.53762496 </i>
    <i name="pawpsdc">   9801.81550286 </i>
    <i name="pawaedc">  -9945.75400017 </i>
    <i name="eentropy">     -0.00000000 </i>
    <i name="bandstr">  -2636.89877765 </i>
    <i name="atom">  12703.13999606 </i>
    <i name="e_fr_energy">   -258.92873506 </i>
    <i name="e_wo_entrp">   -258.92873506 </i>
    <i name="e_0_energy">   -258.92873506 </i>
   </energy>
  </scstep>
  <structure>
   <crystal>
    <varray name="basis" >
     <v>       9.68058200       0.00000000       0.00000000 </v>
     <v>       0.00000000       9.68058200       0.00000000 </v>
     <v>       0.00000000       0.00000000       9.68058200 </v>
    </varray>
    <i name="volume">    907.20284691 </i>
    <varray name="rec_basis" >
     <v>       0.10329957       0.00000000       0.00000000 </v>
     <v>       0.00000000       0.10329957       0.00000000 </v>
     <v>       0.00000000       0.00000000       0.10329957 </v>
    </varray>
   </crystal>
   <varray name="positions" >
    <v>       0.95816738       0.16281012       0.18860897 </v>
    <v>       0.99055686       0.77826167       0.78808979 </v>
    <v>       0.02531883       0.20291035       0.82394223 </v>
    <v>       0.01828407       0.80906570       0.19577466 </v>
    <v>       0.29365558       0.27753739       0.98913910 </v>
    <v>       0.22395092       0.80301588       0.01651026 </v>
    <v>       0.68753025       0.31887817       0.02618341 </v>
    <v>       0.67987669       0.66868771       0.95316582 </v>
    <v>       0.30837636       0.96921239       0.35466805 </v>
    <v>       0.22542857       0.01933626       0.78137267 </v>
    <v>       0.79466758       0.97268706       0.82578592 </v>
    <v>       0.66915661       0.02154398       0.29544812 </v>
    <v>       0.17781223       0.67159751       0.46476154 </v>
    <v>       0.15341530       0.32777868       0.54423240 </v>
    <v>       0.81274673       0.71689091       0.51006515 </v>
    <v>       0.70896663       0.21966790       0.48775480 </v>
    <v>       0.34600978       0.47825256       0.79877165 </v>
    <v>       0.28117171       0.52391279       0.19700742 </v>
    <v>       0.83239525       0.46298876       0.30715090 </v>
    <v>       0.81546589       0.51666334       0.69094547 </v>
    <v>       0.46108040       0.18602409       0.67348204 </v>
    <v>       0.48229639       0.73118076       0.21820380 </v>
    <v>       0.50771205       0.29087353       0.23048080 </v>
    <v>       0.54618401       0.82850521       0.65691262 </v>
    <v>       0.49538611       0.50946538       0.50196207 </v>
    <v>       0.50629539       0.99898734       0.99503878 </v>
    <v>       0.00097083       0.49768450       0.00220577 </v>
    <v>       0.00039354       0.01001385       0.50034938 </v>
    <v>       0.12835312       0.87705054       0.60578149 </v>
    <v>       0.12012853       0.13656867       0.38118208 </v>
    <v>       0.87466850       0.90018680       0.36819650 </v>
    <v>       0.88257433       0.12317549       0.63501021 </v>
    <v>       0.87446576       0.62415699       0.11568936 </v>
    <v>       0.87296577       0.37967510       0.88071287 </v>
    <v>       0.13754549       0.60871751       0.88396823 </v>
    <v>       0.10611762       0.36523057       0.13034573 </v>
    <v>       0.61362170       0.13527609       0.87439972 </v>
    <v>       0.64314848       0.87503842       0.10053985 </v>
    <v>       0.37802740       0.09853064       0.13192728 </v>
    <v>       0.39885614       0.87039872       0.86448205 </v>
    <v>       0.62843564       0.61278749       0.37297646 </v>
    <v>       0.60689320       0.38825361       0.63668400 </v>
    <v>       0.37926699       0.64441305       0.61544416 </v>
    <v>       0.35842439       0.38791960       0.39401628 </v>
    <v>       0.75959505       0.74806724       0.74059844 </v>
    <v>       0.74009028       0.24762394       0.25106388 </v>
    <v>       0.24771010       0.75532584       0.24796152 </v>
    <v>       0.24772604       0.25526242       0.75733046 </v>
    <v>       0.02139145       0.98052629       0.96920334 </v>
    <v>       0.98121423       0.51696675       0.50184250 </v>
    <v>       0.51601790       0.01861441       0.49468815 </v>
    <v>       0.47948994       0.47580003       0.02794186 </v>
   </varray>
  </structure>
  <varray name="forces" >
   <v>       0.00037398      -0.00019094      -0.00067914 </v>
   <v>      -0.00016481      -0.00008814      -0.00025188 </v>
   <v>      -0.00022989      -0.00041862      -0.00019408 </v>
   <v>       0.00009670       0.00207398      -0.00135232 </v>
   <v>       0.00003700       0.00083899      -0.00003076 </v>
   <v>       0.00000068      -0.00128079      -0.00085740 </v>
   <v>      -0.00034087       0.00052782       0.00033614 </v>
   <v>      -0.00046426      -0.00055716       0.00008677 </v>
   <v>      -0.00024020       0.00000873       0.00021901 </v>
   <v>       0.00014045      -0.00014312      -0.00043446 </v>
   <v>      -0.00008837      -0.00081579       0.00251758 </v>
   <v>       0.00025358      -0.00018617       0.00052124 </v>
   <v>      -0.00009434      -0.00003279      -0.00041576 </v>
   <v>       0.00007794       0.00043100       0.00017011 </v>
   <v>      -0.00054453      -0.00079058      -0.00020357 </v>
   <v>       0.00081074       0.00062122       0.00033511 </v>
   <v>       0.00158034      -0.00015872      -0.00027662 </v>
   <v>       0.00011055      -0.00023375       0.00038968 </v>
   <v>       0.00101132       0.00000542      -0.00071198 </v>
   <v>       0.00029507      -0.00038864       0.00019010 </v>
   <v>       0.00020022       0.00001659      -0.00002809 </v>
   <v>       0.00007194      -0.00061650      -0.00099932 </v>
   <v>       0.00008115      -0.00040672       0.00048848 </v>
   <v>       0.00017662       0.00069540      -0.00008616 </v>
   <v>      -0.00042459      -0.00018472      -0.00105002 </v>
   <v>       0.00040750      -0.00199403      -0.00047137 </v>
   <v>      -0.00140706       0.00011475      -0.00039436 </v>
   <v>      -0.00272858       0.00134503       0.00220068 </v>
   <v>       0.00052792      -0.00074216       0.00014713 </v>
   <v>      -0.00003936       0.00049833      -0.00003255 </v>
   <v>      -0.00017962      -0.00062347      -0.00017754 </v>
   <v>       0.00033502      -0.00200043      -0.00047143 </v>
   <v>       0.00055292       0.00020147      -0.00062881 </v>
   <v>       0.00014349       0.00016716       0.00078069 </v>
   <v>       0.00028453      -0.00054962      -0.00145514 </v>
   <v>       0.00015236       0.00000386       0.00026746 </v>
   <v>      -0.00022808       0.00034983       0.00031460 </v>
   <v>      -0.00098670       0.00148734      -0.00098073 </v>
   <v>      -0.00086465       0.00048278       0.00064500 </v>
   <v>       0.00113700       0.00102893       0.00086883 </v>
   <v>      -0.00017871      -0.00058155      -0.00017335 </v>
   <v>      -0.00028815       0.00056591       0.00052336 </v>
   <v>       0.00008284       0.00043789      -0.00039088 </v>
   <v>       0.00022984       0.00036419       0.00067495 </v>
   <v>      -0.00024500      -0.00023934       0.00015417 </v>
   <v>       0.00044846      -0.00013893      -0.00005478 </v>
   <v>      -0.00002777       0.00026222      -0.00028785 </v>
   <v>       0.00000676       0.00020064      -0.00003428 </v>
   <v>       0.00031298      -0.00030330       0.00123690 </v>
   <v>      -0.00009563      -0.00039700      -0.00003072 </v>
   <v>      -0.00055815       0.00058493      -0.00005666 </v>
   <v>       0.00047943       0.00074860       0.00014400 </v>
  </varray>
  <varray name="stress" >
   <v>      -3.83492654      -0.91837309      -0.55622117 </v>
   <v>      -0.91837279      -0.76794769      -0.03493663 </v>
   <v>      -0.55622116      -0.03493690      -2.22978265 </v>
  </varray>
  <energy>
   <i name="e_fr_energy">   -272.41918110 </i>
   <i name="e_wo_entrp">   -272.41918110 </i>
   <i name="e_0_energy">   -272.41918110 </i>
  </energy>
  <time name="totalsc">    6.10    6.16</time>
 </calculation>
 <calculation>
  <scstep>
   <time name="dav">    2.08    2.10</time>
   <time name="total">    2.61    2.63</time>
   <energy>
    <i name="alphaZ">    299.22470438 </i>
    <i name="ewald">  -8809.15927136 </i>
    <i name="hartreedc">  -2208.84219525 </i>
    <i name="XCdc">    537.53678163 </i>
    <i name="pawpsdc">   9801.81551496 </i>
    <i name="pawaedc">  -9945.75401244 </i>
    <i name="eentropy">     -0.00000000 </i>
    <i name="bandstr">  -2636.89024597 </i>
    <i name="atom">  12703.13999606 </i>
    <i name="e_fr_energy">   -258.92872798 </i>
    <i name="e_wo_entrp">   -258.92872798 </i>
    <i name="e_0_energy">   -258.92872798 </i>
   </energy>
  </scstep>
  <scstep>
   <time name="diag">    0.36    0.36</time>
   <time name="diis">    1.37    1.39</time>
   <time name="orth">    0.06    0.06</time>
   <time name="total">    2.37    2.40</time>
   <energy>
    <i name="e_fr_energy">   -258.92873127 </i>
    <i name="e_wo_entrp">   -258.92873127 </i>
    <i name="e_0_energy">   -258.92873127 </i>
   </energy>
  </scstep>
  <scstep>
   <time name="diag">    0.36    0.36</time>
   <time name="diis">    1.30    1.52</time>
   <time name="orth">    0.06    0.06</time>
   <time name="total">    2.25    2.47</time>
   <energy>
    <i name="e_fr_energy">   -258.92873226 </i>
    <i name="e_wo_entrp">   -258.92873226 </i>
    <i name="e_0_energy">   -258.92873226 </i>
   </energy>
  </scstep>
  <scstep>
   <time name="diag">    0.35    0.35</time>
   <time name="diis">    0.82    0.83</time>
   <time name="orth">    0.06    0.06</time>
   <time name="total">    1.70    1.71</time>
   <energy>
    <i name="alphaZ">    299.22470438 </i>
    <i name="ewald">  -8809.15927136 </i>
    <i name="hartreedc">  -2208.83978678 </i>
    <i name="XCdc">    537.53673373 </i>
    <i name="pawpsdc">   9801.78006857 </i>
    <i name="pawaedc">  -9945.71853012 </i>
    <i name="eentropy">     -0.00000000 </i>
    <i name="bandstr">  -2636.89264672 </i>
    <i name="atom">  12703.13999606 </i>
    <i name="e_fr_energy">   -258.92873223 </i>
    <i name="e_wo_entrp">   -258.92873223 </i>
    <i name="e_0_energy">   -258.92873223 </i>
   </energy>
  </scstep>
  <structure>
   <crystal>
    <varray name="basis" >
     <v>       9.68058200       0.00000000       0.00000000 </v>
     <v>       0.00000000       9.68058200       0.00000000 </v>
     <v>       0.00000000       0.00000000       9.68058200 </v>
    </varray>
    <i name="volume">    907.20284691 </i>
    <varray name="rec_basis" >
     <v>       0.10329957       0.00000000       0.00000000 </v>
     <v>       0.00000000       0.10329957       0.00000000 </v>
     <v>       0.00000000       0.00000000       0.10329957 </v>
    </varray>
   </crystal>
   <varray name="positions" >
    <v>       0.95816059       0.16281274       0.18861503 </v>
    <v>       0.99055575       0.77826057       0.78809269 </v>
    <v>       0.02532207       0.20291469       0.82394271 </v>
    <v>       0.01828381       0.80904667       0.19578766 </v>
    <v>       0.29365418       0.27752913       0.98913847 </v>
    <v>       0.22395072       0.80302583       0.01651911 </v>
    <v>       0.68753455       0.31887333       0.02618137 </v>
    <v>       0.67988167       0.66869397       0.95316461 </v>
    <v>       0.30837796       0.96920998       0.35466452 </v>
    <v>       0.22542857       0.01933635       0.78137652 </v>
    <v>       0.79466496       0.97269525       0.82576286 </v>
    <v>       0.66915445       0.02154671       0.29544311 </v>
    <v>       0.17781209       0.67159854       0.46476202 </v>
    <v>       0.15341555       0.32777465       0.54423417 </v>
    <v>       0.81275180       0.71689982       0.51006663 </v>
    <v>       0.70896021       0.21966330       0.48775271 </v>
    <v>       0.34599359       0.47825268       0.79877282 </v>
    <v>       0.28117016       0.52391449       0.19700493 </v>
    <v>       0.83238520       0.46298809       0.30715576 </v>
    <v>       0.81546361       0.51666636       0.69094555 </v>
    <v>       0.46107623       0.18602495       0.67348306 </v>
    <v>       0.48229488       0.73118837       0.21821096 </v>
    <v>       0.50771088       0.29087715       0.23047844 </v>
    <v>       0.54618355       0.82849923       0.65691548 </v>
    <v>       0.49538472       0.50946019       0.50195650 </v>
    <v>       0.50630113       0.99897052       0.99503132 </v>
    <v>       0.00096486       0.49768522       0.00220760 </v>
    <v>       0.00038728       0.01002450       0.50035722 </v>
    <v>       0.12836171       0.87705030       0.60578477 </v>
    <v>       0.12013426       0.13656561       0.38117611 </v>
    <v>       0.87466926       0.90018722       0.36819102 </v>
    <v>       0.88258577       0.12318321       0.63499629 </v>
    <v>       0.87445932       0.62414964       0.11569339 </v>
    <v>       0.87297037       0.37968094       0.88071243 </v>
    <v>       0.13755075       0.60872729       0.88397661 </v>
    <v>       0.10612190       0.36522518       0.13034763 </v>
    <v>       0.61363290       0.13527791       0.87438942 </v>
    <v>       0.64314548       0.87503186       0.10054306 </v>
    <v>       0.37802640       0.09853527       0.13193659 </v>
    <v>       0.39885210       0.87039500       0.86447782 </v>
    <v>       0.62844096       0.61279571       0.37297964 </v>
    <v>       0.60689986       0.38824307       0.63668530 </v>
    <v>       0.37926671       0.64440843       0.61545042 </v>
    <v>       0.35842340       0.38791960       0.39401265 </v>
    <v>       0.75959620       0.74807130       0.74059741 </v>
    <v>       0.74008863       0.24762535       0.25106413 </v>
    <v>       0.24771064       0.75532796       0.24796875 </v>
    <v>       0.24772579       0.25526553       0.75732948 </v>
    <v>       0.02138812       0.98052848       0.96919269 </v>
    <v>       0.98121545       0.51697078       0.50184282 </v>
    <v>       0.51602260       0.01860879       0.49468787 </v>
    <v>       0.47948639       0.47579223       0.02793991 </v>
   </varray>
  </structure>
  <varray name="forces" >
   <v>       0.00103398      -0.00039294      -0.00101979 </v>
   <v>       0.00020372       0.00015442      -0.00053372 </v>
   <v>      -0.00035813      -0.00076626      -0.00003212 </v>
   <v>       0.00014262       0.00257713      -0.00164742 </v>
   <v>       0.00016495       0.00143887       0.00014345 </v>
   <v>      -0.00008929      -0.00177272      -0.00131762 </v>
   <v>      -0.00075523       0.00085031       0.00048680 </v>
   <v>      -0.00082084      -0.00106834       0.00018116 </v>
   <v>      -0.00035057       0.00033296       0.00052832 </v>
   <v>      -0.00006797      -0.00003446      -0.00071897 </v>
   <v>       0.00022717      -0.00108484       0.00312892 </v>
   <v>       0.00034512      -0.00036452       0.00094288 </v>
   <v>      -0.00007611      -0.00007601      -0.00020908 </v>
   <v>       0.00000358       0.00070383      -0.00015585 </v>
   <v>      -0.00082610      -0.00140100      -0.00028712 </v>
   <v>       0.00106905       0.00084751       0.00034615 </v>
   <v>       0.00203227      -0.00007386      -0.00016060 </v>
   <v>       0.00021223      -0.00033788       0.00041756 </v>
   <v>       0.00166848       0.00008357      -0.00087703 </v>
   <v>       0.00039461      -0.00053543       0.00004093 </v>
   <v>       0.00065173      -0.00008156      -0.00014543 </v>
   <v>       0.00010723      -0.00122739      -0.00125343 </v>
   <v>       0.00016957      -0.00067123       0.00043069 </v>
   <v>       0.00015080       0.00106475      -0.00046575 </v>
   <v>       0.00069740       0.00051679       0.00072103 </v>
   <v>      -0.00093091       0.00281516       0.00099758 </v>
   <v>       0.00131412       0.00005183       0.00009659 </v>
   <v>       0.00088532      -0.00219409      -0.00108553 </v>
   <v>      -0.00124244       0.00030801      -0.00066365 </v>
   <v>      -0.00085231       0.00037931       0.00087304 </v>
   <v>       0.00015096       0.00007426       0.00102800 </v>
   <v>      -0.00193982      -0.00082842       0.00214786 </v>
   <v>       0.00072853       0.00081925      -0.00063804 </v>
   <v>      -0.00063627      -0.00058823       0.00024521 </v>
   <v>      -0.00083703      -0.00157147      -0.00120209 </v>
   <v>      -0.00090174       0.00102713      -0.00059965 </v>
   <v>      -0.00210934      -0.00145019       0.00208316 </v>
   <v>      -0.00049554       0.00156031      -0.00115004 </v>
   <v>       0.00113378      -0.00145037      -0.00207427 </v>
   <v>       0.00145716       0.00109271       0.00106281 </v>
   <v>      -0.00110283      -0.00143808       0.00008125 </v>
   <v>      -0.00141430       0.00195235      -0.00062673 </v>
   <v>       0.00054092       0.00000395      -0.00134023 </v>
   <v>       0.00023583       0.00025638       0.00081916 </v>
   <v>      -0.00032528      -0.00037948       0.00019817 </v>
   <v>       0.00041189      -0.00020614      -0.00003269 </v>
   <v>      -0.00001856       0.00003147      -0.00074360 </v>
   <v>      -0.00005057      -0.00010988       0.00005570 </v>
   <v>       0.00049786      -0.00031243       0.00161924 </v>
   <v>      -0.00018208      -0.00064799      -0.00003439 </v>
   <v>      -0.00075745       0.00087794       0.00000794 </v>
   <v>       0.00050987       0.00124500       0.00033125 </v>
  </varray>
  <varray name="stress" >
   <v>      -3.84284234      -0.91877927      -0.55511318 </v>
   <v>      -0.91877882      -0.77641647      -0.02481214 </v>
   <v>      -0.55511303      -0.02481278      -2.23720518 </v>
  </varray>
  <energy>
   <i name="e_fr_energy">   -272.41917627 </i>
   <i name="e_wo_entrp">   -272.41917627 </i>
   <i name="e_0_energy">   -272.41917627 </i>
  </energy>
