unknown system                          
           1
     9.680582    0.000000    0.000000
     0.000000    9.680582    0.000000
     0.000000    0.000000    9.680582
   Li   P    S    Cl
    24     4    20     4
Direct configuration=     1
   0.95821061  0.16439341  0.18992078
   0.99049394  0.77855810  0.78822592
   0.02539007  0.20338017  0.82321517
   0.01831070  0.80719837  0.19732888
   0.29370221  0.27719683  0.98878383
   0.22371290  0.80350481  0.01690378
   0.68778744  0.31816815  0.02592126
   0.68138995  0.67020052  0.95335567
   0.30856943  0.96940240  0.35392387
   0.22501692  0.01940871  0.78140371
   0.79493552  0.97308855  0.82380522
   0.66962894  0.02169740  0.29525607
   0.17844019  0.67188467  0.46510303
   0.15412394  0.32749444  0.54393434
   0.81262244  0.71730482  0.51017947
   0.70900012  0.21941260  0.48740379
   0.34441902  0.47831079  0.79907938
   0.28107222  0.52394462  0.19685140
   0.83131019  0.46313936  0.30756982
   0.81520408  0.51683718  0.69102321
   0.46133084  0.18609046  0.67405197
   0.48205478  0.73141414  0.21941817
   0.50769562  0.29122304  0.23002987
   0.54594438  0.82810094  0.65737224
   0.49546136  0.50920973  0.50197925
   0.50616639  0.99871297  0.99514911
   0.00078328  0.49759048  0.00223895
   0.00066062  0.00992782  0.50023029
   0.12798948  0.87721741  0.60568223
   0.12025630  0.13612558  0.38141958
   0.87501009  0.90044212  0.36845960
   0.88308676  0.12332667  0.63419810
   0.87453005  0.62342578  0.11583706
   0.87318857  0.37999307  0.88075005
   0.13687441  0.60897695  0.88469512
   0.10618675  0.36541060  0.12966529
   0.61378363  0.13431646  0.87476420
   0.64204212  0.87488145  0.10101271
   0.37844168  0.09856739  0.13151233
   0.39855596  0.87088055  0.86482257
   0.62810534  0.61287906  0.37359557
   0.60709992  0.38798329  0.63577193
   0.37970046  0.64358653  0.61568087
   0.35885252  0.38835433  0.39382921
   0.75973438  0.74823351  0.74046433
   0.73981561  0.24778250  0.25104834
   0.24778099  0.75521696  0.24810535
   0.24783018  0.25513076  0.75714881
   0.02166830  0.98032078  0.96744439
   0.98107800  0.51736873  0.50169090
   0.51623661  0.01854776  0.49471379
   0.47871381  0.47423632  0.02802923
Direct configuration=     2
   0.95822163  0.16437190  0.18989728
   0.99050323  0.77856715  0.78823392
   0.02538165  0.20336247  0.82322906
   0.01830513  0.80721751  0.19730673
   0.29371188  0.27721014  0.98879652
   0.22369962  0.80351251  0.01689064
   0.68777414  0.31818209  0.02591688
   0.68136421  0.67017638  0.95337002
   0.30858056  0.96940900  0.35393244
   0.22500629  0.01940008  0.78141260
   0.79494647  0.97309445  0.82382501
   0.66961513  0.02168813  0.29526639
   0.17842672  0.67186951  0.46510888
   0.15411103  0.32751132  0.54392772
   0.81262839  0.71728828  0.51017065
   0.70899364  0.21940530  0.48741256
   0.34443457  0.47831624  0.79908953
   0.28108330  0.52393647  0.19684127
   0.83132284  0.46314855  0.30757723
   0.81520967  0.51683154  0.69100919
   0.46134215  0.18607662  0.67404085
   0.48206149  0.73140941  0.21940604
   0.50768409  0.29122791  0.23001845
   0.54593704  0.82811531  0.65736317
   0.49547038  0.50921040  0.50198608
   0.50615595  0.99872924  0.99514574
   0.00080014  0.49758530  0.00223950
   0.00065515  0.00991255  0.50024577
   0.12810570  0.87710527  0.60575489
   0.12037057  0.13624953  0.38130819
   0.87490314  0.90036059  0.36834871
   0.88298465  0.12342415  0.63430581
   0.87441697  0.62354070  0.11593334
   0.87308075  0.37989828  0.88065074
   0.13700142  0.60905350  0.88458089
   0.10625776  0.36529658  0.12978375
   0.61387299  0.13444534  0.87465588
   0.64218211  0.87478190  0.10109330
   0.37831955  0.09863198  0.13163868
   0.39848618  0.87075541  0.86470629
   0.62821462  0.61296375  0.37348481
   0.60718930  0.38789629  0.63590363
   0.37959411  0.64371612  0.61577833
   0.35872538  0.38824263  0.39375679
   0.75971392  0.74823415  0.74046529
   0.73983387  0.24778323  0.25104154
   0.24777491  0.75522599  0.24812188
   0.24782996  0.25514798  0.75712891
   0.02166312  0.98032522  0.96747026
   0.98109398  0.51735724  0.50169210
   0.51623127  0.01854132  0.49471389
   0.47872727  0.47425711  0.02802198
Direct configuration=     3
   0.95824155  0.16433302  0.18985480
   0.99052002  0.77858350  0.78824838
   0.02536642  0.20333048  0.82325416
   0.01829507  0.80725211  0.19726668
   0.29372937  0.27723418  0.98881947
   0.22367564  0.80352643  0.01686689
   0.68775010  0.31820730  0.02590897
   0.68131769  0.67013274  0.95339594
   0.30860070  0.96942092  0.35394795
   0.22498708  0.01938447  0.78142868
   0.79496627  0.97310513  0.82386078
   0.66959018  0.02167138  0.29528502
   0.17840238  0.67184210  0.46511945
   0.15408771  0.32754185  0.54391576
   0.81263916  0.71725838  0.51015469
   0.70898192  0.21939211  0.48742840
   0.34446267  0.47832609  0.79910787
   0.28110332  0.52392173  0.19682297
   0.83134569  0.46316517  0.30759063
   0.81521978  0.51682133  0.69098386
   0.46136258  0.18605162  0.67402073
   0.48207361  0.73140086  0.21938412
   0.50766324  0.29123672  0.22999779
   0.54592378  0.82814130  0.65734678
   0.49548667  0.50921163  0.50199843
   0.50613709  0.99875864  0.99513964
   0.00083062  0.49757592  0.00224049
   0.00064527  0.00988494  0.50027376
   0.12831574  0.87690258  0.60588624
   0.12057711  0.13647358  0.38110686
   0.87470984  0.90021322  0.36814829
   0.88280011  0.12360035  0.63450049
   0.87421259  0.62374841  0.11610736
   0.87288586  0.37972694  0.88047126
   0.13723098  0.60919187  0.88437444
   0.10638610  0.36509049  0.12999787
   0.61403448  0.13467828  0.87446008
   0.64243514  0.87460197  0.10123896
   0.37809882  0.09874871  0.13186705
   0.39836006  0.87052921  0.86449611
   0.62841214  0.61311682  0.37328463
   0.60735086  0.38773904  0.63614167
   0.37940190  0.64395036  0.61595449
   0.35849556  0.38804072  0.39362591
   0.75967693  0.74823531  0.74046701
   0.73986689  0.24778457  0.25102926
   0.24776391  0.75524232  0.24815176
   0.24782956  0.25517911  0.75709294
   0.02165375  0.98033323  0.96751704
   0.98112287  0.51733646  0.50169426
   0.51622161  0.01852970  0.49471407
   0.47875160  0.47429469  0.02800889
Direct configuration=     4
   0.95823872  0.16433854  0.18986082
   0.99051764  0.77858118  0.78824633
   0.02536858  0.20333502  0.82325060
   0.01829649  0.80724720  0.19727236
   0.29372689  0.27723077  0.98881621
   0.22367904  0.80352445  0.01687026
   0.68775351  0.31820373  0.02591009
   0.68132428  0.67013893  0.95339227
   0.30859784  0.96941923  0.35394575
   0.22498980  0.01938668  0.78142640
   0.79496346  0.97310361  0.82385571
   0.66959371  0.02167376  0.29528238
   0.17840583  0.67184599  0.46511795
   0.15409102  0.32753752  0.54391745
   0.81263763  0.71726262  0.51015695
   0.70898358  0.21939398  0.48742616
   0.34445869  0.47832469  0.79910527
   0.28110048  0.52392382  0.19682557
   0.83134245  0.46316282  0.30758873
   0.81521834  0.51682278  0.69098745
   0.46135969  0.18605516  0.67402358
   0.48207189  0.73140207  0.21938722
   0.50766619  0.29123547  0.23000072
   0.54592566  0.82813762  0.65734910
   0.49548436  0.50921145  0.50199668
   0.50613977  0.99875447  0.99514051
   0.00082630  0.49757725  0.00224035
   0.00064667  0.00988886  0.50026979
   0.12828596  0.87693132  0.60586761
   0.12054783  0.13644182  0.38113540
   0.87473724  0.90023411  0.36817670
   0.88282627  0.12357537  0.63447289
   0.87424157  0.62371896  0.11608269
   0.87291349  0.37975123  0.88049670
   0.13719843  0.60917225  0.88440371
   0.10636791  0.36511970  0.12996751
   0.61401159  0.13464525  0.87448784
   0.64239927  0.87462748  0.10121831
   0.37813012  0.09873216  0.13183468
   0.39837794  0.87056128  0.86452591
   0.62838414  0.61309512  0.37331301
   0.60732795  0.38776133  0.63610792
   0.37942915  0.64391715  0.61592952
   0.35852814  0.38806935  0.39364446
   0.75968217  0.74823515  0.74046677
   0.73986221  0.24778438  0.25103100
   0.24776547  0.75524000  0.24814752
   0.24782962  0.25517469  0.75709804
   0.02165508  0.98033210  0.96751041
   0.98111878  0.51733941  0.50169396
   0.51622298  0.01853135  0.49471404
   0.47874815  0.47428936  0.02801075
Direct configuration=     5
   0.95823894  0.16433811  0.18986035
   0.99051782  0.77858136  0.78824649
   0.02536841  0.20333467  0.82325088
   0.01829638  0.80724759  0.19727192
   0.29372708  0.27723104  0.98881647
   0.22367877  0.80352461  0.01687000
   0.68775325  0.31820400  0.02591000
   0.68132377  0.67013845  0.95339255
   0.30859806  0.96941936  0.35394592
   0.22498959  0.01938651  0.78142658
   0.79496368  0.97310373  0.82385610
   0.66959344  0.02167357  0.29528259
   0.17840556  0.67184569  0.46511807
   0.15409076  0.32753786  0.54391732
   0.81263775  0.71726229  0.51015678
   0.70898346  0.21939384  0.48742633
   0.34445900  0.47832480  0.79910547
   0.28110070  0.52392366  0.19682537
   0.83134270  0.46316300  0.30758887
   0.81521845  0.51682267  0.69098717
   0.46135991  0.18605489  0.67402336
   0.48207203  0.73140198  0.21938698
   0.50766596  0.29123557  0.23000049
   0.54592551  0.82813790  0.65734892
   0.49548454  0.50921147  0.50199682
   0.50613956  0.99875480  0.99514044
   0.00082664  0.49757715  0.00224036
   0.00064656  0.00988855  0.50027010
   0.12828827  0.87692909  0.60586906
   0.12055010  0.13644428  0.38113319
   0.87473512  0.90023249  0.36817450
   0.88282424  0.12357731  0.63447503
   0.87423932  0.62372125  0.11608460
   0.87291135  0.37974935  0.88049473
   0.13720096  0.60917377  0.88440143
   0.10636932  0.36511744  0.12996987
   0.61401337  0.13464782  0.87448568
   0.64240205  0.87462550  0.10121991
   0.37812769  0.09873345  0.13183719
   0.39837655  0.87055879  0.86452359
   0.62838631  0.61309681  0.37331080
   0.60732973  0.38775960  0.63611054
   0.37942704  0.64391973  0.61593146
   0.35852561  0.38806712  0.39364302
   0.75968176  0.74823516  0.74046679
   0.73986258  0.24778439  0.25103087
   0.24776535  0.75524018  0.24814785
   0.24782961  0.25517504  0.75709764
   0.02165498  0.98033218  0.96751092
   0.98111909  0.51733918  0.50169398
   0.51622288  0.01853122  0.49471405
   0.47874842  0.47428977  0.02801060
Direct configuration=     6
   0.95824982  0.16430363  0.18982858
   0.99052102  0.77859181  0.78825798
   0.02536537  0.20331263  0.82327212
   0.01829663  0.80727516  0.19724087
   0.29374014  0.27724883  0.98882522
   0.22366277  0.80353647  0.01686023
   0.68773484  0.31822620  0.02591198
   0.68128742  0.67010410  0.95340595
   0.30861288  0.96942628  0.35396139
   0.22497798  0.01938263  0.78144006
   0.79497574  0.97310768  0.82388570
   0.66956952  0.02166860  0.29529558
   0.17838621  0.67181975  0.46512011
   0.15406998  0.32756117  0.54391095
   0.81264895  0.71724066  0.51015126
   0.70897202  0.21938424  0.48742958
   0.34448508  0.47833010  0.79911692
   0.28111534  0.52391839  0.19681172
   0.83136254  0.46317182  0.30759872
   0.81523087  0.51682320  0.69096547
   0.46136836  0.18603451  0.67400596
   0.48207471  0.73139921  0.21936679
   0.50765870  0.29124301  0.22998650
   0.54592083  0.82815958  0.65733300
   0.49546168  0.50922380  0.50201447
   0.50615505  0.99875509  0.99513524
   0.00081603  0.49757374  0.00224655
   0.00065943  0.00991780  0.50024421
   0.12831151  0.87691933  0.60585738
   0.12054018  0.13642931  0.38114622
   0.87472868  0.90023931  0.36816550
   0.88282133  0.12358073  0.63447475
   0.87424191  0.62371483  0.11607324
   0.87291139  0.37975409  0.88050568
   0.13722369  0.60915612  0.88437727
   0.10635353  0.36510771  0.12998813
   0.61400127  0.13465616  0.87448048
   0.64242232  0.87464310  0.10119442
   0.37809770  0.09871730  0.13185918
   0.39841011  0.87053898  0.86452003
   0.62839080  0.61309512  0.37330331
   0.60732572  0.38777364  0.63614589
   0.37942679  0.64391790  0.61591992
   0.35851484  0.38806012  0.39367328
   0.75966572  0.74823493  0.74046748
   0.73987667  0.24778390  0.25102455
   0.24775980  0.75524596  0.24815986
   0.24782832  0.25518772  0.75708380
   0.02164971  0.98033734  0.96754200
   0.98113522  0.51732603  0.50169748
   0.51621819  0.01852441  0.49471372
   0.47876472  0.47431587  0.02800332
Direct configuration=     7
   0.95828244  0.16420020  0.18973325
   0.99053060  0.77862317  0.78829246
   0.02535624  0.20324650  0.82333583
   0.01829737  0.80735788  0.19714774
   0.29377933  0.27730220  0.98885150
   0.22361474  0.80357206  0.01683092
   0.68767960  0.31829280  0.02591793
   0.68117838  0.67000105  0.95344614
   0.30865732  0.96944703  0.35400779
   0.22494315  0.01937098  0.78148049
   0.79501192  0.97311951  0.82397450
   0.66949776  0.02165368  0.29533455
   0.17832813  0.67174192  0.46512625
   0.15400763  0.32763110  0.54389183
   0.81268256  0.71717578  0.51013471
   0.70893769  0.21935547  0.48743933
   0.34456333  0.47834601  0.79915126
   0.28115925  0.52390259  0.19677080
   0.83142206  0.46319830  0.30762827
   0.81526810  0.51682480  0.69090037
   0.46139372  0.18597339  0.67395374
   0.48208275  0.73139092  0.21930622
   0.50763689  0.29126535  0.22994453
   0.54590677  0.82822462  0.65728524
   0.49539310  0.50926079  0.50206741
   0.50620151  0.99875596  0.99511965
   0.00078423  0.49756351  0.00226509
   0.00069806  0.01000553  0.50016655
   0.12838123  0.87689004  0.60582233
   0.12051041  0.13638439  0.38118534
   0.87470937  0.90025977  0.36813850
   0.88281259  0.12359099  0.63447389
   0.87424967  0.62369559  0.11603916
   0.87291153  0.37976830  0.88053854
   0.13729189  0.60910315  0.88430479
   0.10630618  0.36507855  0.13004292
   0.61396498  0.13468118  0.87446488
   0.64248312  0.87469590  0.10111796
   0.37800774  0.09866887  0.13192513
   0.39851077  0.87047956  0.86450932
   0.62840428  0.61309007  0.37328085
   0.60731367  0.38781577  0.63625192
   0.37942604  0.64391243  0.61588530
   0.35848252  0.38803912  0.39376404
   0.75961759  0.74823423  0.74046956
   0.73991896  0.24778244  0.25100561
   0.24774316  0.75526331  0.24819590
   0.24782443  0.25522575  0.75704227
   0.02163389  0.98035281  0.96763522
   0.98118362  0.51728656  0.50170797
   0.51620413  0.01850398  0.49471274
   0.47881363  0.47439417  0.02798148
Direct configuration=     8
   0.95829482  0.16416094  0.18969708
   0.99053424  0.77863507  0.78830554
   0.02535278  0.20322141  0.82336000
   0.01829765  0.80738927  0.19711240
   0.29379420  0.27732246  0.98886147
   0.22359652  0.80358557  0.01681980
   0.68765863  0.31831808  0.02592019
   0.68113700  0.66996194  0.95346140
   0.30867418  0.96945491  0.35402540
   0.22492993  0.01936656  0.78149584
   0.79502565  0.97312400  0.82400820
   0.66947052  0.02164802  0.29534935
   0.17830609  0.67171239  0.46512858
   0.15398397  0.32765765  0.54388457
   0.81269531  0.71715116  0.51012844
   0.70892467  0.21934455  0.48744303
   0.34459303  0.47835205  0.79916429
   0.28117592  0.52389660  0.19675527
   0.83144465  0.46320834  0.30763949
   0.81528223  0.51682541  0.69087566
   0.46140334  0.18595019  0.67393392
   0.48208580  0.73138778  0.21928323
   0.50762861  0.29127382  0.22992861
   0.54590144  0.82824930  0.65726711
   0.49536707  0.50927483  0.50208750
   0.50621914  0.99875629  0.99511373
   0.00077215  0.49755962  0.00227213
   0.00071271  0.01003883  0.50013708
   0.12840768  0.87687893  0.60580903
   0.12049911  0.13636734  0.38120018
   0.87470204  0.90026753  0.36812825
   0.88280927  0.12359489  0.63447357
   0.87425262  0.62368828  0.11602623
   0.87291159  0.37977370  0.88055100
   0.13731777  0.60908305  0.88427728
   0.10628820  0.36506748  0.13006371
   0.61395121  0.13469067  0.87445896
   0.64250619  0.87471593  0.10108894
   0.37797360  0.09865049  0.13195016
   0.39854897  0.87045700  0.86450526
   0.62840940  0.61308815  0.37327232
   0.60730909  0.38783176  0.63629216
   0.37942576  0.64391035  0.61587217
   0.35847025  0.38803115  0.39379849
   0.75959933  0.74823397  0.74047035
   0.73993501  0.24778188  0.25099843
   0.24773685  0.75526989  0.24820958
   0.24782295  0.25524019  0.75702651
   0.02162789  0.98035868  0.96767061
   0.98120198  0.51727158  0.50171196
   0.51619880  0.01849622  0.49471236
   0.47883219  0.47442388  0.02797320
Direct configuration=     9
   0.95830224  0.16412648  0.18966588
   0.99053670  0.77864286  0.78831383
   0.02535053  0.20320401  0.82337955
   0.01829625  0.80741627  0.19708421
   0.29380468  0.27733753  0.98886805
   0.22358488  0.80359526  0.01681079
   0.68764287  0.31833907  0.02592207
   0.68110160  0.66992883  0.95346952
   0.30868741  0.96945815  0.35404143
   0.22492315  0.01936197  0.78150787
   0.79503478  0.97312597  0.82403623
   0.66944865  0.02164459  0.29535989
   0.17828766  0.67168910  0.46512916
   0.15396333  0.32767931  0.54388165
   0.81270632  0.71713505  0.51012343
   0.70891260  0.21933878  0.48744691
   0.34461932  0.47835561  0.79917350
   0.28118767  0.52389302  0.19674436
   0.83146282  0.46321372  0.30764817
   0.81529402  0.51682517  0.69085895
   0.46140770  0.18593328  0.67391840
   0.48208851  0.73138674  0.21926327
   0.50762221  0.29128028  0.22991917
   0.54589908  0.82826869  0.65725210
   0.49537886  0.50927041  0.50209115
   0.50621359  0.99876126  0.99511219
   0.00078874  0.49755774  0.00226627
   0.00070765  0.01002261  0.50014643
   0.12841171  0.87688853  0.60578930
   0.12051049  0.13637937  0.38119004
   0.87470321  0.90027807  0.36812587
   0.88281386  0.12359322  0.63446865
   0.87425207  0.62369149  0.11602094
   0.87290862  0.37977403  0.88055597
   0.13732111  0.60905925  0.88427139
   0.10627410  0.36506601  0.13007548
   0.61393995  0.13470282  0.87445607
   0.64253032  0.87472956  0.10107296
   0.37796396  0.09862800  0.13194963
   0.39857448  0.87044417  0.86450719
   0.62839975  0.61307706  0.37327627
   0.60729672  0.38785125  0.63631342
   0.37941416  0.64392432  0.61587244
   0.35846403  0.38802536  0.39382125
   0.75958876  0.74823353  0.74047313
   0.73994383  0.24778096  0.25099358
   0.24773278  0.75527254  0.24821586
   0.24782156  0.25524744  0.75701924
   0.02162309  0.98036337  0.96770125
   0.98121545  0.51725899  0.50171535
   0.51619473  0.01849069  0.49471184
   0.47884746  0.47444819  0.02796847
Direct configuration=    10
   0.95832449  0.16402308  0.18957228
   0.99054409  0.77866624  0.78833870
   0.02534381  0.20315184  0.82343817
   0.01829203  0.80749729  0.19699965
   0.29383612  0.27738275  0.98888778
   0.22354995  0.80362434  0.01678375
   0.68759557  0.31840207  0.02592774
   0.68099541  0.66982949  0.95349388
   0.30872708  0.96946786  0.35408949
   0.22490279  0.01934822  0.78154396
   0.79506219  0.97313189  0.82412030
   0.66938303  0.02163432  0.29539151
   0.17823236  0.67161924  0.46513091
   0.15390143  0.32774428  0.54387288
   0.81273935  0.71708672  0.51010840
   0.70887640  0.21932146  0.48745853
   0.34469820  0.47836629  0.79920111
   0.28122292  0.52388230  0.19671162
   0.83151731  0.46322983  0.30767421
   0.81532940  0.51682446  0.69080881
   0.46142079  0.18588254  0.67387185
   0.48209664  0.73138363  0.21920338
   0.50760299  0.29129966  0.22989086
   0.54589202  0.82832686  0.65720705
   0.49541424  0.50925714  0.50210210
   0.50619691  0.99877619  0.99510758
   0.00083849  0.49755211  0.00224867
   0.00069244  0.00997398  0.50017449
   0.12842380  0.87691736  0.60573012
   0.12054465  0.13641544  0.38115962
   0.87470670  0.90030967  0.36811871
   0.88282761  0.12358821  0.63445392
   0.87425041  0.62370114  0.11600507
   0.87289973  0.37977502  0.88057088
   0.13733115  0.60898786  0.88425372
   0.10623180  0.36506160  0.13011080
   0.61390618  0.13473926  0.87444742
   0.64260273  0.87477045  0.10102503
   0.37793503  0.09856053  0.13194805
   0.39865100  0.87040566  0.86451298
   0.62837080  0.61304379  0.37328811
   0.60725960  0.38790972  0.63637719
   0.37937935  0.64396625  0.61587326
   0.35844536  0.38800799  0.39388954
   0.75955704  0.74823223  0.74048149
   0.73997027  0.24777822  0.25097904
   0.24772060  0.75528049  0.24823470
   0.24781740  0.25526919  0.75699744
   0.02160870  0.98037742  0.96779319
   0.98125587  0.51722123  0.50172553
   0.51618252  0.01847409  0.49471027
   0.47889327  0.47452112  0.02795427
Direct configuration=    11
   0.95836900  0.16381629  0.18938508
   0.99055886  0.77871300  0.78838843
   0.02533036  0.20304750  0.82355542
   0.01828360  0.80765931  0.19683053
   0.29389901  0.27747319  0.98892725
   0.22348009  0.80368250  0.01672968
   0.68750097  0.31852806  0.02593906
   0.68078302  0.66963080  0.95354261
   0.30880643  0.96948728  0.35418563
   0.22486209  0.01932071  0.78161613
   0.79511699  0.97314371  0.82428846
   0.66925179  0.02161379  0.29545476
   0.17812177  0.67147953  0.46513439
   0.15377763  0.32787424  0.54385533
   0.81280540  0.71699007  0.51007835
   0.70880401  0.21928683  0.48748179
   0.34485597  0.47838766  0.79925633
   0.28129341  0.52386084  0.19664614
   0.83162629  0.46326207  0.30772630
   0.81540017  0.51682305  0.69070852
   0.46144696  0.18578107  0.67377873
   0.48211290  0.73137740  0.21908360
   0.50756454  0.29133842  0.22983425
   0.54587790  0.82844319  0.65711695
   0.49548499  0.50923061  0.50212401
   0.50616357  0.99880604  0.99509835
   0.00093798  0.49754083  0.00221349
   0.00066202  0.00987670  0.50023062
   0.12844796  0.87697500  0.60561175
   0.12061296  0.13648759  0.38109879
   0.87471370  0.90037286  0.36810440
   0.88285511  0.12357821  0.63442444
   0.87424710  0.62372042  0.11597332
   0.87288194  0.37977701  0.88060070
   0.13735121  0.60884508  0.88421836
   0.10614720  0.36505277  0.13018143
   0.61383864  0.13481214  0.87443011
   0.64274753  0.87485222  0.10092917
   0.37787717  0.09842559  0.13194487
   0.39880405  0.87032865  0.86452457
   0.62831289  0.61297725  0.37331179
   0.60718536  0.38802666  0.63650473
   0.37930973  0.64405011  0.61587489
   0.35840803  0.38797324  0.39402610
   0.75949362  0.74822964  0.74049819
   0.74002317  0.24777272  0.25094997
   0.24769622  0.75529640  0.24827238
   0.24780907  0.25531270  0.75695383
   0.02157992  0.98040553  0.96797707
   0.98133669  0.51714569  0.50174589
   0.51615809  0.01844089  0.49470713
   0.47898489  0.47466698  0.02792589
Direct configuration=    12
   0.95835236  0.16389359  0.18945505
   0.99055334  0.77869552  0.78836984
   0.02533538  0.20308650  0.82351159
   0.01828675  0.80759875  0.19689375
   0.29387550  0.27743938  0.98891250
   0.22350620  0.80366076  0.01674989
   0.68753633  0.31848097  0.02593483
   0.68086241  0.66970507  0.95352439
   0.30877677  0.96948002  0.35414969
   0.22487730  0.01933099  0.78158915
   0.79509651  0.97313929  0.82422560
   0.66930085  0.02162146  0.29543112
   0.17816311  0.67153175  0.46513309
   0.15382391  0.32782566  0.54386189
   0.81278071  0.71702620  0.51008958
   0.70883107  0.21929977  0.48747310
   0.34479700  0.47837967  0.79923568
   0.28126706  0.52386886  0.19667062
   0.83158556  0.46325002  0.30770683
   0.81537372  0.51682358  0.69074601
   0.46143718  0.18581900  0.67381354
   0.48210682  0.73137973  0.21912837
   0.50757891  0.29132393  0.22985541
   0.54588318  0.82839971  0.65715063
   0.49545855  0.50924053  0.50211582
   0.50617603  0.99879488  0.99510180
   0.00090079  0.49754504  0.00222664
   0.00067339  0.00991306  0.50020964
   0.12843893  0.87695345  0.60565600
   0.12058743  0.13646062  0.38112153
   0.87471109  0.90034924  0.36810975
   0.88284483  0.12358195  0.63443546
   0.87424834  0.62371321  0.11598519
   0.87288859  0.37977627  0.88058956
   0.13734371  0.60889845  0.88423158
   0.10617882  0.36505607  0.13015503
   0.61386388  0.13478490  0.87443658
   0.64269341  0.87482165  0.10096500
   0.37789880  0.09847603  0.13194606
   0.39874684  0.87035743  0.86452024
   0.62833454  0.61300213  0.37330294
   0.60721311  0.38798295  0.63645706
   0.37933575  0.64401876  0.61587428
   0.35842199  0.38798623  0.39397506
   0.75951733  0.74823061  0.74049195
   0.74000340  0.24777477  0.25096084
   0.24770533  0.75529046  0.24825830
   0.24781218  0.25529643  0.75697013
   0.02159067  0.98039502  0.96790834
   0.98130648  0.51717393  0.50173828
   0.51616722  0.01845330  0.49470830
   0.47895065  0.47461246  0.02793650
Direct configuration=    13
   0.95835568  0.16387818  0.18944111
   0.99055444  0.77869901  0.78837355
   0.02533438  0.20307873  0.82352033
   0.01828612  0.80761082  0.19688115
   0.29388019  0.27744612  0.98891544
   0.22350100  0.80366509  0.01674586
   0.68752928  0.31849035  0.02593567
   0.68084659  0.66969027  0.95352802
   0.30878268  0.96948146  0.35415686
   0.22487427  0.01932894  0.78159453
   0.79510059  0.97314017  0.82423813
   0.66929107  0.02161993  0.29543583
   0.17815487  0.67152134  0.46513335
   0.15381469  0.32783534  0.54386058
   0.81278563  0.71701900  0.51008734
   0.70882567  0.21929720  0.48747483
   0.34480875  0.47838126  0.79923980
   0.28127231  0.52386726  0.19666574
   0.83159368  0.46325242  0.30771071
   0.81537899  0.51682347  0.69073854
   0.46143913  0.18581144  0.67380660
   0.48210804  0.73137927  0.21911945
   0.50757605  0.29132682  0.22985119
   0.54588213  0.82840837  0.65714392
   0.49546382  0.50923855  0.50211746
   0.50617355  0.99879710  0.99510111
   0.00090820  0.49754421  0.00222402
   0.00067113  0.00990581  0.50021382
   0.12844073  0.87695775  0.60564718
   0.12059252  0.13646600  0.38111699
   0.87471161  0.90035395  0.36810868
   0.88284688  0.12358120  0.63443326
   0.87424809  0.62371465  0.11598282
   0.87288726  0.37977642  0.88059178
   0.13734520  0.60888781  0.88422894
   0.10617252  0.36505541  0.13016029
   0.61385885  0.13479033  0.87443529
   0.64270419  0.87482775  0.10095786
   0.37789449  0.09846597  0.13194582
   0.39875824  0.87035170  0.86452110
   0.62833022  0.61299717  0.37330470
   0.60720758  0.38799166  0.63646656
   0.37933056  0.64402501  0.61587440
   0.35841921  0.38798364  0.39398523
   0.75951261  0.74823041  0.74049319
   0.74000734  0.24777436  0.25095867
   0.24770352  0.75529164  0.24826110
   0.24781156  0.25529967  0.75696688
   0.02158853  0.98039712  0.96792203
   0.98131250  0.51716830  0.50173980
   0.51616540  0.01845083  0.49470807
   0.47895747  0.47462333  0.02793439
Direct configuration=    14
   0.95835322  0.16388961  0.18945145
   0.99055362  0.77869642  0.78837080
   0.02533513  0.20308449  0.82351385
   0.01828659  0.80760187  0.19689049
   0.29387672  0.27744113  0.98891326
   0.22350486  0.80366188  0.01674885
   0.68753451  0.31848339  0.02593505
   0.68085832  0.66970124  0.95352533
   0.30877830  0.96948039  0.35415154
   0.22487652  0.01933046  0.78159054
   0.79509756  0.97313952  0.82422884
   0.66929832  0.02162107  0.29543233
   0.17816098  0.67152906  0.46513316
   0.15382152  0.32782817  0.54386155
   0.81278198  0.71702434  0.51008900
   0.70882967  0.21929911  0.48747355
   0.34480003  0.47838008  0.79923675
   0.28126842  0.52386845  0.19666936
   0.83158766  0.46325064  0.30770784
   0.81537508  0.51682355  0.69074408
   0.46143768  0.18581704  0.67381174
   0.48210714  0.73137961  0.21912606
   0.50757817  0.29132468  0.22985432
   0.54588291  0.82840195  0.65714889
   0.49545991  0.50924001  0.50211625
   0.50617539  0.99879546  0.99510162
   0.00090271  0.49754483  0.00222596
   0.00067281  0.00991119  0.50021072
   0.12843939  0.87695456  0.60565372
   0.12058874  0.13646201  0.38112035
   0.87471122  0.90035046  0.36810947
   0.88284536  0.12358175  0.63443489
   0.87424827  0.62371358  0.11598458
   0.87288825  0.37977631  0.88059013
   0.13734410  0.60889570  0.88423090
   0.10617719  0.36505590  0.13015639
   0.61386258  0.13478630  0.87443625
   0.64269619  0.87482323  0.10096316
   0.37789768  0.09847343  0.13194600
   0.39874979  0.87035595  0.86452046
   0.62833342  0.61300084  0.37330339
   0.60721168  0.38798520  0.63645951
   0.37933441  0.64402038  0.61587431
   0.35842127  0.38798556  0.39397769
   0.75951611  0.74823056  0.74049227
   0.74000441  0.24777467  0.25096028
   0.24770486  0.75529076  0.24825902
   0.24781202  0.25529727  0.75696929
   0.02159012  0.98039556  0.96791188
   0.98130804  0.51717247  0.50173868
   0.51616675  0.01845266  0.49470824
   0.47895241  0.47461527  0.02793596
Direct configuration=    15
   0.95835445  0.16388389  0.18944628
   0.99055403  0.77869771  0.78837217
   0.02533475  0.20308161  0.82351709
   0.01828635  0.80760634  0.19688582
   0.29387845  0.27744362  0.98891435
   0.22350293  0.80366349  0.01674735
   0.68753189  0.31848687  0.02593536
   0.68085245  0.66969576  0.95352668
   0.30878049  0.96948093  0.35415420
   0.22487540  0.01932970  0.78159254
   0.79509908  0.97313984  0.82423349
   0.66929469  0.02162050  0.29543408
   0.17815793  0.67152520  0.46513325
   0.15381811  0.32783175  0.54386107
   0.81278381  0.71702167  0.51008817
   0.70882767  0.21929815  0.48747419
   0.34480439  0.47838067  0.79923827
   0.28127037  0.52386786  0.19666755
   0.83159067  0.46325153  0.30770927
   0.81537703  0.51682351  0.69074131
   0.46143840  0.18581424  0.67380917
   0.48210759  0.73137944  0.21912276
   0.50757711  0.29132575  0.22985276
   0.54588252  0.82840516  0.65714640
   0.49546186  0.50923928  0.50211685
   0.50617447  0.99879628  0.99510136
   0.00090546  0.49754452  0.00222499
   0.00067197  0.00990850  0.50021227
   0.12844006  0.87695616  0.60565045
   0.12059063  0.13646400  0.38111867
   0.87471141  0.90035220  0.36810908
   0.88284612  0.12358148  0.63443408
   0.87424818  0.62371411  0.11598370
   0.87288776  0.37977636  0.88059096
   0.13734465  0.60889176  0.88422992
   0.10617485  0.36505565  0.13015834
   0.61386072  0.13478831  0.87443577
   0.64270019  0.87482549  0.10096051
   0.37789608  0.09846970  0.13194591
   0.39875401  0.87035382  0.86452078
   0.62833182  0.61299901  0.37330405
   0.60720963  0.38798843  0.63646304
   0.37933249  0.64402269  0.61587436
   0.35842024  0.38798460  0.39398146