  52  52   0   4
  0.1721009E+02  0.9636712E-09  0.9636712E-09  0.9636712E-09  0.2000000E-15
  1.000000000000000E-004
  CAR 
 unknown system                          
     12.64112853    -45.14099721  301      2.09589058      1.00000000
    -45.141  0.0000E+00  0.0000E+00  0.0000E+00  0.0000E+00
    -44.948  0.0000E+00  0.0000E+00  0.0000E+00  0.0000E+00
    -44.756  0.0000E+00  0.0000E+00  0.0000E+00  0.0000E+00
    -44.563  0.0000E+00  0.0000E+00  0.0000E+00  0.0000E+00
    -44.371  0.0000E+00  0.0000E+00  0.0000E+00  0.0000E+00
    -44.178  0.0000E+00  0.0000E+00  0.0000E+00  0.0000E+00
    -43.985  0.0000E+00  0.0000E+00  0.0000E+00  0.0000E+00
    -43.793  0.0000E+00  0.0000E+00  0.0000E+00  0.0000E+00
    -43.600  0.0000E+00  0.0000E+00  0.0000E+00  0.0000E+00
    -43.408  0.0000E+00  0.0000E+00  0.0000E+00  0.0000E+00
    -43.215  0.0000E+00  0.0000E+00  0.0000E+00  0.0000E+00
    -43.022  0.0000E+00  0.0000E+00  0.0000E+00  0.0000E+00
    -42.830  0.0000E+00  0.0000E+00  0.0000E+00  0.0000E+00
    -42.637  0.6888E-10  0.6888E-10  0.1327E-10  0.1327E-10
    -42.444  0.2076E-01  0.2076E-01  0.3999E-02  0.3999E-02
    -42.252  0.5919E-01  0.5919E-01  0.1540E-01  0.1540E-01
    -42.059  0.4464E-01  0.4464E-01  0.2400E-01  0.2400E-01
    -41.867  0.0000E+00  0.0000E+00  0.2400E-01  0.2400E-01
    -41.674  0.0000E+00  0.0000E+00  0.2400E-01  0.2400E-01
    -41.481  0.0000E+00  0.0000E+00  0.2400E-01  0.2400E-01
    -41.289  0.0000E+00  0.0000E+00  0.2400E-01  0.2400E-01
    -41.096  0.0000E+00  0.0000E+00  0.2400E-01  0.2400E-01
    -40.904  0.0000E+00  0.0000E+00  0.2400E-01  0.2400E-01
    -40.711  0.0000E+00  0.0000E+00  0.2400E-01  0.2400E-01
    -40.518  0.0000E+00  0.0000E+00  0.2400E-01  0.2400E-01
    -40.326  0.0000E+00  0.0000E+00  0.2400E-01  0.2400E-01
    -40.133  0.0000E+00  0.0000E+00  0.2400E-01  0.2400E-01
    -39.941  0.0000E+00  0.0000E+00  0.2400E-01  0.2400E-01
    -39.748  0.0000E+00  0.0000E+00  0.2400E-01  0.2400E-01
    -39.555  0.0000E+00  0.0000E+00  0.2400E-01  0.2400E-01
    -39.363  0.0000E+00  0.0000E+00  0.2400E-01  0.2400E-01
    -39.170  0.0000E+00  0.0000E+00  0.2400E-01  0.2400E-01
    -38.978  0.0000E+00  0.0000E+00  0.2400E-01  0.2400E-01
    -38.785  0.0000E+00  0.0000E+00  0.2400E-01  0.2400E-01
    -38.592  0.0000E+00  0.0000E+00  0.2400E-01  0.2400E-01
    -38.400  0.0000E+00  0.0000E+00  0.2400E-01  0.2400E-01
    -38.207  0.0000E+00  0.0000E+00  0.2400E-01  0.2400E-01
    -38.015  0.0000E+00  0.0000E+00  0.2400E-01  0.2400E-01
    -37.822  0.0000E+00  0.0000E+00  0.2400E-01  0.2400E-01
    -37.629  0.0000E+00  0.0000E+00  0.2400E-01  0.2400E-01
    -37.437  0.0000E+00  0.0000E+00  0.2400E-01  0.2400E-01
    -37.244  0.0000E+00  0.0000E+00  0.2400E-01  0.2400E-01
    -37.051  0.0000E+00  0.0000E+00  0.2400E-01  0.2400E-01
    -36.859  0.0000E+00  0.0000E+00  0.2400E-01  0.2400E-01
    -36.666  0.0000E+00  0.0000E+00  0.2400E-01  0.2400E-01
    -36.474  0.0000E+00  0.0000E+00  0.2400E-01  0.2400E-01
    -36.281  0.0000E+00  0.0000E+00  0.2400E-01  0.2400E-01
    -36.088  0.0000E+00  0.0000E+00  0.2400E-01  0.2400E-01
    -35.896  0.0000E+00  0.0000E+00  0.2400E-01  0.2400E-01
    -35.703  0.0000E+00  0.0000E+00  0.2400E-01  0.2400E-01
    -35.511  0.0000E+00  0.0000E+00  0.2400E-01  0.2400E-01
    -35.318  0.0000E+00  0.0000E+00  0.2400E-01  0.2400E-01
    -35.125  0.0000E+00  0.0000E+00  0.2400E-01  0.2400E-01
    -34.933  0.0000E+00  0.0000E+00  0.2400E-01  0.2400E-01
    -34.740  0.0000E+00  0.0000E+00  0.2400E-01  0.2400E-01
    -34.548  0.0000E+00  0.0000E+00  0.2400E-01  0.2400E-01
    -34.355  0.0000E+00  0.0000E+00  0.2400E-01  0.2400E-01
    -34.162  0.0000E+00  0.0000E+00  0.2400E-01  0.2400E-01
    -33.970  0.0000E+00  0.0000E+00  0.2400E-01  0.2400E-01
    -33.777  0.0000E+00  0.0000E+00  0.2400E-01  0.2400E-01
    -33.585  0.0000E+00  0.0000E+00  0.2400E-01  0.2400E-01
    -33.392  0.0000E+00  0.0000E+00  0.2400E-01  0.2400E-01
    -33.199  0.0000E+00  0.0000E+00  0.2400E-01  0.2400E-01
    -33.007  0.0000E+00  0.0000E+00  0.2400E-01  0.2400E-01
    -32.814  0.0000E+00  0.0000E+00  0.2400E-01  0.2400E-01
    -32.622  0.0000E+00  0.0000E+00  0.2400E-01  0.2400E-01
    -32.429  0.0000E+00  0.0000E+00  0.2400E-01  0.2400E-01
    -32.236  0.0000E+00  0.0000E+00  0.2400E-01  0.2400E-01
    -32.044  0.0000E+00  0.0000E+00  0.2400E-01  0.2400E-01
    -31.851  0.0000E+00  0.0000E+00  0.2400E-01  0.2400E-01
    -31.659  0.0000E+00  0.0000E+00  0.2400E-01  0.2400E-01
    -31.466  0.0000E+00  0.0000E+00  0.2400E-01  0.2400E-01
    -31.273  0.0000E+00  0.0000E+00  0.2400E-01  0.2400E-01
    -31.081  0.0000E+00  0.0000E+00  0.2400E-01  0.2400E-01
    -30.888  0.0000E+00  0.0000E+00  0.2400E-01  0.2400E-01
    -30.695  0.0000E+00  0.0000E+00  0.2400E-01  0.2400E-01
    -30.503  0.0000E+00  0.0000E+00  0.2400E-01  0.2400E-01
    -30.310  0.0000E+00  0.0000E+00  0.2400E-01  0.2400E-01
    -30.118  0.0000E+00  0.0000E+00  0.2400E-01  0.2400E-01
    -29.925  0.0000E+00  0.0000E+00  0.2400E-01  0.2400E-01
    -29.732  0.0000E+00  0.0000E+00  0.2400E-01  0.2400E-01
    -29.540  0.0000E+00  0.0000E+00  0.2400E-01  0.2400E-01
    -29.347  0.0000E+00  0.0000E+00  0.2400E-01  0.2400E-01
    -29.155  0.0000E+00  0.0000E+00  0.2400E-01  0.2400E-01
    -28.962  0.0000E+00  0.0000E+00  0.2400E-01  0.2400E-01
    -28.769  0.0000E+00  0.0000E+00  0.2400E-01  0.2400E-01
    -28.577  0.0000E+00  0.0000E+00  0.2400E-01  0.2400E-01
    -28.384  0.0000E+00  0.0000E+00  0.2400E-01  0.2400E-01
    -28.192  0.0000E+00  0.0000E+00  0.2400E-01  0.2400E-01
    -27.999  0.0000E+00  0.0000E+00  0.2400E-01  0.2400E-01
    -27.806  0.0000E+00  0.0000E+00  0.2400E-01  0.2400E-01
    -27.614  0.0000E+00  0.0000E+00  0.2400E-01  0.2400E-01
    -27.421  0.0000E+00  0.0000E+00  0.2400E-01  0.2400E-01
    -27.229  0.0000E+00  0.0000E+00  0.2400E-01  0.2400E-01
    -27.036  0.0000E+00  0.0000E+00  0.2400E-01  0.2400E-01
    -26.843  0.0000E+00  0.0000E+00  0.2400E-01  0.2400E-01
    -26.651  0.0000E+00  0.0000E+00  0.2400E-01  0.2400E-01
    -26.458  0.0000E+00  0.0000E+00  0.2400E-01  0.2400E-01
    -26.266  0.0000E+00  0.0000E+00  0.2400E-01  0.2400E-01
    -26.073  0.0000E+00  0.0000E+00  0.2400E-01  0.2400E-01
    -25.880  0.0000E+00  0.0000E+00  0.2400E-01  0.2400E-01
    -25.688  0.0000E+00  0.0000E+00  0.2400E-01  0.2400E-01
    -25.495  0.0000E+00  0.0000E+00  0.2400E-01  0.2400E-01
    -25.302  0.0000E+00  0.0000E+00  0.2400E-01  0.2400E-01
    -25.110  0.0000E+00  0.0000E+00  0.2400E-01  0.2400E-01
    -24.917  0.0000E+00  0.0000E+00  0.2400E-01  0.2400E-01
    -24.725  0.0000E+00  0.0000E+00  0.2400E-01  0.2400E-01
    -24.532  0.0000E+00  0.0000E+00  0.2400E-01  0.2400E-01
    -24.339  0.0000E+00  0.0000E+00  0.2400E-01  0.2400E-01
    -24.147  0.0000E+00  0.0000E+00  0.2400E-01  0.2400E-01
    -23.954  0.0000E+00  0.0000E+00  0.2400E-01  0.2400E-01
    -23.762  0.0000E+00  0.0000E+00  0.2400E-01  0.2400E-01
    -23.569  0.0000E+00  0.0000E+00  0.2400E-01  0.2400E-01
    -23.376  0.0000E+00  0.0000E+00  0.2400E-01  0.2400E-01
    -23.184  0.0000E+00  0.0000E+00  0.2400E-01  0.2400E-01
    -22.991  0.0000E+00  0.0000E+00  0.2400E-01  0.2400E-01
    -22.799  0.0000E+00  0.0000E+00  0.2400E-01  0.2400E-01
    -22.606  0.0000E+00  0.0000E+00  0.2400E-01  0.2400E-01
    -22.413  0.0000E+00  0.0000E+00  0.2400E-01  0.2400E-01
    -22.221  0.0000E+00  0.0000E+00  0.2400E-01  0.2400E-01
    -22.028  0.0000E+00  0.0000E+00  0.2400E-01  0.2400E-01
    -21.836  0.0000E+00  0.0000E+00  0.2400E-01  0.2400E-01
    -21.643  0.0000E+00  0.0000E+00  0.2400E-01  0.2400E-01
    -21.450  0.0000E+00  0.0000E+00  0.2400E-01  0.2400E-01
    -21.258  0.0000E+00  0.0000E+00  0.2400E-01  0.2400E-01
    -21.065  0.0000E+00  0.0000E+00  0.2400E-01  0.2400E-01
    -20.873  0.0000E+00  0.0000E+00  0.2400E-01  0.2400E-01
    -20.680  0.0000E+00  0.0000E+00  0.2400E-01  0.2400E-01
    -20.487  0.0000E+00  0.0000E+00  0.2400E-01  0.2400E-01
    -20.295  0.0000E+00  0.0000E+00  0.2400E-01  0.2400E-01
    -20.102  0.0000E+00  0.0000E+00  0.2400E-01  0.2400E-01
    -19.909  0.0000E+00  0.0000E+00  0.2400E-01  0.2400E-01
    -19.717  0.0000E+00  0.0000E+00  0.2400E-01  0.2400E-01
    -19.524  0.0000E+00  0.0000E+00  0.2400E-01  0.2400E-01
    -19.332  0.0000E+00  0.0000E+00  0.2400E-01  0.2400E-01
    -19.139  0.0000E+00  0.0000E+00  0.2400E-01  0.2400E-01
    -18.946  0.0000E+00  0.0000E+00  0.2400E-01  0.2400E-01
    -18.754  0.0000E+00  0.0000E+00  0.2400E-01  0.2400E-01
    -18.561  0.0000E+00  0.0000E+00  0.2400E-01  0.2400E-01
    -18.369  0.0000E+00  0.0000E+00  0.2400E-01  0.2400E-01
    -18.176  0.0000E+00  0.0000E+00  0.2400E-01  0.2400E-01
    -17.983  0.0000E+00  0.0000E+00  0.2400E-01  0.2400E-01
    -17.791  0.0000E+00  0.0000E+00  0.2400E-01  0.2400E-01
    -17.598  0.0000E+00  0.0000E+00  0.2400E-01  0.2400E-01
    -17.406  0.0000E+00  0.0000E+00  0.2400E-01  0.2400E-01
    -17.213  0.0000E+00  0.0000E+00  0.2400E-01  0.2400E-01
    -17.020  0.0000E+00  0.0000E+00  0.2400E-01  0.2400E-01
    -16.828  0.0000E+00  0.0000E+00  0.2400E-01  0.2400E-01
    -16.635  0.0000E+00  0.0000E+00  0.2400E-01  0.2400E-01
    -16.443  0.0000E+00  0.0000E+00  0.2400E-01  0.2400E-01
    -16.250  0.0000E+00  0.0000E+00  0.2400E-01  0.2400E-01
    -16.057  0.0000E+00  0.0000E+00  0.2400E-01  0.2400E-01
    -15.865  0.0000E+00  0.0000E+00  0.2400E-01  0.2400E-01
    -15.672  0.0000E+00  0.0000E+00  0.2400E-01  0.2400E-01
    -15.480  0.0000E+00  0.0000E+00  0.2400E-01  0.2400E-01
    -15.287  0.0000E+00  0.0000E+00  0.2400E-01  0.2400E-01
    -15.094  0.0000E+00  0.0000E+00  0.2400E-01  0.2400E-01
    -14.902  0.0000E+00  0.0000E+00  0.2400E-01  0.2400E-01
    -14.709  0.0000E+00  0.0000E+00  0.2400E-01  0.2400E-01
    -14.516  0.0000E+00  0.0000E+00  0.2400E-01  0.2400E-01
    -14.324  0.0000E+00  0.0000E+00  0.2400E-01  0.2400E-01
    -14.131  0.0000E+00  0.0000E+00  0.2400E-01  0.2400E-01
    -13.939  0.0000E+00  0.0000E+00  0.2400E-01  0.2400E-01
    -13.746  0.0000E+00  0.0000E+00  0.2400E-01  0.2400E-01
    -13.553  0.0000E+00  0.0000E+00  0.2400E-01  0.2400E-01
    -13.361  0.0000E+00  0.0000E+00  0.2400E-01  0.2400E-01
    -13.168  0.0000E+00  0.0000E+00  0.2400E-01  0.2400E-01
    -12.976  0.1607E-02  0.1607E-02  0.2431E-01  0.2431E-01
    -12.783  0.1916E-01  0.1916E-01  0.2800E-01  0.2800E-01
    -12.590  0.1739E-01  0.1739E-01  0.3135E-01  0.3135E-01
    -12.398  0.3379E-02  0.3379E-02  0.3200E-01  0.3200E-01
    -12.205  0.0000E+00  0.0000E+00  0.3200E-01  0.3200E-01
    -12.013  0.0000E+00  0.0000E+00  0.3200E-01  0.3200E-01
    -11.820  0.0000E+00  0.0000E+00  0.3200E-01  0.3200E-01
    -11.627  0.0000E+00  0.0000E+00  0.3200E-01  0.3200E-01
    -11.435  0.0000E+00  0.0000E+00  0.3200E-01  0.3200E-01
    -11.242  0.0000E+00  0.0000E+00  0.3200E-01  0.3200E-01
    -11.050  0.0000E+00  0.0000E+00  0.3200E-01  0.3200E-01
    -10.857  0.0000E+00  0.0000E+00  0.3200E-01  0.3200E-01
    -10.664  0.0000E+00  0.0000E+00  0.3200E-01  0.3200E-01
    -10.472  0.0000E+00  0.0000E+00  0.3200E-01  0.3200E-01
    -10.279  0.7812E-06  0.7812E-06  0.3200E-01  0.3200E-01
    -10.087  0.1568E-01  0.1568E-01  0.3502E-01  0.3502E-01
     -9.894  0.2574E-01  0.2574E-01  0.3998E-01  0.3998E-01
     -9.701  0.2087E-01  0.2087E-01  0.4400E-01  0.4400E-01
     -9.509  0.0000E+00  0.0000E+00  0.4400E-01  0.4400E-01
     -9.316  0.0000E+00  0.0000E+00  0.4400E-01  0.4400E-01
     -9.123  0.0000E+00  0.0000E+00  0.4400E-01  0.4400E-01
     -8.931  0.0000E+00  0.0000E+00  0.4400E-01  0.4400E-01
     -8.738  0.0000E+00  0.0000E+00  0.4400E-01  0.4400E-01
     -8.546  0.0000E+00  0.0000E+00  0.4400E-01  0.4400E-01
     -8.353  0.1403E-10  0.1403E-10  0.4400E-01  0.4400E-01
     -8.160  0.2073E-01  0.2073E-01  0.4799E-01  0.4799E-01
     -7.968  0.0000E+00  0.0000E+00  0.4800E-01  0.4800E-01
     -7.775  0.0000E+00  0.0000E+00  0.4800E-01  0.4800E-01
     -7.583  0.0000E+00  0.0000E+00  0.4800E-01  0.4800E-01
     -7.390  0.0000E+00  0.0000E+00  0.4800E-01  0.4800E-01
     -7.197  0.0000E+00  0.0000E+00  0.4800E-01  0.4800E-01
     -7.005  0.0000E+00  0.0000E+00  0.4800E-01  0.4800E-01
     -6.812  0.0000E+00  0.0000E+00  0.4800E-01  0.4800E-01
     -6.620  0.0000E+00  0.0000E+00  0.4800E-01  0.4800E-01
     -6.427  0.0000E+00  0.0000E+00  0.4800E-01  0.4800E-01
     -6.234  0.2882E-18  0.2882E-18  0.4800E-01  0.4800E-01
     -6.042  0.3790E-02  0.3790E-02  0.4873E-01  0.4873E-01
     -5.849  0.1402E-02  0.1402E-02  0.4900E-01  0.4900E-01
     -5.657  0.1434E-02  0.1434E-02  0.4928E-01  0.4928E-01
     -5.464  0.1412E-01  0.1412E-01  0.5200E-01  0.5200E-01
     -5.271  0.1927E-04  0.1927E-04  0.5200E-01  0.5200E-01
     -5.079  0.0000E+00  0.0000E+00  0.5200E-01  0.5200E-01
     -4.886  0.0000E+00  0.0000E+00  0.5200E-01  0.5200E-01
     -4.694  0.0000E+00  0.0000E+00  0.5200E-01  0.5200E-01
     -4.501  0.0000E+00  0.0000E+00  0.5200E-01  0.5200E-01
     -4.308  0.0000E+00  0.0000E+00  0.5200E-01  0.5200E-01
     -4.116  0.0000E+00  0.0000E+00  0.5200E-01  0.5200E-01
     -3.923  0.0000E+00  0.0000E+00  0.5200E-01  0.5200E-01
     -3.730  0.0000E+00  0.0000E+00  0.5200E-01  0.5200E-01
     -3.538  0.0000E+00  0.0000E+00  0.5200E-01  0.5200E-01
     -3.345  0.0000E+00  0.0000E+00  0.5200E-01  0.5200E-01
     -3.153  0.3618E-02  0.3618E-02  0.5270E-01  0.5270E-01
     -2.960  0.1196E-01  0.1196E-01  0.5500E-01  0.5500E-01
     -2.767  0.3800E-02  0.3800E-02  0.5573E-01  0.5573E-01
     -2.575  0.1149E-01  0.1149E-01  0.5795E-01  0.5795E-01
     -2.382  0.1165E-01  0.1165E-01  0.6020E-01  0.6020E-01
     -2.190  0.1817E-01  0.1817E-01  0.6370E-01  0.6370E-01
     -1.997  0.1551E-02  0.1551E-02  0.6400E-01  0.6400E-01
     -1.804  0.0000E+00  0.0000E+00  0.6400E-01  0.6400E-01
     -1.612  0.1301E-06  0.1301E-06  0.6400E-01  0.6400E-01
     -1.419  0.2071E-01  0.2071E-01  0.6799E-01  0.6799E-01
     -1.227  0.2076E-01  0.2076E-01  0.7199E-01  0.7199E-01
     -1.034  0.2075E-01  0.2075E-01  0.7600E-01  0.7600E-01
     -0.841  0.0000E+00  0.0000E+00  0.7600E-01  0.7600E-01
     -0.649  0.1450E-12  0.1450E-12  0.7600E-01  0.7600E-01
     -0.456  0.1040E-01  0.1040E-01  0.7800E-01  0.7800E-01
     -0.264  0.1035E-01  0.1035E-01  0.8000E-01  0.8000E-01
     -0.071  0.1152E-01  0.1152E-01  0.8222E-01  0.8222E-01
      0.122  0.2683E-01  0.2683E-01  0.8738E-01  0.8738E-01
      0.314  0.2551E-01  0.2551E-01  0.9230E-01  0.9230E-01
      0.507  0.1911E-01  0.1911E-01  0.9599E-01  0.9599E-01
      0.699  0.5641E-04  0.5641E-04  0.9600E-01  0.9600E-01
      0.892  0.8037E-02  0.8037E-02  0.9755E-01  0.9755E-01
      1.085  0.2238E-01  0.2238E-01  0.1019E+00  0.1019E+00
      1.277  0.2108E-01  0.2108E-01  0.1059E+00  0.1059E+00
      1.470  0.2751E-01  0.2751E-01  0.1112E+00  0.1112E+00
      1.663  0.2829E-01  0.2829E-01  0.1167E+00  0.1167E+00
      1.855  0.1710E-01  0.1710E-01  0.1200E+00  0.1200E+00
      2.048  0.1206E-03  0.1206E-03  0.1200E+00  0.1200E+00
      2.240  0.0000E+00  0.0000E+00  0.1200E+00  0.1200E+00
      2.433  0.0000E+00  0.0000E+00  0.1200E+00  0.1200E+00
      2.626  0.0000E+00  0.0000E+00  0.1200E+00  0.1200E+00
      2.818  0.0000E+00  0.0000E+00  0.1200E+00  0.1200E+00
      3.011  0.0000E+00  0.0000E+00  0.1200E+00  0.1200E+00
      3.203  0.0000E+00  0.0000E+00  0.1200E+00  0.1200E+00
      3.396  0.0000E+00  0.0000E+00  0.1200E+00  0.1200E+00
      3.589  0.0000E+00  0.0000E+00  0.1200E+00  0.1200E+00
      3.781  0.0000E+00  0.0000E+00  0.1200E+00  0.1200E+00
      3.974  0.0000E+00  0.0000E+00  0.1200E+00  0.1200E+00
      4.166  0.0000E+00  0.0000E+00  0.1200E+00  0.1200E+00
      4.359  0.3230E-14  0.3229E-14  0.1200E+00  0.1200E+00
      4.552  0.4955E-02  0.4955E-02  0.1210E+00  0.1210E+00
      4.744  0.2370E-03  0.2370E-03  0.1210E+00  0.1210E+00
      4.937  0.0000E+00  0.0000E+00  0.1210E+00  0.1210E+00
      5.129  0.0000E+00  0.0000E+00  0.1210E+00  0.1210E+00
      5.322  0.1941E-02  0.1941E-02  0.1214E+00  0.1214E+00
      5.515  0.1363E-01  0.1363E-01  0.1240E+00  0.1240E+00
      5.707  0.0000E+00  0.0000E+00  0.1240E+00  0.1240E+00
      5.900  0.2790E-07  0.2790E-07  0.1240E+00  0.1240E+00
      6.092  0.8474E-02  0.8474E-02  0.1256E+00  0.1256E+00
      6.285  0.1869E-01  0.1869E-01  0.1292E+00  0.1292E+00
      6.478  0.4230E-02  0.4230E-02  0.1300E+00  0.1300E+00
      6.670  0.1124E-01  0.1124E-01  0.1322E+00  0.1322E+00
      6.863  0.4835E-02  0.4835E-02  0.1331E+00  0.1331E+00
      7.056  0.1481E-01  0.1481E-01  0.1360E+00  0.1360E+00
      7.248  0.4283E-02  0.4283E-02  0.1368E+00  0.1368E+00
      7.441  0.3307E-02  0.3307E-02  0.1375E+00  0.1375E+00
      7.633  0.8550E-02  0.8550E-02  0.1391E+00  0.1391E+00
      7.826  0.1249E-01  0.1249E-01  0.1415E+00  0.1415E+00
      8.019  0.1283E-01  0.1283E-01  0.1440E+00  0.1440E+00
      8.211  0.1469E-01  0.1469E-01  0.1468E+00  0.1468E+00
      8.404  0.1116E-01  0.1116E-01  0.1490E+00  0.1490E+00
      8.596  0.1596E-01  0.1596E-01  0.1521E+00  0.1521E+00
      8.789  0.1201E-01  0.1201E-01  0.1544E+00  0.1544E+00
      8.982  0.2053E-01  0.2053E-01  0.1583E+00  0.1583E+00
      9.174  0.1515E-01  0.1515E-01  0.1612E+00  0.1612E+00
      9.367  0.2216E-01  0.2216E-01  0.1655E+00  0.1655E+00
      9.559  0.1719E-01  0.1719E-01  0.1688E+00  0.1688E+00
      9.752  0.1607E-01  0.1602E-01  0.1719E+00  0.1719E+00
      9.945  0.1734E-01  0.1755E-01  0.1753E+00  0.1753E+00
     10.137  0.3837E-02  0.3670E-02  0.1760E+00  0.1760E+00
     10.330  0.0000E+00  0.0000E+00  0.1760E+00  0.1760E+00
     10.522  0.0000E+00  0.0000E+00  0.1760E+00  0.1760E+00
     10.715  0.0000E+00  0.0000E+00  0.1760E+00  0.1760E+00
     10.908  0.0000E+00  0.0000E+00  0.1760E+00  0.1760E+00
     11.100  0.0000E+00  0.0000E+00  0.1760E+00  0.1760E+00
     11.293  0.0000E+00  0.0000E+00  0.1760E+00  0.1760E+00
     11.485  0.0000E+00  0.0000E+00  0.1760E+00  0.1760E+00
     11.678  0.0000E+00  0.0000E+00  0.1760E+00  0.1760E+00
     11.871  0.0000E+00  0.0000E+00  0.1760E+00  0.1760E+00
     12.063  0.0000E+00  0.0000E+00  0.1760E+00  0.1760E+00
     12.256  0.0000E+00  0.0000E+00  0.1760E+00  0.1760E+00
     12.449  0.0000E+00  0.0000E+00  0.1760E+00  0.1760E+00
     12.641  0.0000E+00  0.0000E+00  0.1760E+00  0.1760E+00
