 vasp.6.4.1 05Apr23 (build Jun 07 2023 15:38:11) complex                        
  
 executed on             LinuxIFC date 2023.10.20  08:20:17
 running  128 mpi-ranks, with    1 threads/rank, on    1 nodes
 distrk:  each k-point on  128 cores,    1 groups
 distr:  one band on NCORE=  32 cores,    4 groups


--------------------------------------------------------------------------------------------------------


 INCAR:
   GGA = PE
   PREC = Accu
   EDIFF = 1.e-6
   EDIFFG = -1.e-3
   ENCUT = 520.
   NELM = 100
   NELMDL = -10
   LASPH = .TRUE.
   LREAL = Auto
   LMAXMIX = 4
   ISPIN = 2
   LDIAG = .TRUE.
   LPLANE = .TRUE.
   IVDW = 12
   SIGMA = 0.03
   ISMEAR = 0
   NSW = 1000    number of steps for IOM
   IBRION = 2    ionic relax: 0-MD 1-quasi-New 2-CG
   ISIF = 2    ionic relaxation + stress tensor calcn.
   LCHARG = .FALSE.
   LWAVE = .FALSE.
   ALGO = F
   KPAR = 1
   NPAR = 4
   POTIM = 0.2

 POTCAR:    PAW_PBE Li_sv_GW 25Mar2010            
 POTCAR:    PAW_PBE P_GW 19Mar2012                
 POTCAR:    PAW_PBE S_GW 19Mar2012                
 POTCAR:    PAW_PBE Cl_GW 19Mar2012               
 -----------------------------------------------------------------------------
|                                                                             |
|           W    W    AA    RRRRR   N    N  II  N    N   GGGG   !!!           |
|           W    W   A  A   R    R  NN   N  II  NN   N  G    G  !!!           |
|           W    W  A    A  R    R  N N  N  II  N N  N  G       !!!           |
|           W WW W  AAAAAA  RRRRR   N  N N  II  N  N N  G  GGG   !            |
|           WW  WW  A    A  R   R   N   NN  II  N   NN  G    G                |
|           W    W  A    A  R    R  N    N  II  N    N   GGGG   !!!           |
|                                                                             |
|     You use a magnetic or noncollinear calculation, but did not specify     |
|     the initial magnetic moment with the MAGMOM tag. Note that a            |
|     default of 1 will be used for all atoms. This ferromagnetic setup       |
|     may break the symmetry of the crystal, in particular it may rule        |
|     out finding an antiferromagnetic solution. Thence, we recommend         |
|     setting the initial magnetic moment manually or verifying carefully     |
|     that this magnetic setup is desired.                                    |
|                                                                             |
 -----------------------------------------------------------------------------

 POTCAR:    PAW_PBE Li_sv_GW 25Mar2010            
   SHA256 =  24a6ace15a582615486b36ce4dc781b048409f4015b7684ed1273ae395fa2fdc Li_sv_GW/POTCAR       
   COPYR  = (c) Copyright 25Mar2010 Georg Kresse                                                    
   COPYR  = This file is part of the software VASP. Any use, copying, and all other rights are regul
   COPYR  = If you do not have a valid VASP license, you may not use, copy or distribute this file. 
   VRHFIN =Li: 1s2s                                                                                 
   LEXCH  = PE                                                                                      
   EATOM  =   200.9989 eV,   14.7730 Ry                                                             
                                                                                                    
   TITEL  = PAW_PBE Li_sv_GW 25Mar2010                                                              
   LULTRA =        F    use ultrasoft PP ?                                                          
   IUNSCR =        0    unscreen: 0-lin 1-nonlin 2-no                                               
   RPACOR =    0.000    partial core radius                                                         
   POMASS =    7.010; ZVAL   =    3.000    mass and valenz                                          
   RCORE  =    1.500    outmost cutoff radius                                                       
   RWIGS  =    1.600; RWIGS  =    0.847    wigner-seitz radius (au A)                               
   ENMAX  =  433.699; ENMIN  =  325.274 eV                                                          
   RCLOC  =    1.003    cutoff for local pot                                                        
   LCOR   =        T    correct aug charges                                                         
   LPAW   =        T    paw PP                                                                      
   EAUG   = 1041.699                                                                                
   RMAX   =    1.536    core radius for proj-oper                                                   
   RAUG   =    1.300    factor for augmentation sphere                                              
   RDEP   =    1.520    radius for radial grids                                                     
   RDEPT  =    1.300    core radius for aug-charge                                                  
                                                                                                    
   Atomic configuration                                                                             
    4 entries                                                                                       
     n  l   j            E        occ.                                                              
     1  0  0.50       -53.3604   2.0000                                                             
     1  0  0.50       -52.0001   0.0000                                                             
     2  1  0.50        -1.5636   1.0000                                                             
     3  2  1.50        -1.3606   0.0000                                                             
   Description                                                                                      
     l       E           TYP  RCUT    TYP  RCUT                                                     
     0    -53.3603633     23  1.200                                                                 
     0    -52.0001064     23  1.200                                                                 
     0    176.8757380     23  1.300                                                                 
     1     -1.5635925     23  1.500                                                                 
     1    108.8466080     23  1.500                                                                 
     2     81.6349560     23  1.500                                                                 
  local pseudopotential read in
  kinetic energy density of atom read in
  atomic valenz-charges read in
  non local Contribution for L=           0  read in
    real space projection operators read in
  non local Contribution for L=           0  read in
    real space projection operators read in
  non local Contribution for L=           0  read in
    real space projection operators read in
  non local Contribution for L=           1  read in
    real space projection operators read in
  non local Contribution for L=           1  read in
    real space projection operators read in
  non local Contribution for L=           2  read in
    real space projection operators read in
    PAW grid and wavefunctions read in
 
   number of l-projection  operators is LMAX  =           6
   number of lm-projection operators is LMMAX =          14
 
 POTCAR:    PAW_PBE P_GW 19Mar2012                
   SHA256 =  715c28f2291d37b61637ce89646c59f66f71c8b8d8bfba631e5feb9f7b42defe P_GW/POTCAR           
   COPYR  = (c) Copyright 19Mar2012 Georg Kresse                                                    
   COPYR  = This file is part of the software VASP. Any use, copying, and all other rights are regul
   COPYR  = If you do not have a valid VASP license, you may not use, copy or distribute this file. 
   VRHFIN =P : s2p3                                                                                 
   LEXCH  = PE                                                                                      
   EATOM  =   176.0430 eV,   12.9388 Ry                                                             
                                                                                                    
   TITEL  = PAW_PBE P_GW 19Mar2012                                                                  
   LULTRA =        F    use ultrasoft PP ?                                                          
   IUNSCR =        1    unscreen: 0-lin 1-nonlin 2-no                                               
   RPACOR =    1.400    partial core radius                                                         
   POMASS =   30.974; ZVAL   =    5.000    mass and valenz                                          
   RCORE  =    2.000    outmost cutoff radius                                                       
   RWIGS  =    1.900; RWIGS  =    1.005    wigner-seitz radius (au A)                               
   ENMAX  =  255.040; ENMIN  =  191.280 eV                                                          
   ICORE  =        3    local potential                                                             
   LCOR   =        T    correct aug charges                                                         
   LPAW   =        T    paw PP                                                                      
   EAUG   =  499.732                                                                                
   DEXC   =    0.000                                                                                
   RMAX   =    2.047    core radius for proj-oper                                                   
   RAUG   =    1.300    factor for augmentation sphere                                              
   RDEP   =    2.059    radius for radial grids                                                     
   RDEPT  =    1.900    core radius for aug-charge                                                  
                                                                                                    
   Atomic configuration                                                                             
    7 entries                                                                                       
     n  l   j            E        occ.                                                              
     1  0  0.50     -2084.0982   2.0000                                                             
     2  0  0.50      -173.9859   2.0000                                                             
     2  1  1.50      -124.4865   6.0000                                                             
     3  0  0.50       -13.9692   2.0000                                                             
     3  1  0.50        -5.5067   3.0000                                                             
     3  2  1.50        -6.8029   0.0000                                                             
     4  3  2.50        -1.3606   0.0000                                                             
   Description                                                                                      
     l       E           TYP  RCUT    TYP  RCUT                                                     
     0    -13.9691528     23  1.900                                                                 
     0    102.0436950     23  1.900                                                                 
     1     -5.5066939     23  1.900                                                                 
     1    102.0436950     23  1.900                                                                 
     2     -8.1634956     23  2.000                                                                 
     2     81.6349560     23  2.000                                                                 
     3     27.2116520     23  2.000                                                                 
  local pseudopotential read in
  partial core-charges read in
  partial kinetic energy density read in
  kinetic energy density of atom read in
  atomic valenz-charges read in
  non local Contribution for L=           0  read in
    real space projection operators read in
  non local Contribution for L=           0  read in
    real space projection operators read in
  non local Contribution for L=           1  read in
    real space projection operators read in
  non local Contribution for L=           1  read in
    real space projection operators read in
  non local Contribution for L=           2  read in
    real space projection operators read in
  non local Contribution for L=           2  read in
    real space projection operators read in
    PAW grid and wavefunctions read in
 
   number of l-projection  operators is LMAX  =           6
   number of lm-projection operators is LMMAX =          18
 
 POTCAR:    PAW_PBE S_GW 19Mar2012                
   SHA256 =  357db9cfb0783579b2eebe03197c2d807131fea8ea663b1fcfb6ce2fa75af011 S_GW/POTCAR           
   COPYR  = (c) Copyright 19Mar2012 Georg Kresse                                                    
   COPYR  = This file is part of the software VASP. Any use, copying, and all other rights are regul
   COPYR  = If you do not have a valid VASP license, you may not use, copy or distribute this file. 
   VRHFIN =S : s2p4                                                                                 
   LEXCH  = PE                                                                                      
   EATOM  =   276.8230 eV,   20.3459 Ry                                                             
                                                                                                    
   TITEL  = PAW_PBE S_GW 19Mar2012                                                                  
   LULTRA =        F    use ultrasoft PP ?                                                          
   IUNSCR =        1    unscreen: 0-lin 1-nonlin 2-no                                               
   RPACOR =    1.400    partial core radius                                                         
   POMASS =   32.066; ZVAL   =    6.000    mass and valenz                                          
   RCORE  =    1.900    outmost cutoff radius                                                       
   RWIGS  =    1.900; RWIGS  =    1.005    wigner-seitz radius (au A)                               
   ENMAX  =  258.689; ENMIN  =  194.016 eV                                                          
   ICORE  =        3    local potential                                                             
   LCOR   =        T    correct aug charges                                                         
   LPAW   =        T    paw PP                                                                      
   EAUG   =  488.319                                                                                
   DEXC   =    0.000                                                                                
   RMAX   =    1.942    core radius for proj-oper                                                   
   RAUG   =    1.300    factor for augmentation sphere                                              
   RDEP   =    1.954    radius for radial grids                                                     
   RDEPT  =    1.900    core radius for aug-charge                                                  
                                                                                                    
   Atomic configuration                                                                             
    7 entries                                                                                       
     n  l   j            E        occ.                                                              
     1  0  0.50     -2405.8406   2.0000                                                             
     2  0  0.50      -211.7007   2.0000                                                             
     2  1  1.50      -156.4958   6.0000                                                             
     3  0  0.50       -17.2562   2.0000                                                             
     3  1  0.50        -7.0085   4.0000                                                             
     3  2  1.50        -8.1635   0.0000                                                             
     4  3  2.50        -1.3606   0.0000                                                             
   Description                                                                                      
     l       E           TYP  RCUT    TYP  RCUT                                                     
     0    -17.2561639     23  1.700                                                                 
     0     88.4378690     23  1.900                                                                 
     1     -7.0085399     23  1.900                                                                 
     1     88.4378690     23  1.900                                                                 
     2    -10.8846608     23  1.900                                                                 
     2     54.4233040     23  1.900                                                                 
     3     27.2116520     23  1.800                                                                 
  local pseudopotential read in
  partial core-charges read in
  partial kinetic energy density read in
  kinetic energy density of atom read in
  atomic valenz-charges read in
  non local Contribution for L=           0  read in
    real space projection operators read in
  non local Contribution for L=           0  read in
    real space projection operators read in
  non local Contribution for L=           1  read in
    real space projection operators read in
  non local Contribution for L=           1  read in
    real space projection operators read in
  non local Contribution for L=           2  read in
    real space projection operators read in
  non local Contribution for L=           2  read in
    real space projection operators read in
    PAW grid and wavefunctions read in
 
   number of l-projection  operators is LMAX  =           6
   number of lm-projection operators is LMMAX =          18
 
 POTCAR:    PAW_PBE Cl_GW 19Mar2012               
   SHA256 =  3ef3b3169d6a9a89979f58b4cf17d927a58518fc660d8883d88cacaee8175441 Cl_GW/POTCAR          
   COPYR  = (c) Copyright 19Mar2012 Georg Kresse                                                    
   COPYR  = This file is part of the software VASP. Any use, copying, and all other rights are regul
   COPYR  = If you do not have a valid VASP license, you may not use, copy or distribute this file. 
   VRHFIN =Cl: s2p5                                                                                 
   LEXCH  = PE                                                                                      
   EATOM  =   409.7259 eV,   30.1140 Ry                                                             
                                                                                                    
   TITEL  = PAW_PBE Cl_GW 19Mar2012                                                                 
   LULTRA =        F    use ultrasoft PP ?                                                          
   IUNSCR =        1    unscreen: 0-lin 1-nonlin 2-no                                               
   RPACOR =    1.400    partial core radius                                                         
   POMASS =   35.453; ZVAL   =    7.000    mass and valenz                                          
   RCORE  =    1.900    outmost cutoff radius                                                       
   RWIGS  =    1.900; RWIGS  =    1.005    wigner-seitz radius (au A)                               
   ENMAX  =  262.472; ENMIN  =  196.854 eV                                                          
   ICORE  =        3    local potential                                                             
   LCOR   =        T    correct aug charges                                                         
   LPAW   =        T    paw PP                                                                      
   EAUG   =  456.703                                                                                
   DEXC   =    0.000                                                                                
   RMAX   =    1.945    core radius for proj-oper                                                   
   RAUG   =    1.300    factor for augmentation sphere                                              
   RDEP   =    2.020    radius for radial grids                                                     
   RDEPT  =    1.900    core radius for aug-charge                                                  
                                                                                                    
   Atomic configuration                                                                             
    7 entries                                                                                       
     n  l   j            E        occ.                                                              
     1  0  0.50     -2751.1850   2.0000                                                             
     2  0  0.50      -252.6861   2.0000                                                             
     2  1  1.50      -191.6157   6.0000                                                             
     3  0  0.50       -20.6916   2.0000                                                             
     3  1  0.50        -8.5949   5.0000                                                             
     3  2  1.50        -9.5241   0.0000                                                             
     4  3  2.50        -9.5241   0.0000                                                             
   Description                                                                                      
     l       E           TYP  RCUT    TYP  RCUT                                                     
     0    -20.6915657     23  1.700                                                                 
     0     95.2407820     23  1.800                                                                 
     1     -8.5948577     23  1.900                                                                 
     1     95.2407820     23  1.900                                                                 
     2    -10.8846608     23  1.900                                                                 
     2     54.4233040     23  1.900                                                                 
     3     27.2116520     23  1.900                                                                 
  local pseudopotential read in
  partial core-charges read in
  partial kinetic energy density read in
  kinetic energy density of atom read in
  atomic valenz-charges read in
  non local Contribution for L=           0  read in
    real space projection operators read in
  non local Contribution for L=           0  read in
    real space projection operators read in
  non local Contribution for L=           1  read in
    real space projection operators read in
  non local Contribution for L=           1  read in
    real space projection operators read in
  non local Contribution for L=           2  read in
    real space projection operators read in
  non local Contribution for L=           2  read in
    real space projection operators read in
    PAW grid and wavefunctions read in
 
   number of l-projection  operators is LMAX  =           6
   number of lm-projection operators is LMMAX =          18
 
 Optimization of the real space projectors (new method)

 maximal supplied QI-value         = 25.13
 optimisation between [QCUT,QGAM] = [ 11.56, 23.12] = [ 37.43,149.72] Ry 
 Optimized for a Real-space Cutoff    1.28 Angstroem

   l    n(q)    QCUT    max X(q) W(low)/X(q) W(high)/X(q)  e(spline) 
   0      9    11.561    87.733    0.11E-03    0.32E-04    0.56E-06
   0      9    11.561    82.800    0.11E-03    0.35E-04    0.56E-06
   0      9    11.561     2.509    0.22E-03    0.42E-04    0.79E-06
   1      8    11.561    12.580    0.94E-04    0.26E-03    0.21E-06
   1      8    11.561     1.319    0.33E-04    0.15E-03    0.19E-06
   2      8    11.561     1.993    0.36E-04    0.89E-04    0.26E-06
 Optimization of the real space projectors (new method)

 maximal supplied QI-value         = 18.90
 optimisation between [QCUT,QGAM] = [ 11.53, 23.24] = [ 37.21,151.29] Ry 
 Optimized for a Real-space Cutoff    1.21 Angstroem

   l    n(q)    QCUT    max X(q) W(low)/X(q) W(high)/X(q)  e(spline) 
   0      8    11.527     8.355    0.73E-04    0.70E-04    0.26E-07
   0      8    11.527     1.401    0.17E-03    0.17E-03    0.63E-07
   1      8    11.527     4.747    0.13E-03    0.17E-03    0.11E-06
   1      8    11.527     2.025    0.16E-03    0.18E-03    0.12E-06
   2      7    11.527     3.169    0.51E-04    0.25E-03    0.60E-07
   2      7    11.527     3.441    0.82E-04    0.22E-03    0.14E-06
 Optimization of the real space projectors (new method)

 maximal supplied QI-value         = 19.84
 optimisation between [QCUT,QGAM] = [ 11.51, 23.22] = [ 37.09,150.92] Ry 
 Optimized for a Real-space Cutoff    1.49 Angstroem

   l    n(q)    QCUT    max X(q) W(low)/X(q) W(high)/X(q)  e(spline) 
   0     10    11.508     7.541    0.34E-04    0.13E-04    0.69E-07
   0     10    11.508     1.809    0.49E-04    0.27E-04    0.14E-06
   1     10    11.508     4.107    0.27E-05    0.41E-05    0.14E-06
   1     10    11.508     2.196    0.26E-05    0.25E-05    0.22E-06
   2      9    11.508     4.265    0.18E-03    0.11E-03    0.81E-06
   2      9    11.508     1.925    0.97E-04    0.76E-04    0.47E-06
 Optimization of the real space projectors (new method)

 maximal supplied QI-value         = 19.84
 optimisation between [QCUT,QGAM] = [ 11.51, 23.22] = [ 37.09,150.92] Ry 
 Optimized for a Real-space Cutoff    1.21 Angstroem

   l    n(q)    QCUT    max X(q) W(low)/X(q) W(high)/X(q)  e(spline) 
   0      8    11.508     6.761    0.57E-04    0.57E-04    0.35E-07
   0      8    11.508     1.642    0.14E-03    0.14E-03    0.91E-07
   1      8    11.508     3.519    0.20E-04    0.72E-04    0.47E-07
   1      8    11.508     2.150    0.27E-04    0.11E-03    0.89E-07
   2      7    11.508     2.976    0.19E-03    0.33E-03    0.16E-06
   2      7    11.508     1.494    0.14E-03    0.29E-03    0.14E-06
  PAW_PBE Li_sv_GW 25Mar2010            :
 energy of atom  1       EATOM= -200.9989
 kinetic energy error for atom=    0.0127 (will be added to EATOM!!)
  PAW_PBE P_GW 19Mar2012                :
 energy of atom  2       EATOM= -176.0430
 kinetic energy error for atom=    0.0011 (will be added to EATOM!!)
  PAW_PBE S_GW 19Mar2012                :
 energy of atom  3       EATOM= -276.8230
 kinetic energy error for atom=    0.0024 (will be added to EATOM!!)
  PAW_PBE Cl_GW 19Mar2012               :
 energy of atom  4       EATOM= -409.7259
 kinetic energy error for atom=    0.0030 (will be added to EATOM!!)
 
 
 POSCAR: Li24 P4 S20 Cl4
  positions in direct lattice
  velocities in cartesian coordinates
 exchange correlation table for  LEXCH =        8
   RHO(1)=    0.500       N(1)  =     2000
   RHO(2)=  100.500       N(2)  =     4000

 VTST: version 4.1, (05/19/21)

 CHAIN: initializing optimizer
 
 OPT: Using VASP Conjugate-Gradient optimizer
 CHAIN: Read ICHAIN            0
 
 POSCAR: Li24 P4 S20 Cl4
  positions in direct lattice
  velocities in cartesian coordinates
 


--------------------------------------------------------------------------------------------------------


 ion  position               nearest neighbor table
   1  0.976  0.340  0.283-
   2  0.976  0.840  0.783-
   3  0.021  0.310  0.709-
   4  0.021  0.810  0.209-
   5  0.180  0.167  0.958-
   6  0.211  0.803  0.011-
   7  0.829  0.160  0.039-
   8  0.792  0.792  0.986-
   9  0.292  0.987  0.290-
  10  0.329  0.041  0.659-
  11  0.680  0.960  0.665-
  12  0.711  0.013  0.302-
  13  0.180  0.667  0.458-
  14  0.211  0.303  0.511-
  15  0.829  0.660  0.539-
  16  0.792  0.292  0.486-
  17  0.292  0.487  0.790-
  18  0.329  0.541  0.159-
  19  0.680  0.460  0.165-
  20  0.711  0.513  0.802-
  21  0.476  0.284  0.838-
  22  0.476  0.784  0.338-
  23  0.521  0.211  0.308-
  24  0.521  0.711  0.808-
  25  0.506  0.500  0.498-  41 2.05  42 2.05  43 2.05  44 2.06
  26  0.506  1.000  0.998-  37 2.05  38 2.05  39 2.05  40 2.06
  27  0.006  0.500  0.998-  36 2.05  35 2.05  33 2.05  34 2.06
  28  0.006  1.000  0.498-  29 2.05  30 2.05  32 2.05  31 2.06
  29  0.144  0.879  0.604-  28 2.05
  30  0.108  0.129  0.363-  28 2.05
  31  0.877  0.864  0.395-  28 2.06
  32  0.885  0.111  0.634-  28 2.05
  33  0.885  0.611  0.134-  27 2.05
  34  0.877  0.364  0.895-  27 2.06
  35  0.108  0.629  0.863-  27 2.05
  36  0.144  0.379  0.104-  27 2.05
  37  0.644  0.106  0.877-  26 2.05
  38  0.608  0.865  0.127-  26 2.05
  39  0.385  0.136  0.109-  26 2.05
  40  0.377  0.897  0.862-  26 2.06
  41  0.644  0.606  0.377-  25 2.05
  42  0.608  0.365  0.627-  25 2.05
  43  0.385  0.636  0.609-  25 2.05
  44  0.377  0.397  0.362-  25 2.06
  45  0.753  0.744  0.754-
  46  0.753  0.244  0.254-
  47  0.253  0.755  0.242-
  48  0.253  0.255  0.742-
  49  0.001  0.968  0.004-
  50  0.001  0.468  0.504-
  51  0.501  0.006  0.466-
  52  0.501  0.506  0.966-
 
  LATTYP: Found a simple cubic cell.
 ALAT       =     9.6367117662
  
  Lattice vectors:
  
 A1 = (   9.6367117662,   0.0000000000,   0.0000000000)
 A2 = (   0.0000000000,   9.6367117662,   0.0000000000)
 A3 = (   0.0000000000,   0.0000000000,   9.6367117662)


Analysis of symmetry for initial positions (statically):
=====================================================================
 Subroutine PRICEL returns following result:
 
  LATTYP: Found a simple tetragonal cell.
 ALAT       =     6.8141796529
 C/A-ratio  =     1.4142145140
  
  Lattice vectors:
  
 A1 = (   0.0000000000,   4.8183543997,  -4.8183508818)
 A2 = (   0.0000000000,   4.8183543997,   4.8183608844)
 A3 = (   9.6367117662,   0.0000000000,   0.0000000000)
 
   2 primitive cells build up your supercell.
 

 Routine SETGRP: Setting up the symmetry group for a 
 simple cubic supercell.


 Subroutine GETGRP returns: Found  1 space group operations
 (whereof  1 operations were pure point group operations)
 out of a pool of 48 trial point group operations.


The static configuration has the point symmetry C_1 .


Analysis of symmetry for dynamics (positions and initial velocities):
=====================================================================
 Subroutine PRICEL returns following result:
 
  LATTYP: Found a simple tetragonal cell.
 ALAT       =     6.8141796529
 C/A-ratio  =     1.4142145140
  
  Lattice vectors:
  
 A1 = (   0.0000000000,   4.8183543997,  -4.8183508818)
 A2 = (   0.0000000000,   4.8183543997,   4.8183608844)
 A3 = (   9.6367117662,   0.0000000000,   0.0000000000)
 
   2 primitive cells build up your supercell.
 

 Routine SETGRP: Setting up the symmetry group for a 
 simple cubic supercell.


 Subroutine GETGRP returns: Found  1 space group operations
 (whereof  1 operations were pure point group operations)
 out of a pool of 48 trial point group operations.


The dynamic configuration has the point symmetry C_1 .


Analysis of structural, dynamic, and magnetic symmetry:
=====================================================================
 Subroutine PRICEL returns following result:
 
  LATTYP: Found a simple tetragonal cell.
 ALAT       =     6.8141796529
 C/A-ratio  =     1.4142145140
  
  Lattice vectors:
  
 A1 = (   0.0000000000,   4.8183543997,  -4.8183508818)
 A2 = (   0.0000000000,   4.8183543997,   4.8183608844)
 A3 = (   9.6367117662,   0.0000000000,   0.0000000000)
 
   2 primitive cells build up your supercell.
 

 Routine SETGRP: Setting up the symmetry group for a 
 simple cubic supercell.


 Subroutine GETGRP returns: Found  1 space group operations
 (whereof  1 operations were pure point group operations)
 out of a pool of 48 trial point group operations.


The overall configuration has the point symmetry C_1 .


 Subroutine INISYM returns: Found  1 space group operations
 (whereof  1 operations are pure point group operations),
 and found     2 'primitive' translations


----------------------------------------------------------------------------------------

                                     Primitive cell                                     

  volume of cell :     447.4623

  direct lattice vectors                    reciprocal lattice vectors
     0.000000000  4.818354400 -4.818350882     0.000000000  0.103769976 -0.103769836
     0.000000000  4.818354400  4.818360884     0.000000000  0.103769760  0.103769836
     9.636711766  0.000000000  0.000000000     0.103769836  0.000000000  0.000000000

  length of vectors
     6.814179653  6.814186726  9.636711766     0.146752808  0.146752656  0.103769836

  position of ions in fractional coordinates (direct lattice)
     0.056890395  0.622393105  0.976312736
     0.600946008  0.018777164  0.021261729
     0.209097009  0.125078619  0.180198839
     0.792275430  0.814698194  0.211275235
     0.121003404  0.199820228  0.829344112
     0.806127455  0.777613007  0.792231713
     0.697154913  0.277591069  0.292261471
     0.382261693  0.699769212  0.329270312
     0.294140237  0.625092880  0.680186427
     0.710984581  0.314703277  0.711213805
     0.446425177  0.122347683  0.476314176
     0.902305595  0.518834845  0.521234942
     0.001509597  0.998022779  0.505542917
     0.501918454  0.497990247  0.005503195
     0.274629884  0.482658457  0.144067525
     0.765700008  0.492449001  0.107966545
     0.468994019  0.259258622  0.876624674
     0.476713359  0.745494832  0.885371705
     0.228724344  0.982704113  0.644137809
     0.737664147  0.992455876  0.607947217
     0.026637114  0.245525823  0.385397268
     0.034364780  0.759294134  0.376648826
     0.990163159  0.497331068  0.752923603
     0.513099344  0.997310737  0.252933981
     0.963852636  0.971885623  0.001022558
     0.539410894  0.471823164  0.500907310

  ion indices of the primitive-cell ions
   primitive index   ion index
                 1           1
                 2           3
                 3           5
                 4          14
                 5           7
                 6          16
                 7           9
                 8          18
                 9          19
                10          12
                11          22
                12          23
                13          25
                14          27
                15          36
                16          30
                17          34
                18          33
                19          41
                20          42
                21          39
                22          44
                23          46
                24          47
                25          50
                26          52

----------------------------------------------------------------------------------------

 
 
 KPOINTS: Automatic mesh                          

Automatic generation of k-mesh.
 Grid dimensions read from file:
 generate k-points for:    2    2    2

 Generating k-lattice:

  Cartesian coordinates                     Fractional coordinates (reciprocal lattice)
     0.051884918  0.000000000  0.000000000     0.500000000  0.000000000  0.000000000
     0.000000000  0.051884918  0.000000000     0.000000000  0.500000000  0.000000000
     0.000000000  0.000000000  0.051884918     0.000000000  0.000000000  0.500000000

  Length of vectors
     0.051884918  0.051884918  0.051884918

  Shift w.r.t. Gamma in fractional coordinates (k-lattice)
     0.500000000  0.500000000  0.500000000

 
 Subroutine IBZKPT returns following result:
 ===========================================
 
 Found      4 irreducible k-points:
 
 Following reciprocal coordinates:
            Coordinates               Weight
  0.250000  0.250000  0.250000      2.000000
 -0.250000  0.250000  0.250000      2.000000
 -0.250000 -0.250000  0.250000      2.000000
  0.250000 -0.250000  0.250000      2.000000
 
 Following cartesian coordinates:
            Coordinates               Weight
  0.025942  0.025942  0.025942      2.000000
 -0.025942  0.025942  0.025942      2.000000
 -0.025942 -0.025942  0.025942      2.000000
  0.025942 -0.025942  0.025942      2.000000
 


--------------------------------------------------------------------------------------------------------




 Dimension of arrays:
   k-points           NKPTS =      4   k-points in BZ     NKDIM =      4   number of bands    NBANDS=    176
   number of dos      NEDOS =    301   number of ions     NIONS =     52
   non local maximal  LDIM  =      6   non local SUM 2l+1 LMDIM =     18
   total plane-waves  NPLWV = 373248
   max r-space proj   IRMAX =   5819   max aug-charges    IRDMAX=  17800
   dimension x,y,z NGX =    72 NGY =   72 NGZ =   72
   dimension x,y,z NGXF=   144 NGYF=  144 NGZF=  144
   support grid    NGXF=   144 NGYF=  144 NGZF=  144
   ions per type =              24   4  20   4
   NGX,Y,Z   is equivalent  to a cutoff of  12.42, 12.42, 12.42 a.u.
   NGXF,Y,Z  is equivalent  to a cutoff of  24.84, 24.84, 24.84 a.u.

 SYSTEM =  unknown system                          
 POSCAR =  Li24 P4 S20 Cl4                         

 Startparameter for this run:
   NWRITE =      2    write-flag & timer
   PREC   = accu      normal or accurate (medium, high low for compatibility)
   ISTART =      0    job   : 0-new  1-cont  2-samecut
   ICHARG =      2    charge: 1-file 2-atom 10-const
   ISPIN  =      2    spin polarized calculation?
   LNONCOLLINEAR =      F non collinear calculations
   LSORBIT =      F    spin-orbit coupling
   INIWAV =      1    electr: 0-lowe 1-rand  2-diag
   LASPH  =      T    aspherical Exc in radial PAW
 Electronic Relaxation 1
   ENCUT  =  520.0 eV  38.22 Ry    6.18 a.u.  17.92 17.92 17.92*2*pi/ulx,y,z
   ENINI  =  520.0     initial cutoff
   ENAUG  = 1041.7 eV  augmentation charge cutoff
   NELM   =    100;   NELMIN=  2; NELMDL=-10     # of ELM steps 
   EDIFF  = 0.1E-05   stopping-criterion for ELM
   LREAL  =      T    real-space projection
   NLSPLINE    = F    spline interpolate recip. space projectors
   LCOMPAT=      F    compatible to vasp.4.4
   GGA_COMPAT  = T    GGA compatible to vasp.4.4-vasp.4.6
   LMAXPAW     = -100 max onsite density
   LMAXMIX     =    4 max onsite mixed and CHGCAR
   VOSKOWN=      0    Vosko Wilk Nusair interpolation
   ROPT   =   -0.00025  -0.00025  -0.00025  -0.00025
 Ionic relaxation
   EDIFFG = -.1E-02   stopping-criterion for IOM
   NSW    =   1000    number of steps for IOM
   NBLOCK =      1;   KBLOCK =   1000    inner block; outer block 
   IBRION =      2    ionic relax: 0-MD 1-quasi-New 2-CG
   NFREE  =      1    steps in history (QN), initial steepest desc. (CG)
   ISIF   =      2    stress and relaxation
   IWAVPR =     11    prediction:  0-non 1-charg 2-wave 3-comb
   ISYM   =      2    0-nonsym 1-usesym 2-fastsym
   LCORR  =      T    Harris-Foulkes like correction to forces

   POTIM  = 0.2000    time-step for ionic-motion
   TEIN   =    0.0    initial temperature
   TEBEG  =    0.0;   TEEND  =   0.0 temperature during run
   SMASS  =  -3.00    Nose mass-parameter (am)
   estimated Nose-frequenzy (Omega)   =  0.10E-29 period in steps = 0.31E+47 mass=  -0.212E-26a.u.
   SCALEE = 1.0000    scale energy and forces
   NPACO  =    256;   APACO  = 10.0  distance and # of slots for P.C.
   PSTRESS=    0.0 pullay stress

  Mass of Ions in am
   POMASS =   7.01 30.97 32.07 35.45
  Ionic Valenz
   ZVAL   =   3.00  5.00  6.00  7.00
  Atomic Wigner-Seitz radii
   RWIGS  =  -1.00 -1.00 -1.00 -1.00
  virtual crystal weights 
   VCA    =   1.00  1.00  1.00  1.00
   NELECT =     240.0000    total number of electrons
   NUPDOWN=      -1.0000    fix difference up-down

 DOS related values:
   EMIN   =  10.00;   EMAX   =-10.00  energy-range for DOS
   EFERMI =   0.00;   METHOD = LEGACY      
   ISMEAR =     0;   SIGMA  =   0.03  broadening in eV -4-tet -1-fermi 0-gaus

 Electronic relaxation 2 (details)
   IALGO  =     68    algorithm
   LDIAG  =      T    sub-space diagonalisation (order eigenvalues)
   LSUBROT=      F    optimize rotation matrix (better conditioning)
   TURBO    =      0    0=normal 1=particle mesh
   IRESTART =      0    0=no restart 2=restart with 2 vectors
   NREBOOT  =      0    no. of reboots
   NMIN     =      0    reboot dimension
   EREF     =   0.00    reference energy to select bands
   IMIX   =      4    mixing-type and parameters
     AMIX     =   0.40;   BMIX     =  1.00
     AMIX_MAG =   1.60;   BMIX_MAG =  1.00
     AMIN     =   0.10
     WC   =   100.;   INIMIX=   1;  MIXPRE=   1;  MAXMIX= -45

 Intra band minimization:
   WEIMIN = 0.0010     energy-eigenvalue tresh-hold
   EBREAK =  0.14E-08  absolut break condition
   DEPER  =   0.30     relativ break condition  

   TIME   =   0.40     timestep for ELM

  volume/ion in A,a.u.               =      17.21       116.14
  Fermi-wavevector in a.u.,A,eV,Ry     =   1.055722  1.995026 15.164369  1.114550
  Thomas-Fermi vector in A             =   2.190931
 
 Write flags
   LWAVE        =      F    write WAVECAR
   LDOWNSAMPLE  =      F    k-point downsampling of WAVECAR
   LCHARG       =      F    write CHGCAR
   LVTOT        =      F    write LOCPOT, total local potential
   LVHAR        =      F    write LOCPOT, Hartree potential only
   LELF         =      F    write electronic localiz. function (ELF)
   LORBIT       =      0    0 simple, 1 ext, 2 COOP (PROOUT), +10 PAW based schemes


 Dipole corrections
   LMONO  =      F    monopole corrections only (constant potential shift)
   LDIPOL =      F    correct potential (dipole corrections)
   IDIPOL =      0    1-x, 2-y, 3-z, 4-all directions 
   EPSILON=  1.0000000 bulk dielectric constant

 Exchange correlation treatment:
   GGA     =    PE    GGA type
   LEXCH   =     8    internal setting for exchange type
   LIBXC   =     F    Libxc                    
   VOSKOWN =     0    Vosko Wilk Nusair interpolation
   LHFCALC =     F    Hartree Fock is set to
   LHFONE  =     F    Hartree Fock one center treatment
   AEXX    =    0.0000 exact exchange contribution

 Linear response parameters
   LEPSILON=     F    determine dielectric tensor
   LRPA    =     F    only Hartree local field effects (RPA)
   LNABLA  =     F    use nabla operator in PAW spheres
   LVEL    =     F    velocity operator in full k-point grid
   CSHIFT  =0.1000    complex shift for real part using Kramers Kronig
   OMEGAMAX=  -1.0    maximum frequency
   DEG_THRESHOLD= 0.2000000E-02 threshold for treating states as degnerate
   RTIME   =   -0.100 relaxation time in fs
  (WPLASMAI=    0.000 imaginary part of plasma frequency in eV, 0.658/RTIME)
   DFIELD  = 0.0000000 0.0000000 0.0000000 field for delta impulse in time
 
  Optional k-point grid parameters
   LKPOINTS_OPT  =     F    use optional k-point grid
   KPOINTS_OPT_MODE=     1    mode for optional k-point grid
 
 Orbital magnetization related:
   ORBITALMAG=     F  switch on orbital magnetization
   LCHIMAG   =     F  perturbation theory with respect to B field
   DQ        =  0.001000  dq finite difference perturbation B field
   LLRAUG    =     F  two centre corrections for induced B field
   LBONE     =     F  B-component reconstruction in AE one-centre
   LVGVCALC  =     T  calculate vGv susceptibility
   LVGVAPPL  =     F  apply vGv susceptibility instead of pGv for G=0

 Random number generation:
   RANDOM_GENERATOR = DEFAULT
   PCG_SEED         = not used


--------------------------------------------------------------------------------------------------------


 conjugate gradient relaxation of ions
 charge density and potential will be updated during run
 spin polarized calculation
 RMM-DIIS sequential band-by-band and
  variant of blocked Davidson during initial phase
 perform sub-space diagonalisation
    before iterative eigenvector-optimisation
 modified Broyden-mixing scheme, WC =      100.0
 initial mixing is a Kerker type mixing with AMIX =  0.4000 and BMIX =      1.0000
 Hartree-type preconditioning will be used
 using additional bands           56
 real space projection scheme for non local part
 use partial core corrections
 calculate Harris-corrections to forces 
   (improved forces if not selfconsistent)
 use gradient corrections 
 use of overlap-Matrix (Vanderbilt PP)
 Gauss-broadening in eV      SIGMA  =   0.03


--------------------------------------------------------------------------------------------------------


  energy-cutoff  :      520.00
  volume of cell :      894.92
      direct lattice vectors                 reciprocal lattice vectors
     9.636711766  0.000000000  0.000000000     0.103769836  0.000000000  0.000000000
     0.000000000  9.636711766  0.000000000     0.000000000  0.103769836  0.000000000
     0.000000000  0.000000000  9.636711766     0.000000000  0.000000000  0.103769836

  length of vectors
     9.636711766  9.636711766  9.636711766     0.103769836  0.103769836  0.103769836


 
 k-points in units of 2pi/SCALE and weight: Automatic mesh                          
   0.02594246  0.02594246  0.02594246       0.250
  -0.02594246  0.02594246  0.02594246       0.250
  -0.02594246 -0.02594246  0.02594246       0.250
   0.02594246 -0.02594246  0.02594246       0.250
 
 k-points in reciprocal lattice and weights: Automatic mesh                          
   0.25000000  0.25000000  0.25000000       0.250
  -0.25000000  0.25000000  0.25000000       0.250
  -0.25000000 -0.25000000  0.25000000       0.250
   0.25000000 -0.25000000  0.25000000       0.250
 
 position of ions in fractional coordinates (direct lattice) 
   0.97631274  0.33964165  0.28275171
   0.97631088  0.83964421  0.78275018
   0.02126173  0.30986149  0.70891590
   0.02126399  0.80986581  0.20891198
   0.18019884  0.16708776  0.95799098
   0.21127662  0.80348512  0.01120897
   0.82934411  0.16041177  0.03940858
   0.79223164  0.79186565  0.98574178
   0.29226147  0.98737269  0.29021910
   0.32926953  0.04101539  0.65875453
   0.68018339  0.95961549  0.66547692
   0.71121380  0.01284392  0.30185936
   0.18020029  0.66708898  0.45798816
   0.21127524  0.30348672  0.51121170
   0.82934636  0.66041326  0.53940685
   0.79223171  0.29187014  0.48574308
   0.29225906  0.48737218  0.79021830
   0.32927031  0.54101529  0.15875432
   0.68018643  0.45961642  0.16547680
   0.71121426  0.51284239  0.80185552
   0.47631123  0.28438664  0.83796783
   0.47631418  0.78438619  0.33796207
   0.52123494  0.21057016  0.30826484
   0.52123477  0.71056872  0.80826396
   0.50554292  0.49976603  0.49825711
   0.50554365  0.99976619  0.99825659
   0.00550319  0.49995420  0.99803642
   0.00550288  0.99995381  0.49803475
   0.14406789  0.87864293  0.60401473
   0.10796654  0.12907446  0.36337463
   0.87662722  0.86412719  0.39513024
   0.88536915  0.11110282  0.63438993
   0.88537170  0.61110391  0.13439137
   0.87662467  0.36412621  0.89513268
   0.10796478  0.62907446  0.86337333
   0.14406752  0.37864405  0.10401468
   0.64413740  0.10571508  0.87698945
   0.60795086  0.86506209  0.12739579
   0.38539727  0.13608143  0.10944450
   0.37665074  0.89682908  0.86246490
   0.64413781  0.60571404  0.37699051
   0.60794722  0.36505990  0.62739624
   0.38539623  0.63608087  0.60944457
   0.37664883  0.39682933  0.36246509
   0.75292312  0.74374622  0.75358260
   0.75292360  0.24374704  0.25358421
   0.25293398  0.75520481  0.24210648
   0.25293217  0.25520359  0.74210894
   0.00102355  0.96787086  0.00401413
   0.00102256  0.46786899  0.50401698
   0.50090743  0.00561519  0.46620596
   0.50090731  0.50561687  0.96620666
 
 position of ions in cartesian coordinates  (Angst):
   9.40844443  3.27302864  2.72479671
   9.40842656  8.09140923  7.54313787
   0.20489316  2.98604587  6.83161819
   0.20491490  7.80444341  2.01322458
   1.73652427  1.61017661  9.23188293
   2.03601186  7.74295453  0.10801765
   7.99215016  1.54584196  0.37976911
   7.63450799  7.63098098  9.49930946
   2.81643956  9.51502599  2.79675784
   3.17307556  0.39525347  6.34822751
   6.55473129  9.24753785  6.41300922
   6.85376244  0.12377320  2.90893166
   1.73653826  6.42854422  4.41349986
   2.03599854  2.92461403  4.92639978
   7.99217180  6.36421223  5.19810835
   7.63450867  2.81266842  4.68096604
   2.81641628  4.69666527  7.61510599
   3.17308309  5.21360838  1.52986963
   6.55476055  4.42919093  1.59465221
   6.85376681  4.94211433  7.72725049
   4.59007399  2.74055212  8.07525448
   4.59010242  7.55890361  3.25684303
   5.02299090  2.02920390  2.97065945
   5.02298927  6.84754597  7.78900683
   4.87177138  4.81610122  4.80156016
   4.87177846  9.63445859  9.61991104
   0.05303270  4.81791449  9.61778927
   0.05302966  9.63626665  4.79941732
   1.38834071  8.46722863  5.82071589
   1.04044247  1.24385341  3.50173658
   8.44780381  8.32734466  3.80775626
   8.53204731  1.07066585  6.11343286
   8.53207193  5.88903222  1.29509091
   8.44777931  3.50897932  8.62613563
   1.04042550  6.06220929  8.32007997
   1.38833721  3.64888361  1.00235948
   6.20736650  1.01874576  8.45129457
   5.85864720  8.33635404  1.22767646
   3.71396238  1.31137748  1.05468506
   3.62967459  8.64248336  8.31132561
   6.20737040  5.83709164  3.63294892
   5.85861210  3.51797702  6.04603676
   3.71395240  6.12972802  5.87304170
   3.62965617  3.82412992  3.49297158
   7.25570312  7.16726800  7.26205834
   7.25570775  2.34891995  2.44371792
   2.43745187  7.27769106  2.33311037
   2.43743439  2.45932340  7.15148999
   0.00986362  9.32709254  0.03868306
   0.00985410  4.50871855  4.85706635
   4.82710054  0.05411196  4.49269249
   4.82709937  4.87248407  9.31105509
 


--------------------------------------------------------------------------------------------------------


 k-point   1 :   0.2500 0.2500 0.2500  plane waves:   24084
 k-point   2 :  -0.2500 0.2500 0.2500  plane waves:   24084
 k-point   3 :  -0.2500-0.2500 0.2500  plane waves:   24084
 k-point   4 :   0.2500-0.2500 0.2500  plane waves:   24084

 maximum and minimum number of plane-waves per node :       766      738

 maximum number of plane-waves:     24084
 maximum index in each direction: 
   IXMAX=   18   IYMAX=   18   IZMAX=   17
   IXMIN=  -18   IYMIN=  -18   IZMIN=  -18


 real space projection operators:
  total allocation   :      28595.20 KBytes
  max/ min on nodes  :       1202.97        747.98


 parallel 3D FFT for wavefunctions:
    minimum data exchange during FFTs selected (reduces bandwidth)
 parallel 3D FFT for charge:
    minimum data exchange during FFTs selected (reduces bandwidth)


 total amount of memory used by VASP MPI-rank0    48164. kBytes
=======================================================================

   base      :      30000. kBytes
   nonlr-proj:       6594. kBytes
   fftplans  :       1747. kBytes
   grid      :       5278. kBytes
   one-center:         62. kBytes
   wavefun   :       4483. kBytes
 
     INWAV:  cpu time      0.0000: real time      0.0006
 Broyden mixing: mesh for mixing (old mesh)
   NGX = 35   NGY = 35   NGZ = 35
  (NGX  =144   NGY  =144   NGZ  =144)
  gives a total of  42875 points

 initial charge density was supplied:
 charge density of overlapping atoms calculated
 number of electron     240.0000000 magnetization      52.0000000
 keeping initial charge density in first step


--------------------------------------------------------------------------------------------------------


 Maximum index for non-local projection operator          542
 Maximum index for augmentation-charges          804 (set IRDMAX)


--------------------------------------------------------------------------------------------------------


 First call to EWALD:  gamma=   0.184
 Maximum number of real-space cells 3x 3x 3
 Maximum number of reciprocal cells 3x 3x 3

    FEWALD:  cpu time      0.0031: real time      0.0035


--------------------------------------- Ionic step        1  -------------------------------------------




--------------------------------------- Iteration      1(   1)  ---------------------------------------


    POTLOK:  cpu time      0.0586: real time      0.1394
    SETDIJ:  cpu time      0.4125: real time      0.4601
     EDDAV:  cpu time      2.3136: real time      2.5604
       DOS:  cpu time      0.0019: real time      0.0040
    --------------------------------------------
      LOOP:  cpu time      2.7867: real time      3.1639

 eigenvalue-minimisations  :  3080
 total energy-change (2. order) : 0.1593400E+04  (-0.1134639E+05)
 number of electron     240.0000000 magnetization      52.0000000
 augmentation part      240.0000000 magnetization      52.0000000

 Free energy of the ion-electron system (eV)
  ---------------------------------------------------
  alpha Z        PSCENC =       303.32991449
  Ewald energy   TEWEN  =     -8870.29600510
  -Hartree energ DENC   =     -2078.58342067
  -exchange      EXHF   =         0.00000000
  -V(xc)+E(xc)   XCENC  =       534.55989968
  PAW double counting   =      8141.38806575    -8271.61346273
  entropy T*S    EENTRO =        -0.00724977
  eigenvalues    EBANDS =      -868.51799079
  atomic energy  EATOM  =     12703.13999606
  Solvation  Ediel_sol  =         0.00000000
  ---------------------------------------------------
  free energy    TOTEN  =      1593.39974691 eV

  energy without entropy =     1593.40699669  energy(sigma->0) =     1593.40337180


--------------------------------------------------------------------------------------------------------




--------------------------------------- Iteration      1(   2)  ---------------------------------------


     EDDAV:  cpu time      2.7098: real time      2.7503
       DOS:  cpu time      0.0005: real time      0.0005
    --------------------------------------------
      LOOP:  cpu time      2.7102: real time      2.7508

 eigenvalue-minimisations  :  3864
 total energy-change (2. order) :-0.1649744E+04  (-0.1550033E+04)
 number of electron     240.0000000 magnetization      52.0000000
 augmentation part      240.0000000 magnetization      52.0000000

 Free energy of the ion-electron system (eV)
  ---------------------------------------------------
  alpha Z        PSCENC =       303.32991449
  Ewald energy   TEWEN  =     -8870.29600510
  -Hartree energ DENC   =     -2078.58342067
  -exchange      EXHF   =         0.00000000
  -V(xc)+E(xc)   XCENC  =       534.55989968
  PAW double counting   =      8141.38806575    -8271.61346273
  entropy T*S    EENTRO =        -0.00000000
  eigenvalues    EBANDS =     -2518.26923284
  atomic energy  EATOM  =     12703.13999606
  Solvation  Ediel_sol  =         0.00000000
  ---------------------------------------------------
  free energy    TOTEN  =       -56.34424536 eV

  energy without entropy =      -56.34424536  energy(sigma->0) =      -56.34424536


--------------------------------------------------------------------------------------------------------




--------------------------------------- Iteration      1(   3)  ---------------------------------------


     EDDAV:  cpu time      2.6529: real time      2.7155
       DOS:  cpu time      0.0005: real time      0.0005
    --------------------------------------------
      LOOP:  cpu time      2.6534: real time      2.7160

 eigenvalue-minimisations  :  3784
 total energy-change (2. order) :-0.1721721E+03  (-0.1701924E+03)
 number of electron     240.0000000 magnetization      52.0000000
 augmentation part      240.0000000 magnetization      52.0000000

 Free energy of the ion-electron system (eV)
  ---------------------------------------------------
  alpha Z        PSCENC =       303.32991449
  Ewald energy   TEWEN  =     -8870.29600510
  -Hartree energ DENC   =     -2078.58342067
  -exchange      EXHF   =         0.00000000
  -V(xc)+E(xc)   XCENC  =       534.55989968
  PAW double counting   =      8141.38806575    -8271.61346273
  entropy T*S    EENTRO =        -0.00000000
  eigenvalues    EBANDS =     -2690.44133280
  atomic energy  EATOM  =     12703.13999606
  Solvation  Ediel_sol  =         0.00000000
  ---------------------------------------------------
  free energy    TOTEN  =      -228.51634532 eV

  energy without entropy =     -228.51634532  energy(sigma->0) =     -228.51634532


--------------------------------------------------------------------------------------------------------




--------------------------------------- Iteration      1(   4)  ---------------------------------------


     EDDAV:  cpu time      3.2188: real time      3.2611
       DOS:  cpu time      0.0004: real time      0.0004
    --------------------------------------------
      LOOP:  cpu time      3.2192: real time      3.2615

 eigenvalue-minimisations  :  4768
 total energy-change (2. order) :-0.1319565E+02  (-0.1317397E+02)
 number of electron     240.0000000 magnetization      52.0000000
 augmentation part      240.0000000 magnetization      52.0000000

 Free energy of the ion-electron system (eV)
  ---------------------------------------------------
  alpha Z        PSCENC =       303.32991449
  Ewald energy   TEWEN  =     -8870.29600510
  -Hartree energ DENC   =     -2078.58342067
  -exchange      EXHF   =         0.00000000
  -V(xc)+E(xc)   XCENC  =       534.55989968
  PAW double counting   =      8141.38806575    -8271.61346273
  entropy T*S    EENTRO =        -0.00000000
  eigenvalues    EBANDS =     -2703.63697916
  atomic energy  EATOM  =     12703.13999606
  Solvation  Ediel_sol  =         0.00000000
  ---------------------------------------------------
  free energy    TOTEN  =      -241.71199169 eV

  energy without entropy =     -241.71199169  energy(sigma->0) =     -241.71199169


--------------------------------------------------------------------------------------------------------




--------------------------------------- Iteration      1(   5)  ---------------------------------------


     EDDAV:  cpu time      3.0265: real time      3.0509
       DOS:  cpu time      0.0005: real time      0.0005
    --------------------------------------------
      LOOP:  cpu time      3.0270: real time      3.0514

 eigenvalue-minimisations  :  4440
 total energy-change (2. order) :-0.2184710E+00  (-0.2183764E+00)
 number of electron     240.0000000 magnetization      52.0000000
 augmentation part      240.0000000 magnetization      52.0000000

 Free energy of the ion-electron system (eV)
  ---------------------------------------------------
  alpha Z        PSCENC =       303.32991449
  Ewald energy   TEWEN  =     -8870.29600510
  -Hartree energ DENC   =     -2078.58342067
  -exchange      EXHF   =         0.00000000
  -V(xc)+E(xc)   XCENC  =       534.55989968
  PAW double counting   =      8141.38806575    -8271.61346273
  entropy T*S    EENTRO =        -0.00000000
  eigenvalues    EBANDS =     -2703.85545020
  atomic energy  EATOM  =     12703.13999606
  Solvation  Ediel_sol  =         0.00000000
  ---------------------------------------------------
  free energy    TOTEN  =      -241.93046273 eV

  energy without entropy =     -241.93046273  energy(sigma->0) =     -241.93046273


--------------------------------------------------------------------------------------------------------




--------------------------------------- Iteration      1(   6)  ---------------------------------------


     EDDAV:  cpu time      3.1568: real time      3.1822
       DOS:  cpu time      0.0005: real time      0.0005
    --------------------------------------------
      LOOP:  cpu time      3.1572: real time      3.1827

 eigenvalue-minimisations  :  4664
 total energy-change (2. order) :-0.1143093E-01  (-0.1142974E-01)
 number of electron     240.0000000 magnetization      52.0000000
 augmentation part      240.0000000 magnetization      52.0000000

 Free energy of the ion-electron system (eV)
  ---------------------------------------------------
  alpha Z        PSCENC =       303.32991449
  Ewald energy   TEWEN  =     -8870.29600510
  -Hartree energ DENC   =     -2078.58342067
  -exchange      EXHF   =         0.00000000
  -V(xc)+E(xc)   XCENC  =       534.55989968
  PAW double counting   =      8141.38806575    -8271.61346273
  entropy T*S    EENTRO =        -0.00000000
  eigenvalues    EBANDS =     -2703.86688113
  atomic energy  EATOM  =     12703.13999606
  Solvation  Ediel_sol  =         0.00000000
  ---------------------------------------------------
  free energy    TOTEN  =      -241.94189366 eV

  energy without entropy =     -241.94189366  energy(sigma->0) =     -241.94189366


--------------------------------------------------------------------------------------------------------




--------------------------------------- Iteration      1(   7)  ---------------------------------------


     EDDAV:  cpu time      3.1127: real time      3.1463
       DOS:  cpu time      0.0005: real time      0.0005
    --------------------------------------------
      LOOP:  cpu time      3.1131: real time      3.1467

 eigenvalue-minimisations  :  4576
 total energy-change (2. order) :-0.3637230E-03  (-0.3637018E-03)
 number of electron     240.0000000 magnetization      52.0000000
 augmentation part      240.0000000 magnetization      52.0000000

 Free energy of the ion-electron system (eV)
  ---------------------------------------------------
  alpha Z        PSCENC =       303.32991449
  Ewald energy   TEWEN  =     -8870.29600510
  -Hartree energ DENC   =     -2078.58342067
  -exchange      EXHF   =         0.00000000
  -V(xc)+E(xc)   XCENC  =       534.55989968
  PAW double counting   =      8141.38806575    -8271.61346273
  entropy T*S    EENTRO =        -0.00000000
  eigenvalues    EBANDS =     -2703.86724486
  atomic energy  EATOM  =     12703.13999606
  Solvation  Ediel_sol  =         0.00000000
  ---------------------------------------------------
  free energy    TOTEN  =      -241.94225738 eV

  energy without entropy =     -241.94225738  energy(sigma->0) =     -241.94225738


--------------------------------------------------------------------------------------------------------




--------------------------------------- Iteration      1(   8)  ---------------------------------------


     EDDAV:  cpu time      3.1120: real time      3.1370
       DOS:  cpu time      0.0004: real time      0.0004
    --------------------------------------------
      LOOP:  cpu time      3.1124: real time      3.1374

 eigenvalue-minimisations  :  4584
 total energy-change (2. order) :-0.2129429E-04  (-0.2129409E-04)
 number of electron     240.0000000 magnetization      52.0000000
 augmentation part      240.0000000 magnetization      52.0000000

 Free energy of the ion-electron system (eV)
  ---------------------------------------------------
  alpha Z        PSCENC =       303.32991449
  Ewald energy   TEWEN  =     -8870.29600510
  -Hartree energ DENC   =     -2078.58342067
  -exchange      EXHF   =         0.00000000
  -V(xc)+E(xc)   XCENC  =       534.55989968
  PAW double counting   =      8141.38806575    -8271.61346273
  entropy T*S    EENTRO =        -0.00000000
  eigenvalues    EBANDS =     -2703.86726615
  atomic energy  EATOM  =     12703.13999606
  Solvation  Ediel_sol  =         0.00000000
  ---------------------------------------------------
  free energy    TOTEN  =      -241.94227868 eV

  energy without entropy =     -241.94227868  energy(sigma->0) =     -241.94227868


--------------------------------------------------------------------------------------------------------




--------------------------------------- Iteration      1(   9)  ---------------------------------------


     EDDAV:  cpu time      3.0322: real time      3.0552
       DOS:  cpu time      0.0005: real time      0.0005
    --------------------------------------------
      LOOP:  cpu time      3.0327: real time      3.0557

 eigenvalue-minimisations  :  4448
 total energy-change (2. order) :-0.1383665E-05  (-0.1383485E-05)
 number of electron     240.0000000 magnetization      52.0000000
 augmentation part      240.0000000 magnetization      52.0000000

 Free energy of the ion-electron system (eV)
  ---------------------------------------------------
  alpha Z        PSCENC =       303.32991449
  Ewald energy   TEWEN  =     -8870.29600510
  -Hartree energ DENC   =     -2078.58342067
  -exchange      EXHF   =         0.00000000
  -V(xc)+E(xc)   XCENC  =       534.55989968
  PAW double counting   =      8141.38806575    -8271.61346273
  entropy T*S    EENTRO =        -0.00000000
  eigenvalues    EBANDS =     -2703.86726753
  atomic energy  EATOM  =     12703.13999606
  Solvation  Ediel_sol  =         0.00000000
  ---------------------------------------------------
  free energy    TOTEN  =      -241.94228006 eV

  energy without entropy =     -241.94228006  energy(sigma->0) =     -241.94228006


--------------------------------------------------------------------------------------------------------




--------------------------------------- Iteration      1(  10)  ---------------------------------------


     EDDAV:  cpu time      2.0301: real time      2.0450
       DOS:  cpu time      0.0006: real time      0.0006
    CHARGE:  cpu time      0.0678: real time      0.0746
    MIXING:  cpu time      0.0021: real time      0.0035
    --------------------------------------------
      LOOP:  cpu time      2.1006: real time      2.1237

 eigenvalue-minimisations  :  2648
 total energy-change (2. order) :-0.5986658E-07  (-0.6023658E-07)
 number of electron     239.9999973 magnetization      27.1814311
 augmentation part        1.4926406 magnetization      27.6240197

 Broyden mixing:
  rms(total) = 0.64157E+01    rms(broyden)= 0.64152E+01
  rms(prec ) = 0.66528E+01
  weight for this iteration     100.00

 Free energy of the ion-electron system (eV)
  ---------------------------------------------------
  alpha Z        PSCENC =       303.32991449
  Ewald energy   TEWEN  =     -8870.29600510
  -Hartree energ DENC   =     -2078.58342067
  -exchange      EXHF   =         0.00000000
  -V(xc)+E(xc)   XCENC  =       534.55989968
  PAW double counting   =      8141.38806575    -8271.61346273
  entropy T*S    EENTRO =        -0.00000000
  eigenvalues    EBANDS =     -2703.86726759
  atomic energy  EATOM  =     12703.13999606
  Solvation  Ediel_sol  =         0.00000000
  ---------------------------------------------------
  free energy    TOTEN  =      -241.94228012 eV

  energy without entropy =     -241.94228012  energy(sigma->0) =     -241.94228012


--------------------------------------------------------------------------------------------------------




--------------------------------------- Iteration      1(  11)  ---------------------------------------


    POTLOK:  cpu time      0.0550: real time      0.0560
    SETDIJ:  cpu time      0.4078: real time      0.4097
    EDDIAG:  cpu time      0.3668: real time      0.3699
  RMM-DIIS:  cpu time      1.1708: real time      1.1808
    ORTHCH:  cpu time      0.0645: real time      0.0655
       DOS:  cpu time      0.0005: real time      0.0005
    CHARGE:  cpu time      0.0662: real time      0.0685
    MIXING:  cpu time      0.0011: real time      0.0032
    --------------------------------------------
      LOOP:  cpu time      2.1328: real time      2.1540

 eigenvalue-minimisations  :  2816
 total energy-change (2. order) : 0.5006880E+01  (-0.4607106E+01)
 number of electron     239.9999973 magnetization      16.2566854
 augmentation part        1.7069687 magnetization      16.4376934

 Broyden mixing:
  rms(total) = 0.33054E+01    rms(broyden)= 0.33052E+01
  rms(prec ) = 0.34181E+01
  weight for this iteration     100.00

 eigenvalues of (default mixing * dielectric matrix)
  average eigenvalue GAMMA=   0.7251
  0.7251

 Free energy of the ion-electron system (eV)
  ---------------------------------------------------
  alpha Z        PSCENC =       303.32991449
  Ewald energy   TEWEN  =     -8870.29600510
  -Hartree energ DENC   =     -2125.39539558
  -exchange      EXHF   =         0.00000000
  -V(xc)+E(xc)   XCENC  =       542.64574564
  PAW double counting   =      8926.84812726    -9063.12715667
  entropy T*S    EENTRO =        -0.00000000
  eigenvalues    EBANDS =     -2654.08062647
  atomic energy  EATOM  =     12703.13999606
  Solvation  Ediel_sol  =         0.00000000
  ---------------------------------------------------
  free energy    TOTEN  =      -236.93540038 eV

  energy without entropy =     -236.93540038  energy(sigma->0) =     -236.93540038


--------------------------------------------------------------------------------------------------------




--------------------------------------- Iteration      1(  12)  ---------------------------------------


    POTLOK:  cpu time      0.0542: real time      0.0551
    SETDIJ:  cpu time      0.4124: real time      0.4146
    EDDIAG:  cpu time      0.3594: real time      0.3617
  RMM-DIIS:  cpu time      1.2102: real time      1.2207
    ORTHCH:  cpu time      0.0653: real time      0.0669
       DOS:  cpu time      0.0005: real time      0.0005
    CHARGE:  cpu time      0.0667: real time      0.0687
    MIXING:  cpu time      0.0010: real time      0.0010
    --------------------------------------------
      LOOP:  cpu time      2.1697: real time      2.1893

 eigenvalue-minimisations  :  2938
 total energy-change (2. order) :-0.1923733E+02  (-0.2037305E+01)
 number of electron     239.9999973 magnetization       0.3637164
 augmentation part        1.8024079 magnetization       0.7024913

 Broyden mixing:
  rms(total) = 0.20163E+01    rms(broyden)= 0.20163E+01
  rms(prec ) = 0.20766E+01
  weight for this iteration     100.00

 eigenvalues of (default mixing * dielectric matrix)
  average eigenvalue GAMMA=   1.1668
  1.6621  0.6716

 Free energy of the ion-electron system (eV)
  ---------------------------------------------------
  alpha Z        PSCENC =       303.32991449
  Ewald energy   TEWEN  =     -8870.29600510
  -Hartree energ DENC   =     -2148.45116918
  -exchange      EXHF   =         0.00000000
  -V(xc)+E(xc)   XCENC  =       536.34239354
  PAW double counting   =      9278.44080997    -9418.29697056
  entropy T*S    EENTRO =        -0.00000000
  eigenvalues    EBANDS =     -2640.38170228
  atomic energy  EATOM  =     12703.13999606
  Solvation  Ediel_sol  =         0.00000000
  ---------------------------------------------------
  free energy    TOTEN  =      -256.17273305 eV

  energy without entropy =     -256.17273305  energy(sigma->0) =     -256.17273305


--------------------------------------------------------------------------------------------------------




--------------------------------------- Iteration      1(  13)  ---------------------------------------


    POTLOK:  cpu time      0.0531: real time      0.0540
    SETDIJ:  cpu time      0.4155: real time      0.4175
    EDDIAG:  cpu time      0.3575: real time      0.3606
  RMM-DIIS:  cpu time      1.2010: real time      1.2116
    ORTHCH:  cpu time      0.0651: real time      0.0658
       DOS:  cpu time      0.0005: real time      0.0005
    CHARGE:  cpu time      0.0669: real time      0.0685
    MIXING:  cpu time      0.0010: real time      0.0010
    --------------------------------------------
      LOOP:  cpu time      2.1608: real time      2.1795

 eigenvalue-minimisations  :  2901
 total energy-change (2. order) :-0.2498872E+01  (-0.8738563E+00)
 number of electron     239.9999973 magnetization      -1.8648973
 augmentation part        1.9033107 magnetization      -1.7622531

 Broyden mixing:
  rms(total) = 0.65585E+00    rms(broyden)= 0.65585E+00
  rms(prec ) = 0.68802E+00
  weight for this iteration     100.00

 eigenvalues of (default mixing * dielectric matrix)
  average eigenvalue GAMMA=   1.3014
  2.5019  0.7491  0.6532

 Free energy of the ion-electron system (eV)
  ---------------------------------------------------
  alpha Z        PSCENC =       303.32991449
  Ewald energy   TEWEN  =     -8870.29600510
  -Hartree energ DENC   =     -2175.18693350
  -exchange      EXHF   =         0.00000000
  -V(xc)+E(xc)   XCENC  =       537.92888447
  PAW double counting   =      9784.12465811    -9927.96270837
  entropy T*S    EENTRO =        -0.00000000
  eigenvalues    EBANDS =     -2613.74941126
  atomic energy  EATOM  =     12703.13999606
  Solvation  Ediel_sol  =         0.00000000
  ---------------------------------------------------
  free energy    TOTEN  =      -258.67160510 eV

  energy without entropy =     -258.67160510  energy(sigma->0) =     -258.67160510


--------------------------------------------------------------------------------------------------------




--------------------------------------- Iteration      1(  14)  ---------------------------------------


    POTLOK:  cpu time      0.0530: real time      0.0540
    SETDIJ:  cpu time      0.4146: real time      0.4162
    EDDIAG:  cpu time      0.3567: real time      0.3590
  RMM-DIIS:  cpu time      1.5519: real time      1.5649
    ORTHCH:  cpu time      0.0654: real time      0.0658
       DOS:  cpu time      0.0005: real time      0.0006
    CHARGE:  cpu time      0.0659: real time      0.0675
    MIXING:  cpu time      0.0011: real time      0.0011
    --------------------------------------------
      LOOP:  cpu time      2.5093: real time      2.5290

 eigenvalue-minimisations  :  3751
 total energy-change (2. order) :-0.1880405E+00  (-0.1866683E+00)
 number of electron     239.9999973 magnetization      -0.8549941
 augmentation part        1.8700873 magnetization      -0.8281001

 Broyden mixing:
  rms(total) = 0.31939E+00    rms(broyden)= 0.31939E+00
  rms(prec ) = 0.35275E+00
  weight for this iteration     100.00

 eigenvalues of (default mixing * dielectric matrix)
  average eigenvalue GAMMA=   1.2655
  2.6089  1.1729  0.6896  0.5905

 Free energy of the ion-electron system (eV)
  ---------------------------------------------------
  alpha Z        PSCENC =       303.32991449
  Ewald energy   TEWEN  =     -8870.29600510
  -Hartree energ DENC   =     -2176.09377830
  -exchange      EXHF   =         0.00000000
  -V(xc)+E(xc)   XCENC  =       538.33587552
  PAW double counting   =      9857.18556905   -10001.79009165
  entropy T*S    EENTRO =        -0.00000000
  eigenvalues    EBANDS =     -2612.67112569
  atomic energy  EATOM  =     12703.13999606
  Solvation  Ediel_sol  =         0.00000000
  ---------------------------------------------------
  free energy    TOTEN  =      -258.85964561 eV

  energy without entropy =     -258.85964561  energy(sigma->0) =     -258.85964561


--------------------------------------------------------------------------------------------------------




--------------------------------------- Iteration      1(  15)  ---------------------------------------


    POTLOK:  cpu time      0.0531: real time      0.0539
    SETDIJ:  cpu time      0.4191: real time      0.4207
    EDDIAG:  cpu time      0.3561: real time      0.3581
  RMM-DIIS:  cpu time      1.2785: real time      1.2889
    ORTHCH:  cpu time      0.0654: real time      0.0657
       DOS:  cpu time      0.0005: real time      0.0005
    CHARGE:  cpu time      0.0655: real time      0.0668
    MIXING:  cpu time      0.0011: real time      0.0012
    --------------------------------------------
      LOOP:  cpu time      2.2394: real time      2.2558

 eigenvalue-minimisations  :  3074
 total energy-change (2. order) : 0.2213996E-01  (-0.3190729E-01)
 number of electron     239.9999973 magnetization      -0.2343316
 augmentation part        1.8225655 magnetization      -0.2076955

 Broyden mixing:
  rms(total) = 0.68053E-01    rms(broyden)= 0.68050E-01
  rms(prec ) = 0.80025E-01
  weight for this iteration     100.00

 eigenvalues of (default mixing * dielectric matrix)
  average eigenvalue GAMMA=   1.2711
  2.5373  1.5836  0.9489  0.6849  0.6009

 Free energy of the ion-electron system (eV)
  ---------------------------------------------------
  alpha Z        PSCENC =       303.32991449
  Ewald energy   TEWEN  =     -8870.29600510
  -Hartree energ DENC   =     -2171.69527043
  -exchange      EXHF   =         0.00000000
  -V(xc)+E(xc)   XCENC  =       537.99176344
  PAW double counting   =      9830.15605323    -9974.57974224
  entropy T*S    EENTRO =        -0.00000000
  eigenvalues    EBANDS =     -2616.88421510
  atomic energy  EATOM  =     12703.13999606
  Solvation  Ediel_sol  =         0.00000000
  ---------------------------------------------------
  free energy    TOTEN  =      -258.83750565 eV

  energy without entropy =     -258.83750565  energy(sigma->0) =     -258.83750565


--------------------------------------------------------------------------------------------------------




--------------------------------------- Iteration      1(  16)  ---------------------------------------


    POTLOK:  cpu time      0.0527: real time      0.0535
    SETDIJ:  cpu time      0.4169: real time      0.4182
    EDDIAG:  cpu time      0.3590: real time      0.3611
  RMM-DIIS:  cpu time      1.2856: real time      1.2961
    ORTHCH:  cpu time      0.0676: real time      0.0682
       DOS:  cpu time      0.0005: real time      0.0005
    CHARGE:  cpu time      0.0662: real time      0.0675
    MIXING:  cpu time      0.0012: real time      0.0012
    --------------------------------------------
      LOOP:  cpu time      2.2496: real time      2.2663

 eigenvalue-minimisations  :  3081
 total energy-change (2. order) :-0.1939484E-01  (-0.1006908E-01)
 number of electron     239.9999973 magnetization      -0.1085078
 augmentation part        1.8004027 magnetization      -0.0939457

 Broyden mixing:
  rms(total) = 0.30558E-01    rms(broyden)= 0.30556E-01
  rms(prec ) = 0.36831E-01
  weight for this iteration     100.00

 eigenvalues of (default mixing * dielectric matrix)
  average eigenvalue GAMMA=   1.2502
  2.4603  1.9402  1.0373  0.6203  0.6987  0.7446

 Free energy of the ion-electron system (eV)
  ---------------------------------------------------
  alpha Z        PSCENC =       303.32991449
  Ewald energy   TEWEN  =     -8870.29600510
  -Hartree energ DENC   =     -2171.14975058
  -exchange      EXHF   =         0.00000000
  -V(xc)+E(xc)   XCENC  =       537.90982869
  PAW double counting   =      9819.12857162    -9963.32875495
  entropy T*S    EENTRO =        -0.00000000
  eigenvalues    EBANDS =     -2617.59070072
  atomic energy  EATOM  =     12703.13999606
  Solvation  Ediel_sol  =         0.00000000
  ---------------------------------------------------
  free energy    TOTEN  =      -258.85690049 eV

  energy without entropy =     -258.85690049  energy(sigma->0) =     -258.85690049


--------------------------------------------------------------------------------------------------------




--------------------------------------- Iteration      1(  17)  ---------------------------------------


    POTLOK:  cpu time      0.0529: real time      0.0537
    SETDIJ:  cpu time      0.4207: real time      0.4220
    EDDIAG:  cpu time      0.3577: real time      0.3599
  RMM-DIIS:  cpu time      1.4376: real time      1.4492
    ORTHCH:  cpu time      0.0667: real time      0.0671
       DOS:  cpu time      0.0005: real time      0.0005
    CHARGE:  cpu time      0.0654: real time      0.0662
    MIXING:  cpu time      0.0012: real time      0.0012
    --------------------------------------------
[...]
 -0.002   0.001   0.000  -0.000   0.004  -0.001  -0.000   0.000  -0.000  -0.000   0.000   0.000   0.000  -0.000
 -0.001   0.001   0.000   0.001  -0.001   0.005   0.000  -0.000   0.000  -0.000  -0.000   0.000  -0.000  -0.000
  0.014  -0.014  -0.000   0.001  -0.003  -0.006   0.000  -0.000  -0.000   0.000   0.000  -0.000  -0.000   0.000
 -0.001   0.001   0.000   0.003   0.003  -0.003   0.000   0.000  -0.000   0.000   0.000   0.000   0.000  -0.000
 -0.001   0.002   0.000   0.005   0.000   0.005   0.000   0.000   0.000  -0.000   0.000   0.000  -0.000  -0.000
 -0.012   0.012   0.000  -0.002   0.006  -0.005  -0.000   0.000  -0.000  -0.000   0.000  -0.000   0.000  -0.000
  0.020  -0.020  -0.000   0.000  -0.004  -0.004  -0.000  -0.000  -0.000   0.000  -0.000  -0.000  -0.000   0.000
 total augmentation occupancy for first ion, spin component:           2
  0.000  -0.000   0.000  -0.000   0.000   0.000   0.000  -0.000  -0.000  -0.000   0.000   0.000   0.000  -0.000
 -0.000  -0.000  -0.000   0.000  -0.000  -0.000  -0.000   0.000   0.000   0.000  -0.000   0.000  -0.000   0.000
  0.000  -0.000  -0.000   0.000  -0.000  -0.000   0.000  -0.000  -0.000   0.000  -0.000   0.000  -0.000   0.000
 -0.000   0.000   0.000  -0.000  -0.000   0.000  -0.000   0.000   0.000  -0.000  -0.000   0.000  -0.000  -0.000
  0.000  -0.000  -0.000  -0.000   0.000  -0.000  -0.000   0.000   0.000   0.000  -0.000  -0.000   0.000   0.000
  0.000  -0.000  -0.000   0.000  -0.000  -0.000   0.000  -0.000  -0.000   0.000   0.000  -0.000  -0.000  -0.000
  0.000  -0.000   0.000  -0.000  -0.000   0.000  -0.000  -0.000   0.000   0.000   0.000   0.000  -0.000   0.000
 -0.000   0.000  -0.000   0.000   0.000  -0.000  -0.000   0.000  -0.000   0.000  -0.000  -0.000   0.000  -0.000
 -0.000   0.000  -0.000   0.000   0.000  -0.000   0.000  -0.000  -0.000   0.000  -0.000  -0.000   0.000  -0.000
 -0.000   0.000   0.000  -0.000   0.000   0.000   0.000   0.000   0.000  -0.000  -0.000   0.000   0.000  -0.000
  0.000  -0.000  -0.000  -0.000  -0.000   0.000   0.000  -0.000  -0.000  -0.000  -0.000   0.000   0.000   0.000
  0.000   0.000   0.000   0.000  -0.000  -0.000   0.000  -0.000  -0.000   0.000   0.000   0.000  -0.000  -0.000
  0.000  -0.000  -0.000  -0.000   0.000  -0.000  -0.000   0.000   0.000   0.000   0.000  -0.000  -0.000   0.000
 -0.000   0.000   0.000  -0.000   0.000  -0.000   0.000  -0.000  -0.000  -0.000   0.000  -0.000   0.000   0.000


------------------------ aborting loop because EDIFF is reached ----------------------------------------


    CHARGE:  cpu time      0.0655: real time      0.0662
    FORLOC:  cpu time      0.0039: real time      0.0039
    FORNL :  cpu time      0.3978: real time      0.4002
    STRESS:  cpu time      1.1985: real time      1.2054
    FORCOR:  cpu time      0.0502: real time      0.0505
    FORHAR:  cpu time      0.0083: real time      0.0083
    MIXING:  cpu time      0.0008: real time      0.0008
    OFIELD:  cpu time      0.0000: real time      0.0000

 ---------------------------------------------------------------------------------------------

         DFTD3 V3.0 Rev 1        
 Edisp (eV)  -13.68963

 E6    (eV) :    -8.4329
 E8    (eV) :    -5.2567
 % E8        : 38.40
    FORVDW:  cpu time      0.2924: real time      0.2942

  FORCE on cell =-STRESS in cart. coord.  units (eV):
  Direction    XX          YY          ZZ          XY          YZ          ZX
  --------------------------------------------------------------------------------------
  Alpha Z   303.32991   303.32991   303.32991
  Ewald   -2916.70255 -2976.80810 -2976.98442   -53.84949   -12.29751   -53.90659
  Hartree   748.44375   712.57820   712.48595   -20.14896     1.97241   -20.11398
  E(xc)    -947.81424  -947.83360  -947.83403    -0.13238    -0.05316    -0.13270
  Local   -1539.67159 -1447.49436 -1447.23801    69.90128     5.82169    69.88621
  n-local  1481.39772  1481.69565  1481.66943    -0.66828     0.02670    -0.69680
  augment  -356.97899  -356.87219  -356.87782    -0.08739    -0.27188    -0.09090
  Kinetic  3244.86135  3244.66036  3244.67226     2.77409     5.89327     2.82729
  Fock        0.00000     0.00000     0.00000     0.00000     0.00000     0.00000
  vdW       -14.41144   -14.48416   -14.48415    -0.00760    -0.00109    -0.00760
  -------------------------------------------------------------------------------------
  Total       2.45392    -1.22829    -1.26088    -2.21873     1.09043    -2.23508
  in kB       4.39324    -2.19899    -2.25734    -3.97217     1.95218    -4.00145
  external pressure =       -0.02 kB  Pullay stress =        0.00 kB


 VOLUME and BASIS-vectors are now :
 -----------------------------------------------------------------------------
  energy-cutoff  :      520.00
  volume of cell :      894.92
      direct lattice vectors                 reciprocal lattice vectors
     9.636711766  0.000000000  0.000000000     0.103769836  0.000000000  0.000000000
     0.000000000  9.636711766  0.000000000     0.000000000  0.103769836  0.000000000
     0.000000000  0.000000000  9.636711766     0.000000000  0.000000000  0.103769836

  length of vectors
     9.636711766  9.636711766  9.636711766     0.103769836  0.103769836  0.103769836


 FORCES acting on ions
    electron-ion (+dipol)            ewald-force                    non-local-force                 convergence-correction
 -----------------------------------------------------------------------------------------------
   -.300E+01 -.613E+01 0.305E+01   0.242E+01 0.502E+01 -.375E+01   0.571E+00 0.111E+01 0.697E+00   -.253E-04 -.356E-04 0.188E-04
   -.300E+01 -.612E+01 0.305E+01   0.242E+01 0.502E+01 -.375E+01   0.571E+00 0.111E+01 0.697E+00   -.254E-04 -.357E-04 0.187E-04
   0.369E+01 -.287E+01 -.307E+01   -.294E+01 0.195E+01 0.426E+01   -.748E+00 0.919E+00 -.119E+01   -.613E-04 0.384E-04 0.145E-04
   0.369E+01 -.287E+01 -.307E+01   -.294E+01 0.195E+01 0.426E+01   -.748E+00 0.919E+00 -.119E+01   -.613E-04 0.383E-04 0.145E-04
   0.154E+02 0.123E+02 -.176E+01   -.139E+02 -.107E+02 0.761E+00   -.143E+01 -.160E+01 0.997E+00   -.534E-04 0.105E-04 0.177E-05
   -.519E+01 -.882E+00 0.310E+01   0.627E+01 0.200E+00 -.245E+01   -.109E+01 0.684E+00 -.650E+00   -.910E-04 -.610E-04 0.662E-04
   -.114E+02 0.658E+01 -.121E+01   0.999E+01 -.537E+01 0.191E+01   0.142E+01 -.121E+01 -.704E+00   -.578E-04 -.249E-04 -.233E-04
   0.178E+01 -.343E+01 -.480E+01   -.297E+01 0.241E+01 0.394E+01   0.119E+01 0.102E+01 0.855E+00   0.123E-04 -.122E-04 0.244E-04
   0.180E+01 -.480E+01 -.339E+01   -.299E+01 0.394E+01 0.237E+01   0.119E+01 0.856E+00 0.102E+01   0.425E-04 -.372E-04 -.224E-06
   -.114E+02 -.121E+01 0.657E+01   0.999E+01 0.191E+01 -.536E+01   0.142E+01 -.703E+00 -.121E+01   0.229E-04 0.747E-04 -.473E-04
   0.154E+02 -.177E+01 0.123E+02   -.139E+02 0.771E+00 -.107E+02   -.143E+01 0.998E+00 -.160E+01   0.348E-04 0.780E-04 0.279E-04
   -.517E+01 0.309E+01 -.903E+00   0.626E+01 -.244E+01 0.219E+00   -.109E+01 -.648E+00 0.685E+00   -.315E-04 -.135E-04 -.586E-04
   0.154E+02 0.123E+02 -.176E+01   -.139E+02 -.107E+02 0.760E+00   -.143E+01 -.160E+01 0.997E+00   -.534E-04 0.107E-04 0.175E-05
   -.519E+01 -.882E+00 0.310E+01   0.627E+01 0.200E+00 -.245E+01   -.109E+01 0.684E+00 -.650E+00   -.911E-04 -.610E-04 0.661E-04
   -.114E+02 0.658E+01 -.121E+01   0.999E+01 -.537E+01 0.191E+01   0.142E+01 -.121E+01 -.704E+00   -.578E-04 -.248E-04 -.232E-04
   0.178E+01 -.343E+01 -.480E+01   -.297E+01 0.241E+01 0.394E+01   0.119E+01 0.102E+01 0.855E+00   0.124E-04 -.123E-04 0.246E-04
   0.180E+01 -.480E+01 -.339E+01   -.299E+01 0.394E+01 0.237E+01   0.119E+01 0.856E+00 0.102E+01   0.425E-04 -.370E-04 -.173E-06
   -.114E+02 -.121E+01 0.657E+01   0.999E+01 0.191E+01 -.536E+01   0.142E+01 -.703E+00 -.121E+01   0.228E-04 0.749E-04 -.473E-04
   0.154E+02 -.177E+01 0.123E+02   -.139E+02 0.772E+00 -.107E+02   -.143E+01 0.998E+00 -.160E+01   0.348E-04 0.782E-04 0.277E-04
   -.517E+01 0.309E+01 -.903E+00   0.626E+01 -.244E+01 0.219E+00   -.109E+01 -.648E+00 0.685E+00   -.316E-04 -.133E-04 -.585E-04
   -.302E+01 0.307E+01 -.609E+01   0.245E+01 -.377E+01 0.499E+01   0.573E+00 0.696E+00 0.111E+01   0.154E-03 0.159E-05 -.854E-04
   -.302E+01 0.307E+01 -.609E+01   0.245E+01 -.377E+01 0.499E+01   0.573E+00 0.696E+00 0.111E+01   0.154E-03 0.149E-05 -.853E-04
   0.367E+01 -.306E+01 -.289E+01   -.292E+01 0.425E+01 0.197E+01   -.748E+00 -.119E+01 0.920E+00   0.118E-03 -.253E-04 0.765E-04
   0.367E+01 -.306E+01 -.289E+01   -.292E+01 0.425E+01 0.197E+01   -.748E+00 -.119E+01 0.920E+00   0.118E-03 -.253E-04 0.764E-04
   -.184E+01 0.160E+01 -.208E+01   0.196E+01 -.137E+01 0.192E+01   -.126E+00 -.226E+00 0.156E+00   0.149E-03 -.107E-03 0.678E-04
   -.184E+01 0.160E+01 -.209E+01   0.196E+01 -.137E+01 0.192E+01   -.126E+00 -.226E+00 0.156E+00   0.149E-03 -.107E-03 0.676E-04
   -.181E+01 -.210E+01 0.161E+01   0.193E+01 0.193E+01 -.138E+01   -.127E+00 0.160E+00 -.228E+00   -.733E-04 0.668E-04 -.843E-04
   -.181E+01 -.210E+01 0.161E+01   0.194E+01 0.193E+01 -.138E+01   -.127E+00 0.160E+00 -.228E+00   -.734E-04 0.664E-04 -.842E-04
   -.484E+02 0.419E+02 -.346E+02   0.519E+02 -.449E+02 0.369E+02   -.345E+01 0.295E+01 -.231E+01   -.116E-03 -.379E-04 -.639E-04
   -.258E+02 -.315E+02 0.582E+02   0.281E+02 0.344E+02 -.625E+02   -.236E+01 -.289E+01 0.427E+01   -.241E-03 0.128E-04 0.221E-04
   0.414E+02 0.471E+02 0.261E+02   -.447E+02 -.506E+02 -.282E+02   0.327E+01 0.344E+01 0.211E+01   -.730E-04 0.439E-04 -.392E-04
   0.378E+02 -.242E+02 -.577E+02   -.406E+02 0.261E+02 0.618E+02   0.284E+01 -.194E+01 -.409E+01   -.117E-03 0.137E-03 -.964E-04
   0.378E+02 -.242E+02 -.577E+02   -.406E+02 0.261E+02 0.618E+02   0.284E+01 -.194E+01 -.409E+01   -.117E-03 0.137E-03 -.963E-04
   0.414E+02 0.471E+02 0.261E+02   -.447E+02 -.506E+02 -.282E+02   0.327E+01 0.344E+01 0.211E+01   -.733E-04 0.439E-04 -.396E-04
   -.258E+02 -.315E+02 0.582E+02   0.281E+02 0.344E+02 -.625E+02   -.236E+01 -.289E+01 0.427E+01   -.241E-03 0.132E-04 0.220E-04
   -.484E+02 0.419E+02 -.346E+02   0.519E+02 -.449E+02 0.369E+02   -.345E+01 0.295E+01 -.231E+01   -.115E-03 -.375E-04 -.636E-04
   -.485E+02 -.346E+02 0.419E+02   0.519E+02 0.369E+02 -.449E+02   -.345E+01 -.231E+01 0.295E+01   0.218E-03 0.688E-04 -.162E-03
   -.258E+02 0.582E+02 -.315E+02   0.281E+02 -.625E+02 0.344E+02   -.236E+01 0.427E+01 -.289E+01   0.153E-04 -.683E-04 0.103E-03
   0.378E+02 -.577E+02 -.242E+02   -.406E+02 0.618E+02 0.262E+02   0.284E+01 -.409E+01 -.195E+01   0.125E-03 -.197E-03 0.689E-04
   0.414E+02 0.261E+02 0.471E+02   -.447E+02 -.282E+02 -.506E+02   0.327E+01 0.211E+01 0.344E+01   0.216E-03 0.590E-04 0.197E-03
   -.485E+02 -.346E+02 0.419E+02   0.519E+02 0.369E+02 -.449E+02   -.345E+01 -.231E+01 0.295E+01   0.218E-03 0.691E-04 -.161E-03
   -.258E+02 0.582E+02 -.315E+02   0.281E+02 -.625E+02 0.344E+02   -.236E+01 0.427E+01 -.289E+01   0.150E-04 -.681E-04 0.103E-03
   0.378E+02 -.577E+02 -.242E+02   -.406E+02 0.618E+02 0.262E+02   0.284E+01 -.409E+01 -.195E+01   0.125E-03 -.196E-03 0.690E-04
   0.414E+02 0.261E+02 0.471E+02   -.447E+02 -.282E+02 -.506E+02   0.327E+01 0.211E+01 0.344E+01   0.216E-03 0.593E-04 0.197E-03
   -.232E+01 -.217E+01 0.157E+02   0.243E+01 0.230E+01 -.160E+02   -.105E+00 -.131E+00 0.320E+00   0.745E-04 -.604E-04 0.131E-03
   -.232E+01 -.217E+01 0.157E+02   0.243E+01 0.230E+01 -.160E+02   -.105E+00 -.131E+00 0.320E+00   0.745E-04 -.602E-04 0.130E-03
   -.232E+01 0.157E+02 -.216E+01   0.242E+01 -.160E+02 0.230E+01   -.105E+00 0.320E+00 -.133E+00   0.518E-04 0.164E-03 -.725E-04
   -.232E+01 0.157E+02 -.216E+01   0.242E+01 -.160E+02 0.230E+01   -.105E+00 0.320E+00 -.133E+00   0.518E-04 0.164E-03 -.724E-04
   -.192E+01 -.395E+02 -.162E+01   0.195E+01 0.401E+02 0.171E+01   -.300E-01 -.598E+00 -.949E-01   -.180E-03 -.206E-03 0.959E-04
   -.192E+01 -.395E+02 -.162E+01   0.195E+01 0.401E+02 0.171E+01   -.300E-01 -.598E+00 -.949E-01   -.180E-03 -.205E-03 0.960E-04
   -.203E+01 -.166E+01 -.396E+02   0.206E+01 0.175E+01 0.402E+02   -.294E-01 -.934E-01 -.600E+00   0.150E-03 0.643E-04 -.224E-03
   -.203E+01 -.166E+01 -.396E+02   0.206E+01 0.175E+01 0.402E+02   -.294E-01 -.934E-01 -.600E+00   0.150E-03 0.647E-04 -.224E-03
 -----------------------------------------------------------------------------------------------
   0.165E+00 -.381E+01 -.378E+01   -.533E-14 0.915E-13 -.185E-12   -.163E+00 0.381E+01 0.375E+01   0.525E-03 -.127E-03 -.826E-04
 
 
 POSITION                                       TOTAL-FORCE (eV/Angst)
 -----------------------------------------------------------------------------------
      9.40842      3.27316      2.72475        -0.000152      0.000734     -0.000192
      9.40840      8.09154      7.54310        -0.000152      0.000734     -0.000192
      0.20489      2.98609      6.83165         0.000003      0.000275      0.000198
      0.20491      7.80449      2.01326         0.000003      0.000275      0.000198
      1.73655      1.61011      9.23188         0.000095     -0.000314     -0.000026
      2.03598      7.74290      0.10799        -0.000157     -0.000269     -0.000106
      7.99219      1.54584      0.37978         0.000167     -0.000008      0.000099
      7.63453      7.63097      9.49933         0.000101     -0.000042      0.000101
      2.81645      9.51505      2.79675         0.000040      0.000140     -0.000048
      3.17310      0.39526      6.34822         0.000105      0.000061     -0.000010
      6.55474      9.24753      6.41294         0.000010     -0.000059     -0.000349
      6.85373      0.12376      2.90888        -0.000190     -0.000039     -0.000265
      1.73656      6.42848      4.41350         0.000095     -0.000314     -0.000026
      2.03597      2.92456      4.92638        -0.000157     -0.000269     -0.000106
      7.99221      6.36421      5.19812         0.000167     -0.000008      0.000099
      7.63454      2.81266      4.68099         0.000101     -0.000042      0.000101
      2.81643      4.69669      7.61509         0.000040      0.000140     -0.000048
      3.17311      5.21361      1.52986         0.000105      0.000061     -0.000010
      6.55477      4.42918      1.59458         0.000010     -0.000059     -0.000349
      6.85373      4.94210      7.72720        -0.000190     -0.000039     -0.000265
      4.59005      2.74051      8.07538        -0.000158     -0.000206      0.000679
      4.59008      7.55886      3.25697        -0.000158     -0.000206      0.000679
      5.02299      2.02923      2.97070         0.000003      0.000168      0.000244
      5.02299      6.84757      7.78905         0.000003      0.000168      0.000244
      4.87173      4.81608      4.80155         0.000269     -0.000609     -0.000007
      4.87174      9.63443      9.61990         0.000269     -0.000609     -0.000007
      0.05304      4.81791      9.61778         0.000038      0.000128     -0.000167
      0.05304      9.63626      4.79941         0.000038      0.000128     -0.000167
      1.38844      8.46717      5.82071        -0.000187      0.000223     -0.000343
      1.04043      1.24393      3.50160        -0.000329     -0.000170     -0.000024
      8.44770      8.32729      3.80773         0.000003      0.000241      0.000245
      8.53204      1.07072      6.11354         0.000336     -0.000170     -0.000018
      8.53206      5.88908      1.29520         0.000336     -0.000170     -0.000018
      8.44767      3.50893      8.62611         0.000003      0.000241      0.000245
      1.04041      6.06228      8.31994        -0.000329     -0.000170     -0.000024
      1.38844      3.64882      1.00235        -0.000187      0.000223     -0.000343
      6.20747      1.01874      8.45124        -0.000056     -0.000223      0.000056
      5.85865      8.33623      1.22774        -0.000293     -0.000075     -0.000122
      3.71396      1.31149      1.05474         0.000384     -0.000153     -0.000277
      3.62958      8.64245      8.31126         0.000077      0.000315      0.000332
      6.20748      5.83708      3.63290        -0.000056     -0.000223      0.000056
      5.85862      3.51785      6.04610        -0.000293     -0.000075     -0.000122
      3.71395      6.12984      5.87309         0.000384     -0.000153     -0.000277
      3.62956      3.82410      3.49290         0.000077      0.000315      0.000332
      7.25571      7.16727      7.26205        -0.000039      0.000011      0.000041
      7.25572      2.34892      2.44371        -0.000039      0.000011      0.000041
      2.43746      7.27769      2.33311        -0.000036      0.000037     -0.000006
      2.43744      2.45932      7.15149        -0.000036      0.000037     -0.000006
      0.00988      9.32714      0.03870        -0.000012     -0.000011     -0.000003
      0.00987      4.50877      4.85708        -0.000012     -0.000011     -0.000003
      4.82710      0.05411      4.49274        -0.000023      0.000016     -0.000031
      4.82710      4.87248      9.31111        -0.000023      0.000016     -0.000031
 -----------------------------------------------------------------------------------
    total drift:                                0.002241     -0.003690     -0.024827


--------------------------------------------------------------------------------------------------------



  FREE ENERGIE OF THE ION-ELECTRON SYSTEM (eV)
  ---------------------------------------------------
  free  energy   TOTEN  =      -272.55395805 eV

  energy  without entropy=     -272.55395805  energy(sigma->0) =     -272.55395805
 
 d Force = 0.5224650E-06[ 0.324E-06, 0.721E-06]  d Energy = 0.7534485E-06-0.231E-06
 d Force = 0.4617273E-02[ 0.462E-02, 0.462E-02]  d Ewald  = 0.4617273E-02 0.218E-10


--------------------------------------------------------------------------------------------------------


    POTLOK:  cpu time      0.4706: real time      0.4721


--------------------------------------------------------------------------------------------------------


 stress matrix after NEB project (eV)
      2.45392     -2.21873     -2.23508
     -2.21873     -1.22829      1.09043
     -2.23508      1.09043     -1.26088
  FORCES: max atom, RMS     0.000774    0.000372
  FORCE total and by dimension    0.002684    0.000734
  Stress total and by dimension    5.597768    2.453924
 Conjugate gradient step on ions:
 trial-energy change:   -0.000001  1 .order   -0.000001   -0.000001   -0.000000
  (g-gl).g = 0.562E-06      g.g   = 0.527E-06  gl.gl    = 0.179E-05
 g(Force)  = 0.527E-06   g(Stress)= 0.000E+00 ortho     =-0.344E-07
 gamma     =   0.31341
 trial     =   1.39464
 opt step  =   2.53601  (harmonic =   2.53601) maximal distance =0.00008283
 next E    =  -272.553958   (d E  =  -0.00000)


--------------------------------------------------------------------------------------------------------


  
 reached required accuracy - stopping structural energy minimisation
     LOOP+:  cpu time      7.3679: real time      7.4440
    4ORBIT:  cpu time      0.0000: real time      0.0000

 total amount of memory used by VASP MPI-rank0    48164. kBytes
=======================================================================

   base      :      30000. kBytes
   nonlr-proj:       6594. kBytes
   fftplans  :       1747. kBytes
   grid      :       5278. kBytes
   one-center:         62. kBytes
   wavefun   :       4483. kBytes
 
  
  
 General timing and accounting informations for this job:
 ========================================================
  
                  Total CPU time used (sec):      119.057
                            User time (sec):      117.781
                          System time (sec):        1.276
                         Elapsed time (sec):      123.632
  
                   Maximum memory used (kb):      384908.
                   Average memory used (kb):          N/A
  
                          Minor page faults:        61318
                          Major page faults:          120
                 Voluntary context switches:         4632
