<?xml version="1.0" encoding="ISO-8859-1"?>
<modeling>
 <generator>
  <i name="program" type="string">vasp </i>
  <i name="version" type="string">6.4.1  </i>
  <i name="subversion" type="string">05Apr23 (build Jun 07 2023 15:38:11) complex                          parallel </i>
  <i name="platform" type="string">LinuxIFC </i>
  <i name="date" type="string">2023 10 20 </i>
  <i name="time" type="string">08:20:17 </i>
 </generator>
 <incar>
  <i type="string" name="PREC">Accu</i>
  <i type="string" name="ALGO">F</i>
  <i type="logical" name="LDIAG"> T  </i>
  <i type="int" name="ISPIN">     2</i>
  <i type="int" name="NELM">   100</i>
  <i type="int" name="NELMDL">   -10</i>
  <i type="int" name="IBRION">     2</i>
  <i name="EDIFF">      0.00000100</i>
  <i name="EDIFFG">     -0.00100000</i>
  <i type="int" name="NSW">  1000</i>
  <i type="int" name="ISIF">     2</i>
  <i name="ENCUT">    520.00000000</i>
  <i name="POTIM">      0.20000000</i>
  <i type="string" name="LREAL">Auto</i>
  <i type="logical" name="LPLANE"> T  </i>
  <i type="int" name="ISMEAR">     0</i>
  <i name="SIGMA">      0.03000000</i>
  <i type="int" name="LMAXMIX">     4</i>
  <i type="logical" name="LWAVE"> F  </i>
  <i type="logical" name="LCHARG"> F  </i>
  <i type="logical" name="LASPH"> T  </i>
  <i type="string" name="GGA">PE</i>
  <i type="int" name="IVDW">    12</i>
 </incar>
 <primitive_cell>
  <structure name="primitive_cell" >
   <crystal>
    <varray name="basis" >
     <v>       0.00000000       4.81835440      -4.81835088 </v>
     <v>       0.00000000       4.81835440       4.81836088 </v>
     <v>       9.63671177       0.00000000       0.00000000 </v>
    </varray>
    <i name="volume">    447.46232920 </i>
    <varray name="rec_basis" >
     <v>       0.00000000       0.10376998      -0.10376984 </v>
     <v>       0.00000000       0.10376976       0.10376984 </v>
     <v>       0.10376984       0.00000000       0.00000000 </v>
    </varray>
   </crystal>
   <varray name="positions" >
    <v>       0.05689039       0.62239311       0.97631274 </v>
    <v>       0.60094601       0.01877716       0.02126173 </v>
    <v>       0.20909701       0.12507862       0.18019884 </v>
    <v>       0.79227543       0.81469819       0.21127524 </v>
    <v>       0.12100340       0.19982023       0.82934411 </v>
    <v>       0.80612746       0.77761301       0.79223171 </v>
    <v>       0.69715491       0.27759107       0.29226147 </v>
    <v>       0.38226169       0.69976921       0.32927031 </v>
    <v>       0.29414024       0.62509288       0.68018643 </v>
    <v>       0.71098458       0.31470328       0.71121380 </v>
    <v>       0.44642518       0.12234768       0.47631418 </v>
    <v>       0.90230560       0.51883485       0.52123494 </v>
    <v>       0.00150960       0.99802278       0.50554292 </v>
    <v>       0.50191845       0.49799025       0.00550319 </v>
    <v>       0.27462988       0.48265846       0.14406752 </v>
    <v>       0.76570001       0.49244900       0.10796654 </v>
    <v>       0.46899402       0.25925862       0.87662467 </v>
    <v>       0.47671336       0.74549483       0.88537170 </v>
    <v>       0.22872434       0.98270411       0.64413781 </v>
    <v>       0.73766415       0.99245588       0.60794722 </v>
    <v>       0.02663711       0.24552582       0.38539727 </v>
    <v>       0.03436478       0.75929413       0.37664883 </v>
    <v>       0.99016316       0.49733107       0.75292360 </v>
    <v>       0.51309934       0.99731074       0.25293398 </v>
    <v>       0.96385264       0.97188562       0.00102256 </v>
    <v>       0.53941089       0.47182316       0.50090731 </v>
   </varray>
  </structure>
  <varray name="primitive_index" >
   <v type="int" >        1 </v>
   <v type="int" >        3 </v>
   <v type="int" >        5 </v>
   <v type="int" >       14 </v>
   <v type="int" >        7 </v>
   <v type="int" >       16 </v>
   <v type="int" >        9 </v>
   <v type="int" >       18 </v>
   <v type="int" >       19 </v>
   <v type="int" >       12 </v>
   <v type="int" >       22 </v>
   <v type="int" >       23 </v>
   <v type="int" >       25 </v>
   <v type="int" >       27 </v>
   <v type="int" >       36 </v>
   <v type="int" >       30 </v>
   <v type="int" >       34 </v>
   <v type="int" >       33 </v>
   <v type="int" >       41 </v>
   <v type="int" >       42 </v>
   <v type="int" >       39 </v>
   <v type="int" >       44 </v>
   <v type="int" >       46 </v>
   <v type="int" >       47 </v>
   <v type="int" >       50 </v>
   <v type="int" >       52 </v>
  </varray>
 </primitive_cell>
 <kpoints>
  <generation param="Monkhorst-Pack">
   <v type="int" name="divisions">       2        2        2 </v>
   <v name="usershift">      0.00000000       0.00000000       0.00000000 </v>
   <v name="genvec1">      0.50000000       0.00000000       0.00000000 </v>
   <v name="genvec2">      0.00000000       0.50000000       0.00000000 </v>
   <v name="genvec3">      0.00000000       0.00000000       0.50000000 </v>
   <v name="shift">      0.50000000       0.50000000       0.50000000 </v>
  </generation>
  <varray name="kpointlist" >
   <v>       0.25000000       0.25000000       0.25000000 </v>
   <v>      -0.25000000       0.25000000       0.25000000 </v>
   <v>      -0.25000000      -0.25000000       0.25000000 </v>
   <v>       0.25000000      -0.25000000       0.25000000 </v>
  </varray>
  <varray name="weights" >
   <v>       0.25000000 </v>
   <v>       0.25000000 </v>
   <v>       0.25000000 </v>
   <v>       0.25000000 </v>
  </varray>
 </kpoints>
 <parameters>
  <separator name="general" >
   <i type="string" name="SYSTEM">unknown system</i>
   <i type="logical" name="LCOMPAT"> F  </i>
  </separator>
  <separator name="electronic" >
   <i type="string" name="PREC">accu</i>
   <i name="ENMAX">    520.00000000</i>
   <i name="ENAUG">   1041.69900000</i>
   <i name="EDIFF">      0.00000100</i>
   <i type="int" name="IALGO">    68</i>
   <i type="int" name="IWAVPR">    11</i>
   <i type="int" name="NBANDS">   176</i>
   <i type="int" name="NBANDSLOW">    -1</i>
   <i type="int" name="NBANDSHIGH">    -1</i>
   <i name="NELECT">    240.00000000</i>
   <i type="int" name="TURBO">     0</i>
   <i type="int" name="IRESTART">     0</i>
   <i type="int" name="NREBOOT">     0</i>
   <i type="int" name="NMIN">     0</i>
   <i name="EREF">      0.00000000</i>
   <separator name="electronic smearing" >
    <i type="int" name="ISMEAR">     0</i>
    <i name="SIGMA">      0.03000000</i>
    <i name="KSPACING">      0.50000000</i>
    <i type="logical" name="KGAMMA"> T  </i>
    <i type="logical" name="KBLOWUP"> T  </i>
   </separator>
   <separator name="electronic projectors" >
    <i type="logical" name="LREAL"> T  </i>
    <v name="ROPT">     -0.00025000     -0.00025000     -0.00025000     -0.00025000</v>
    <i type="int" name="LMAXPAW">  -100</i>
    <i type="int" name="LMAXMIX">     4</i>
    <i type="logical" name="NLSPLINE"> F  </i>
   </separator>
   <separator name="electronic startup" >
    <i type="int" name="ISTART">     0</i>
    <i type="int" name="ICHARG">     2</i>
    <i type="int" name="INIWAV">     1</i>
   </separator>
   <separator name="electronic spin" >
    <i type="int" name="ISPIN">     2</i>
    <i type="logical" name="LNONCOLLINEAR"> F  </i>
    <v name="MAGMOM">      1.00000000      1.00000000      1.00000000      1.00000000      1.00000000      1.00000000      1.00000000      1.00000000      1.00000000      1.00000000      1.00000000      1.00000000      1.00000000      1.00000000      1.00000000      1.00000000      1.00000000      1.00000000      1.00000000      1.00000000
      1.00000000      1.00000000      1.00000000      1.00000000      1.00000000      1.00000000      1.00000000      1.00000000      1.00000000      1.00000000      1.00000000      1.00000000      1.00000000      1.00000000      1.00000000      1.00000000      1.00000000      1.00000000      1.00000000      1.00000000
      1.00000000      1.00000000      1.00000000      1.00000000      1.00000000      1.00000000      1.00000000      1.00000000      1.00000000      1.00000000      1.00000000      1.00000000</v>
    <i name="NUPDOWN">     -1.00000000</i>
    <i type="logical" name="LSORBIT"> F  </i>
    <v name="SAXIS">      0.00000000      0.00000000      1.00000000</v>
    <i type="logical" name="LSPIRAL"> F  </i>
    <v name="QSPIRAL">      0.00000000      0.00000000      0.00000000</v>
    <i type="logical" name="LZEROZ"> F  </i>
   </separator>
   <separator name="electronic exchange-correlation" >
    <i type="logical" name="LASPH"> T  </i>
    <i type="logical" name="LMETAGGA"> F  </i>
   </separator>
   <separator name="electronic convergence" >
    <i type="int" name="NELM">   100</i>
    <i type="int" name="NELMDL">   -10</i>
    <i type="int" name="NELMIN">     2</i>
    <i name="ENINI">    520.00000000</i>
    <separator name="electronic convergence detail" >
     <i type="logical" name="LDIAG"> T  </i>
     <i type="logical" name="LSUBROT"> F  </i>
     <i name="WEIMIN">      0.00100000</i>
     <i name="EBREAK">      0.00000000</i>
     <i name="DEPER">      0.30000000</i>
     <i type="int" name="NRMM">     4</i>
     <i name="TIME">      0.40000000</i>
    </separator>
   </separator>
   <separator name="electronic mixer" >
    <i name="AMIX">      0.40000000</i>
    <i name="BMIX">      1.00000000</i>
    <i name="AMIN">      0.10000000</i>
    <i name="AMIX_MAG">      1.60000000</i>
    <i name="BMIX_MAG">      1.00000000</i>
    <separator name="electronic mixer details" >
     <i type="int" name="IMIX">     4</i>
     <i type="logical" name="MIXFIRST"> F  </i>
     <i type="int" name="MAXMIX">   -45</i>
     <i name="WC">    100.00000000</i>
     <i type="int" name="INIMIX">     1</i>
     <i type="int" name="MIXPRE">     1</i>
     <i type="int" name="MREMOVE">     5</i>
    </separator>
   </separator>
   <separator name="electronic dipolcorrection" >
    <i type="logical" name="LDIPOL"> F  </i>
    <i type="logical" name="LMONO"> F  </i>
    <i type="int" name="IDIPOL">     0</i>
    <i name="EPSILON">      1.00000000</i>
    <v name="DIPOL">   -100.00000000   -100.00000000   -100.00000000</v>
    <i name="EFIELD">      0.00000000</i>
   </separator>
  </separator>
  <separator name="grids" >
   <i type="int" name="NGX">    72</i>
   <i type="int" name="NGY">    72</i>
   <i type="int" name="NGZ">    72</i>
   <i type="int" name="NGXF">   144</i>
   <i type="int" name="NGYF">   144</i>
   <i type="int" name="NGZF">   144</i>
   <i type="logical" name="ADDGRID"> F  </i>
  </separator>
  <separator name="ionic" >
   <i type="int" name="NSW">  1000</i>
   <i type="int" name="IBRION">     2</i>
   <i type="int" name="MDALGO">     0</i>
   <i type="int" name="ISIF">     2</i>
   <i name="PSTRESS">      0.00000000</i>
   <i name="EDIFFG">     -0.00100000</i>
   <i type="int" name="NFREE">     1</i>
   <i name="POTIM">      0.20000000</i>
   <i name="SMASS">     -3.00000000</i>
   <i name="SCALEE">      1.00000000</i>
  </separator>
  <separator name="ionic md" >
   <i name="TEBEG">      0.00010000</i>
   <i name="TEEND">      0.00010000</i>
   <i type="int" name="NBLOCK">     1</i>
   <i type="int" name="KBLOCK">  1000</i>
   <i type="int" name="NPACO">   256</i>
   <i name="APACO">     10.00000000</i>
  </separator>
  <separator name="symmetry" >
   <i type="int" name="ISYM">     2</i>
   <i name="SYMPREC">      0.00001000</i>
  </separator>
  <separator name="dos" >
   <i type="int" name="LORBIT">     0</i>
   <v name="RWIGS">     -1.00000000     -1.00000000     -1.00000000     -1.00000000</v>
   <i type="int" name="NEDOS">   301</i>
   <i name="EMIN">     10.00000000</i>
   <i name="EMAX">    -10.00000000</i>
   <i name="EFERMI">      0.00000000</i>
  </separator>
  <separator name="writing" >
   <i type="int" name="NWRITE">     2</i>
   <i type="logical" name="LWAVE"> F  </i>
   <i type="logical" name="LDOWNSAMPLE"> F  </i>
   <i type="logical" name="LCHARG"> F  </i>
   <i type="logical" name="LPARD"> F  </i>
   <i type="logical" name="LVTOT"> F  </i>
   <i type="logical" name="LVHAR"> F  </i>
   <i type="logical" name="LELF"> F  </i>
   <i type="logical" name="LOPTICS"> F  </i>
   <v name="STM">      0.00000000      0.00000000      0.00000000      0.00000000      0.00000000      0.00000000      0.00000000</v>
  </separator>
  <separator name="performance" >
   <i type="int" name="NPAR">     4</i>
   <i type="int" name="NSIM">     4</i>
   <i type="int" name="NBLK">    -1</i>
   <i type="logical" name="LPLANE"> T  </i>
   <i type="logical" name="LSCALAPACK"> T  </i>
   <i type="logical" name="LSCAAWARE"> F  </i>
   <i type="logical" name="LSCALU"> F  </i>
   <i type="logical" name="LASYNC"> F  </i>
   <i type="logical" name="LORBITALREAL"> F  </i>
  </separator>
  <separator name="miscellaneous" >
   <i type="int" name="IDIOT">     3</i>
   <i type="int" name="PHON_NSTRUCT">    -1</i>
   <i type="logical" name="LMUSIC"> F  </i>
   <v name="POMASS">      7.01000000     30.97400000     32.06600000     35.45300000</v>
   <v name="DARWINR">      0.00000000      0.00000000      0.00000000      0.00000000</v>
   <v name="DARWINV">      1.00000000      1.00000000      1.00000000      1.00000000</v>
   <i type="logical" name="LCORR"> T  </i>
  </separator>
  <i type="logical" name="GGA_COMPAT"> T  </i>
  <i type="logical" name="LBERRY"> F  </i>
  <i type="int" name="ICORELEVEL">     0</i>
  <i type="logical" name="LDAU"> F  </i>
  <i type="int" name="I_CONSTRAINED_M">     0</i>
  <separator name="electronic exchange-correlation" >
   <i type="string" name="GGA">PE</i>
   <i type="int" name="VOSKOWN">     0</i>
   <i type="logical" name="LHFCALC"> F  </i>
   <i type="string" name="PRECFOCK"></i>
   <i type="logical" name="LSYMGRAD"> F  </i>
   <i type="logical" name="LHFONE"> F  </i>
   <i type="logical" name="LRHFCALC"> F  </i>
   <i type="logical" name="LTHOMAS"> F  </i>
   <i type="logical" name="LMODELHF"> F  </i>
   <i type="logical" name="LFOCKACE"> F  </i>
   <i name="ENCUT4O">     -1.00000000</i>
   <i type="int" name="EXXOEP">     0</i>
   <i type="int" name="FOURORBIT">     0</i>
   <i name="AEXX">      0.00000000</i>
   <i name="HFALPHA">      0.00000000</i>
   <i name="MCALPHA">      0.00000000</i>
   <i name="ALDAX">      1.00000000</i>
   <i name="AGGAX">      1.00000000</i>
   <i name="ALDAC">      1.00000000</i>
   <i name="AGGAC">      1.00000000</i>
   <i type="int" name="NKREDX">     1</i>
   <i type="int" name="NKREDY">     1</i>
   <i type="int" name="NKREDZ">     1</i>
   <i type="logical" name="SHIFTRED"> F  </i>
   <i type="logical" name="ODDONLY"> F  </i>
   <i type="logical" name="EVENONLY"> F  </i>
   <i type="int" name="LMAXFOCK">     0</i>
   <i type="int" name="NMAXFOCKAE">     0</i>
   <i type="logical" name="LFOCKAEDFT"> F  </i>
   <i name="HFSCREEN">      0.00000000</i>
   <i name="HFSCREENC">      0.00000000</i>
   <i type="int" name="NBANDSGWLOW">     0</i>
  </separator>
  <separator name="vdW DFT" >
   <i type="logical" name="LUSE_VDW"> F  </i>
   <i type="int" name="IVDW_NL">     1</i>
   <i type="logical" name="LSPIN_VDW"> F  </i>
   <i name="Zab_VDW">     -0.84910000</i>
   <i name="PARAM1">      0.12340000</i>
   <i name="PARAM2">      1.00000000</i>
   <i name="PARAM3">      0.00000000</i>
  </separator>
  <separator name="model GW" >
   <i type="int" name="MODEL_GW">     0</i>
   <i name="MODEL_EPS0">     10.32605693</i>
   <i name="MODEL_ALPHA">      1.00000000</i>
  </separator>
  <separator name="linear response parameters" >
   <i type="logical" name="LEPSILON"> F  </i>
   <i type="logical" name="LRPA"> F  </i>
   <i type="logical" name="LNABLA"> F  </i>
   <i type="logical" name="LVEL"> F  </i>
   <i name="CSHIFT">      0.10000000</i>
   <i name="OMEGAMAX">     -1.00000000</i>
   <i name="DEG_THRESHOLD">      0.00200000</i>
   <i name="RTIME">     -0.10000000</i>
   <i name="WPLASMAI">      0.00000000</i>
   <v name="DFIELD">      0.00000000      0.00000000      0.00000000</v>
   <v name="WPLASMA">      0.00000000      0.00000000      0.00000000      0.00000000      0.00000000      0.00000000      0.00000000      0.00000000      0.00000000</v>
  </separator>
  <separator name="orbital magnetization" >
   <i type="logical" name="NUCIND"> F  </i>
   <v name="MAGPOS">      0.00000000      0.00000000      0.00000000</v>
   <i type="logical" name="LNICSALL"> T  </i>
   <i type="logical" name="ORBITALMAG"> F  </i>
   <i type="logical" name="LMAGBLOCH"> F  </i>
   <i type="logical" name="LCHIMAG"> F  </i>
   <i type="logical" name="LGAUGE"> T  </i>
   <i type="int" name="MAGATOM">     0</i>
   <v name="MAGDIPOL">      0.00000000      0.00000000      0.00000000</v>
   <v name="AVECCONST">      0.00000000      0.00000000      0.00000000</v>
  </separator>
  <separator name="response functions" >
   <i type="logical" name="LALL_IN_ONE"> F  </i>
   <i type="int" name="IALL_IN_ONE">    -1</i>
   <i type="int" name="NBANDS_WAVE">    -1</i>
   <i type="logical" name="LFINITE_TEMPERATURE"> F  </i>
   <i type="logical" name="LADDER"> F  </i>
   <i type="logical" name="LRPAFORCE"> F  </i>
   <i type="logical" name="LFXC"> F  </i>
   <i type="logical" name="LHARTREE"> T  </i>
   <i type="int" name="IBSE">     0</i>
   <v type="int" name="KPOINT">    -1     0     0     0</v>
   <i type="logical" name="LTCTC"> F  </i>
   <i type="logical" name="LTCTE"> F  </i>
   <i type="logical" name="LTETE"> F  </i>
   <i type="logical" name="LTRIPLET"> F  </i>
   <i type="logical" name="LFXCEPS"> F  </i>
   <i type="logical" name="LFXHEG"> F  </i>
   <i type="int" name="NATURALO">     2</i>
   <i type="logical" name="LHOLEGF"> F  </i>
   <i type="logical" name="L2ORDER"> F  </i>
   <i type="logical" name="LDMP1"> F  </i>
   <i type="logical" name="LMP2LT"> F  </i>
   <i type="logical" name="LSMP2LT"> F  </i>
   <i type="logical" name="LGWLF"> F  </i>
   <i name="ENCUTGW">     -1.60000002</i>
   <i name="ENCUTGWSOFT">     -1.60000002</i>
   <i name="ENCUTLF">     -1.00000000</i>
   <i type="logical" name="LESF_SPLINES"> F  </i>
   <i type="int" name="LMAXMP2">    -1</i>
   <i name="SCISSOR">      0.00000000</i>
   <i type="int" name="NOMEGA">     0</i>
   <i type="int" name="NOMEGAR">     0</i>
   <i type="int" name="NBANDSGW">    -1</i>
   <i type="int" name="NBANDSO">    -1</i>
   <i type="int" name="NBANDSV">    -1</i>
   <i type="int" name="NELMGW">     1</i>
   <i type="int" name="NELMHF">     1</i>
   <i type="int" name="DIM">     3</i>
   <i type="int" name="IESPILON">     4</i>
   <i type="int" name="ANTIRES">     0</i>
   <i name="OMEGAMAX">    -30.00000000</i>
   <i name="OMEGAMIN">    -30.00000000</i>
   <i name="OMEGATL">   -200.00000000</i>
   <i type="int" name="OMEGAGRID">     0</i>
   <i name="CSHIFT">     -0.10000000</i>
   <i type="logical" name="LSELFENERGY"> F  </i>
   <i type="logical" name="LSPECTRAL"> F  </i>
   <i type="logical" name="LSPECTRALGW"> F  </i>
   <i type="logical" name="LSINGLES"> F  </i>
   <i type="logical" name="LFERMIGW"> F  </i>
   <i type="logical" name="ODDONLYGW"> F  </i>
   <i type="logical" name="EVENONLYGW"> F  </i>
   <i type="int" name="NKREDLFX">     1</i>
   <i type="int" name="NKREDLFY">     1</i>
   <i type="int" name="NKREDLFZ">     1</i>
   <i type="int" name="MAXMEM">  2800</i>
   <i type="int" name="TELESCOPE">     0</i>
   <i type="int" name="NTAUPAR">    -1</i>
   <i type="int" name="NOMEGAPAR">    -1</i>
   <i name="DAMP_NEWTON">      0.80000001</i>
   <i name="LAMBDA">      1.00000000</i>
  </separator>
  <separator name="External order field" >
   <i name="OFIELD_KAPPA">      0.00000000</i>
   <v name="OFIELD_K">      0.00000000      0.00000000      0.00000000</v>
   <i name="OFIELD_Q6_NEAR">      0.00000000</i>
   <i name="OFIELD_Q6_FAR">      0.00000000</i>
   <i name="OFIELD_A">      0.00000000</i>
  </separator>
  <separator name="optional k-points parameters" >
   <i type="int" name="KPOINTS_OPT_MODE">     1</i>
   <i type="logical" name="LKPOINTS_OPT"> F  </i>
  </separator>
 </parameters>
 <atominfo>
  <atoms>      52 </atoms>
  <types>       4 </types>
  <array name="atoms" >
   <dimension dim="1">ion</dimension>
   <field type="string">element</field>
   <field type="int">atomtype</field>
   <set>
    <rc><c>Li</c><c>   1</c></rc>
    <rc><c>Li</c><c>   1</c></rc>
    <rc><c>Li</c><c>   1</c></rc>
    <rc><c>Li</c><c>   1</c></rc>
    <rc><c>Li</c><c>   1</c></rc>
    <rc><c>Li</c><c>   1</c></rc>
    <rc><c>Li</c><c>   1</c></rc>
    <rc><c>Li</c><c>   1</c></rc>
    <rc><c>Li</c><c>   1</c></rc>
    <rc><c>Li</c><c>   1</c></rc>
    <rc><c>Li</c><c>   1</c></rc>
    <rc><c>Li</c><c>   1</c></rc>
    <rc><c>Li</c><c>   1</c></rc>
    <rc><c>Li</c><c>   1</c></rc>
    <rc><c>Li</c><c>   1</c></rc>
    <rc><c>Li</c><c>   1</c></rc>
    <rc><c>Li</c><c>   1</c></rc>
    <rc><c>Li</c><c>   1</c></rc>
    <rc><c>Li</c><c>   1</c></rc>
    <rc><c>Li</c><c>   1</c></rc>
    <rc><c>Li</c><c>   1</c></rc>
    <rc><c>Li</c><c>   1</c></rc>
    <rc><c>Li</c><c>   1</c></rc>
    <rc><c>Li</c><c>   1</c></rc>
    <rc><c>P </c><c>   2</c></rc>
    <rc><c>P </c><c>   2</c></rc>
    <rc><c>P </c><c>   2</c></rc>
    <rc><c>P </c><c>   2</c></rc>
    <rc><c>S </c><c>   3</c></rc>
    <rc><c>S </c><c>   3</c></rc>
    <rc><c>S </c><c>   3</c></rc>
    <rc><c>S </c><c>   3</c></rc>
    <rc><c>S </c><c>   3</c></rc>
    <rc><c>S </c><c>   3</c></rc>
    <rc><c>S </c><c>   3</c></rc>
    <rc><c>S </c><c>   3</c></rc>
    <rc><c>S </c><c>   3</c></rc>
    <rc><c>S </c><c>   3</c></rc>
    <rc><c>S </c><c>   3</c></rc>
    <rc><c>S </c><c>   3</c></rc>
    <rc><c>S </c><c>   3</c></rc>
    <rc><c>S </c><c>   3</c></rc>
    <rc><c>S </c><c>   3</c></rc>
    <rc><c>S </c><c>   3</c></rc>
    <rc><c>S </c><c>   3</c></rc>
    <rc><c>S </c><c>   3</c></rc>
    <rc><c>S </c><c>   3</c></rc>
    <rc><c>S </c><c>   3</c></rc>
    <rc><c>Cl</c><c>   4</c></rc>
    <rc><c>Cl</c><c>   4</c></rc>
    <rc><c>Cl</c><c>   4</c></rc>
    <rc><c>Cl</c><c>   4</c></rc>
   </set>
  </array>
  <array name="atomtypes" >
   <dimension dim="1">type</dimension>
   <field type="int">atomspertype</field>
   <field type="string">element</field>
   <field>mass</field>
   <field>valence</field>
   <field type="string">pseudopotential</field>
   <set>
    <rc><c>  24</c><c>Li</c><c>      7.01000000</c><c>      3.00000000</c><c>  PAW_PBE Li_sv_GW 25Mar2010            </c></rc>
    <rc><c>   4</c><c>P </c><c>     30.97400000</c><c>      5.00000000</c><c>  PAW_PBE P_GW 19Mar2012                </c></rc>
    <rc><c>  20</c><c>S </c><c>     32.06600000</c><c>      6.00000000</c><c>  PAW_PBE S_GW 19Mar2012                </c></rc>
    <rc><c>   4</c><c>Cl</c><c>     35.45300000</c><c>      7.00000000</c><c>  PAW_PBE Cl_GW 19Mar2012               </c></rc>
   </set>
  </array>
 </atominfo>
 <structure name="initialpos" >
  <crystal>
   <varray name="basis" >
    <v>       9.63671177       0.00000000       0.00000000 </v>
    <v>       0.00000000       9.63671177       0.00000000 </v>
    <v>       0.00000000       0.00000000       9.63671177 </v>
   </varray>
   <i name="volume">    894.92493391 </i>
   <varray name="rec_basis" >
    <v>       0.10376984       0.00000000       0.00000000 </v>
    <v>       0.00000000       0.10376984       0.00000000 </v>
    <v>       0.00000000       0.00000000       0.10376984 </v>
   </varray>
  </crystal>
  <varray name="positions" >
   <v>       0.97631274       0.33964165       0.28275171 </v>
   <v>       0.97631088       0.83964421       0.78275018 </v>
   <v>       0.02126173       0.30986149       0.70891590 </v>
   <v>       0.02126399       0.80986581       0.20891198 </v>
   <v>       0.18019884       0.16708776       0.95799098 </v>
   <v>       0.21127662       0.80348512       0.01120897 </v>
   <v>       0.82934411       0.16041177       0.03940858 </v>
   <v>       0.79223164       0.79186565       0.98574178 </v>
   <v>       0.29226147       0.98737269       0.29021910 </v>
   <v>       0.32926953       0.04101539       0.65875453 </v>
   <v>       0.68018339       0.95961549       0.66547692 </v>
   <v>       0.71121380       0.01284392       0.30185936 </v>
   <v>       0.18020029       0.66708898       0.45798816 </v>
   <v>       0.21127524       0.30348672       0.51121170 </v>
   <v>       0.82934636       0.66041326       0.53940685 </v>
   <v>       0.79223171       0.29187014       0.48574308 </v>
   <v>       0.29225906       0.48737218       0.79021830 </v>
   <v>       0.32927031       0.54101529       0.15875432 </v>
   <v>       0.68018643       0.45961642       0.16547680 </v>
   <v>       0.71121426       0.51284239       0.80185552 </v>
   <v>       0.47631123       0.28438664       0.83796783 </v>
   <v>       0.47631418       0.78438619       0.33796207 </v>
   <v>       0.52123494       0.21057016       0.30826484 </v>
   <v>       0.52123477       0.71056872       0.80826396 </v>
   <v>       0.50554292       0.49976603       0.49825711 </v>
   <v>       0.50554365       0.99976619       0.99825659 </v>
   <v>       0.00550319       0.49995420       0.99803642 </v>
   <v>       0.00550288       0.99995381       0.49803475 </v>
   <v>       0.14406789       0.87864293       0.60401473 </v>
   <v>       0.10796654       0.12907446       0.36337463 </v>
   <v>       0.87662722       0.86412719       0.39513024 </v>
   <v>       0.88536915       0.11110282       0.63438993 </v>
   <v>       0.88537170       0.61110391       0.13439137 </v>
   <v>       0.87662467       0.36412621       0.89513268 </v>
   <v>       0.10796478       0.62907446       0.86337333 </v>
   <v>       0.14406752       0.37864405       0.10401468 </v>
   <v>       0.64413740       0.10571508       0.87698945 </v>
   <v>       0.60795086       0.86506209       0.12739579 </v>
   <v>       0.38539727       0.13608143       0.10944450 </v>
   <v>       0.37665074       0.89682908       0.86246490 </v>
   <v>       0.64413781       0.60571404       0.37699051 </v>
   <v>       0.60794722       0.36505990       0.62739624 </v>
   <v>       0.38539623       0.63608087       0.60944457 </v>
   <v>       0.37664883       0.39682933       0.36246509 </v>
   <v>       0.75292312       0.74374622       0.75358260 </v>
   <v>       0.75292360       0.24374704       0.25358421 </v>
   <v>       0.25293398       0.75520481       0.24210648 </v>
   <v>       0.25293217       0.25520359       0.74210894 </v>
   <v>       0.00102355       0.96787086       0.00401413 </v>
   <v>       0.00102256       0.46786899       0.50401698 </v>
   <v>       0.50090743       0.00561519       0.46620596 </v>
   <v>       0.50090731       0.50561687       0.96620666 </v>
  </varray>
 </structure>
 <calculation>
  <scstep>
   <time name="dav">    2.31    2.56</time>
   <time name="total">    2.79    3.16</time>
   <energy>
    <i name="alphaZ">    303.32991449 </i>
    <i name="ewald">  -8870.29600510 </i>
    <i name="hartreedc">  -2078.58342067 </i>
    <i name="XCdc">    534.55989968 </i>
    <i name="pawpsdc">   8141.38806575 </i>
    <i name="pawaedc">  -8271.61346273 </i>
    <i name="eentropy">     -0.00724977 </i>
    <i name="bandstr">   -868.51799079 </i>
    <i name="atom">  12703.13999606 </i>
    <i name="e_fr_energy">   1593.39974691 </i>
    <i name="e_wo_entrp">   1593.40699669 </i>
    <i name="e_0_energy">   1593.40337180 </i>
   </energy>
  </scstep>
  <scstep>
   <time name="dav">    2.71    2.75</time>
   <time name="total">    2.71    2.75</time>
   <energy>
    <i name="e_fr_energy">    -56.34424536 </i>
    <i name="e_wo_entrp">    -56.34424536 </i>
    <i name="e_0_energy">    -56.34424536 </i>
   </energy>
  </scstep>
  <scstep>
   <time name="dav">    2.65    2.72</time>
   <time name="total">    2.65    2.72</time>
   <energy>
    <i name="e_fr_energy">   -228.51634532 </i>
    <i name="e_wo_entrp">   -228.51634532 </i>
    <i name="e_0_energy">   -228.51634532 </i>
   </energy>
  </scstep>
  <scstep>
   <time name="dav">    3.22    3.26</time>
   <time name="total">    3.22    3.26</time>
   <energy>
    <i name="e_fr_energy">   -241.71199169 </i>
    <i name="e_wo_entrp">   -241.71199169 </i>
    <i name="e_0_energy">   -241.71199169 </i>
   </energy>
  </scstep>
  <scstep>
   <time name="dav">    3.03    3.05</time>
   <time name="total">    3.03    3.05</time>
   <energy>
    <i name="e_fr_energy">   -241.93046273 </i>
    <i name="e_wo_entrp">   -241.93046273 </i>
    <i name="e_0_energy">   -241.93046273 </i>
   </energy>
  </scstep>
  <scstep>
   <time name="dav">    3.16    3.18</time>
   <time name="total">    3.16    3.18</time>
   <energy>
    <i name="e_fr_energy">   -241.94189366 </i>
    <i name="e_wo_entrp">   -241.94189366 </i>
    <i name="e_0_energy">   -241.94189366 </i>
   </energy>
  </scstep>
  <scstep>
   <time name="dav">    3.11    3.15</time>
   <time name="total">    3.11    3.15</time>
   <energy>
    <i name="e_fr_energy">   -241.94225738 </i>
    <i name="e_wo_entrp">   -241.94225738 </i>
    <i name="e_0_energy">   -241.94225738 </i>
   </energy>
  </scstep>
  <scstep>
   <time name="dav">    3.11    3.14</time>
   <time name="total">    3.11    3.14</time>
   <energy>
    <i name="e_fr_energy">   -241.94227868 </i>
    <i name="e_wo_entrp">   -241.94227868 </i>
    <i name="e_0_energy">   -241.94227868 </i>
   </energy>
  </scstep>
  <scstep>
   <time name="dav">    3.03    3.06</time>
   <time name="total">    3.03    3.06</time>
   <energy>
    <i name="e_fr_energy">   -241.94228006 </i>
    <i name="e_wo_entrp">   -241.94228006 </i>
    <i name="e_0_energy">   -241.94228006 </i>
   </energy>
  </scstep>
  <scstep>
   <time name="dav">    2.03    2.05</time>
   <time name="total">    2.10    2.12</time>
   <energy>
    <i name="e_fr_energy">   -241.94228012 </i>
    <i name="e_wo_entrp">   -241.94228012 </i>
    <i name="e_0_energy">   -241.94228012 </i>
   </energy>
  </scstep>
  <scstep>
   <time name="diag">    0.37    0.37</time>
   <time name="diis">    1.17    1.18</time>
   <time name="orth">    0.06    0.07</time>
   <time name="total">    2.13    2.15</time>
   <energy>
    <i name="e_fr_energy">   -236.93540038 </i>
    <i name="e_wo_entrp">   -236.93540038 </i>
    <i name="e_0_energy">   -236.93540038 </i>
   </energy>
  </scstep>
  <scstep>
   <time name="diag">    0.36    0.36</time>
   <time name="diis">    1.21    1.22</time>
   <time name="orth">    0.07    0.07</time>
   <time name="total">    2.17    2.19</time>
   <energy>
    <i name="e_fr_energy">   -256.17273305 </i>
    <i name="e_wo_entrp">   -256.17273305 </i>
    <i name="e_0_energy">   -256.17273305 </i>
   </energy>
  </scstep>
  <scstep>
   <time name="diag">    0.36    0.36</time>
   <time name="diis">    1.20    1.21</time>
   <time name="orth">    0.07    0.07</time>
   <time name="total">    2.16    2.18</time>
   <energy>
    <i name="e_fr_energy">   -258.67160510 </i>
    <i name="e_wo_entrp">   -258.67160510 </i>
    <i name="e_0_energy">   -258.67160510 </i>
   </energy>
  </scstep>
  <scstep>
   <time name="diag">    0.36    0.36</time>
   <time name="diis">    1.55    1.56</time>
   <time name="orth">    0.07    0.07</time>
   <time name="total">    2.51    2.53</time>
   <energy>
    <i name="e_fr_energy">   -258.85964561 </i>
    <i name="e_wo_entrp">   -258.85964561 </i>
    <i name="e_0_energy">   -258.85964561 </i>
   </energy>
  </scstep>
  <scstep>
   <time name="diag">    0.36    0.36</time>
   <time name="diis">    1.28    1.29</time>
   <time name="orth">    0.07    0.07</time>
   <time name="total">    2.24    2.26</time>
   <energy>
    <i name="e_fr_energy">   -258.83750565 </i>
    <i name="e_wo_entrp">   -258.83750565 </i>
    <i name="e_0_energy">   -258.83750565 </i>
   </energy>
  </scstep>
  <scstep>
   <time name="diag">    0.36    0.36</time>
   <time name="diis">    1.29    1.30</time>
   <time name="orth">    0.07    0.07</time>
   <time name="total">    2.25    2.27</time>
   <energy>
    <i name="e_fr_energy">   -258.85690049 </i>
    <i name="e_wo_entrp">   -258.85690049 </i>
    <i name="e_0_energy">   -258.85690049 </i>
   </energy>
  </scstep>
  <scstep>
   <time name="diag">    0.36    0.36</time>
   <time name="diis">    1.44    1.45</time>
   <time name="orth">    0.07    0.07</time>
   <time name="total">    2.40    2.42</time>
   <energy>
    <i name="e_fr_energy">   -258.86266634 </i>
    <i name="e_wo_entrp">   -258.86266634 </i>
    <i name="e_0_energy">   -258.86266634 </i>
   </energy>
  </scstep>
  <scstep>
   <time name="diag">    0.36    0.36</time>
   <time name="diis">    1.41    1.42</time>
   <time name="orth">    0.07    0.07</time>
   <time name="total">    2.37    2.39</time>
   <energy>
    <i name="e_fr_energy">   -258.86381212 </i>
    <i name="e_wo_entrp">   -258.86381212 </i>
    <i name="e_0_energy">   -258.86381212 </i>
   </energy>
  </scstep>
  <scstep>
   <time name="diag">    0.36    0.36</time>
   <time name="diis">    1.62    1.63</time>
   <time name="orth">    0.07    0.07</time>
   <time name="total">    2.59    2.61</time>
   <energy>
    <i name="e_fr_energy">   -258.86423426 </i>
    <i name="e_wo_entrp">   -258.86423426 </i>
    <i name="e_0_energy">   -258.86423426 </i>
   </energy>
  </scstep>
  <scstep>
   <time name="diag">    0.36    0.36</time>
   <time name="diis">    1.61    1.62</time>
   <time name="orth">    0.07    0.07</time>
   <time name="total">    2.57    2.59</time>
   <energy>
    <i name="e_fr_energy">   -258.86432054 </i>
    <i name="e_wo_entrp">   -258.86432054 </i>
    <i name="e_0_energy">   -258.86432054 </i>
   </energy>
  </scstep>
  <scstep>
   <time name="diag">    0.36    0.36</time>
   <time name="diis">    1.44    1.45</time>
   <time name="orth">    0.07    0.07</time>
   <time name="total">    2.40    2.42</time>
   <energy>
    <i name="e_fr_energy">   -258.86433567 </i>
    <i name="e_wo_entrp">   -258.86433567 </i>
    <i name="e_0_energy">   -258.86433567 </i>
   </energy>
  </scstep>
  <scstep>
   <time name="diag">    0.36    0.36</time>
   <time name="diis">    1.58    1.60</time>
   <time name="orth">    0.07    0.07</time>
   <time name="total">    2.55    2.57</time>
   <energy>
    <i name="e_fr_energy">   -258.86434071 </i>
    <i name="e_wo_entrp">   -258.86434071 </i>
    <i name="e_0_energy">   -258.86434071 </i>
   </energy>
  </scstep>
  <scstep>
   <time name="diag">    0.36    0.36</time>
   <time name="diis">    1.22    1.23</time>
   <time name="orth">    0.07    0.07</time>
   <time name="total">    2.19    2.20</time>
   <energy>
    <i name="e_fr_energy">   -258.86434031 </i>
    <i name="e_wo_entrp">   -258.86434031 </i>
    <i name="e_0_energy">   -258.86434031 </i>
   </energy>
  </scstep>
  <scstep>
   <time name="diag">    0.36    0.36</time>
   <time name="diis">    0.94    0.94</time>
   <time name="orth">    0.07    0.07</time>
   <time name="total">    1.83    1.84</time>
   <energy>
    <i name="alphaZ">    303.32991449 </i>
    <i name="ewald">  -8870.29600510 </i>
    <i name="hartreedc">  -2173.63645821 </i>
    <i name="XCdc">    538.00002317 </i>
    <i name="pawpsdc">   9816.71035041 </i>
    <i name="pawaedc">  -9960.67138324 </i>
    <i name="eentropy">     -0.00000000 </i>
    <i name="bandstr">  -2615.44077719 </i>
    <i name="atom">  12703.13999606 </i>
    <i name="e_fr_energy">   -258.86433961 </i>
    <i name="e_wo_entrp">   -258.86433961 </i>
    <i name="e_0_energy">   -258.86433961 </i>
   </energy>
  </scstep>
  <structure>
   <crystal>
    <varray name="basis" >
     <v>       9.63671177       0.00000000       0.00000000 </v>
     <v>       0.00000000       9.63671177       0.00000000 </v>
     <v>       0.00000000       0.00000000       9.63671177 </v>
    </varray>
    <i name="volume">    894.92493391 </i>
    <varray name="rec_basis" >
     <v>       0.10376984       0.00000000       0.00000000 </v>
     <v>       0.00000000       0.10376984       0.00000000 </v>
     <v>       0.00000000       0.00000000       0.10376984 </v>
    </varray>
   </crystal>
   <varray name="positions" >
    <v>       0.97631274       0.33964165       0.28275171 </v>
    <v>       0.97631088       0.83964421       0.78275018 </v>
    <v>       0.02126173       0.30986149       0.70891590 </v>
    <v>       0.02126399       0.80986581       0.20891198 </v>
    <v>       0.18019884       0.16708776       0.95799098 </v>
    <v>       0.21127662       0.80348512       0.01120897 </v>
    <v>       0.82934411       0.16041177       0.03940858 </v>
    <v>       0.79223164       0.79186565       0.98574178 </v>
    <v>       0.29226147       0.98737269       0.29021910 </v>
    <v>       0.32926953       0.04101539       0.65875453 </v>
    <v>       0.68018339       0.95961549       0.66547692 </v>
    <v>       0.71121380       0.01284392       0.30185936 </v>
    <v>       0.18020029       0.66708898       0.45798816 </v>
    <v>       0.21127524       0.30348672       0.51121170 </v>
    <v>       0.82934636       0.66041326       0.53940685 </v>
    <v>       0.79223171       0.29187014       0.48574308 </v>
    <v>       0.29225906       0.48737218       0.79021830 </v>
    <v>       0.32927031       0.54101529       0.15875432 </v>
    <v>       0.68018643       0.45961642       0.16547680 </v>
    <v>       0.71121426       0.51284239       0.80185552 </v>
    <v>       0.47631123       0.28438664       0.83796783 </v>
    <v>       0.47631418       0.78438619       0.33796207 </v>
    <v>       0.52123494       0.21057016       0.30826484 </v>
    <v>       0.52123477       0.71056872       0.80826396 </v>
    <v>       0.50554292       0.49976603       0.49825711 </v>
    <v>       0.50554365       0.99976619       0.99825659 </v>
    <v>       0.00550319       0.49995420       0.99803642 </v>
    <v>       0.00550288       0.99995381       0.49803475 </v>
    <v>       0.14406789       0.87864293       0.60401473 </v>
    <v>       0.10796654       0.12907446       0.36337463 </v>
    <v>       0.87662722       0.86412719       0.39513024 </v>
    <v>       0.88536915       0.11110282       0.63438993 </v>
    <v>       0.88537170       0.61110391       0.13439137 </v>
    <v>       0.87662467       0.36412621       0.89513268 </v>
    <v>       0.10796478       0.62907446       0.86337333 </v>
    <v>       0.14406752       0.37864405       0.10401468 </v>
    <v>       0.64413740       0.10571508       0.87698945 </v>
    <v>       0.60795086       0.86506209       0.12739579 </v>
    <v>       0.38539727       0.13608143       0.10944450 </v>
    <v>       0.37665074       0.89682908       0.86246490 </v>
    <v>       0.64413781       0.60571404       0.37699051 </v>
    <v>       0.60794722       0.36505990       0.62739624 </v>
    <v>       0.38539623       0.63608087       0.60944457 </v>
    <v>       0.37664883       0.39682933       0.36246509 </v>
    <v>       0.75292312       0.74374622       0.75358260 </v>
    <v>       0.75292360       0.24374704       0.25358421 </v>
    <v>       0.25293398       0.75520481       0.24210648 </v>
    <v>       0.25293217       0.25520359       0.74210894 </v>
    <v>       0.00102355       0.96787086       0.00401413 </v>
    <v>       0.00102256       0.46786899       0.50401698 </v>
    <v>       0.50090743       0.00561519       0.46620596 </v>
    <v>       0.50090731       0.50561687       0.96620666 </v>
   </varray>
  </structure>
  <varray name="forces" >
   <v>      -0.00029875       0.00155756      -0.00052164 </v>
   <v>      -0.00029875       0.00155756      -0.00052164 </v>
   <v>      -0.00003961       0.00053851       0.00039199 </v>
   <v>      -0.00003961       0.00053851       0.00039199 </v>
   <v>       0.00028660      -0.00074934      -0.00002833 </v>
   <v>      -0.00032480      -0.00065468      -0.00029948 </v>
   <v>       0.00041777      -0.00005874       0.00010196 </v>
   <v>       0.00031893      -0.00017706       0.00026146 </v>
   <v>       0.00016104       0.00030810      -0.00016005 </v>
   <v>       0.00027489       0.00003255      -0.00005627 </v>
   <v>       0.00008982      -0.00009131      -0.00081442 </v>
   <v>      -0.00043347      -0.00020084      -0.00064409 </v>
   <v>       0.00028660      -0.00074934      -0.00002833 </v>
   <v>      -0.00032480      -0.00065468      -0.00029948 </v>
   <v>       0.00041777      -0.00005874       0.00010196 </v>
   <v>       0.00031893      -0.00017706       0.00026146 </v>
   <v>       0.00016104       0.00030810      -0.00016005 </v>
   <v>       0.00027489       0.00003255      -0.00005627 </v>
   <v>       0.00008982      -0.00009131      -0.00081442 </v>
   <v>      -0.00043347      -0.00020084      -0.00064409 </v>
   <v>      -0.00026457      -0.00056276       0.00145376 </v>
   <v>      -0.00026457      -0.00056276       0.00145376 </v>
   <v>      -0.00001276       0.00032394       0.00047936 </v>
   <v>      -0.00001276       0.00032394       0.00047936 </v>
   <v>      -0.00102794      -0.00038443      -0.00014333 </v>
   <v>      -0.00102794      -0.00038443      -0.00014333 </v>
   <v>       0.00012296      -0.00009359       0.00001115 </v>
   <v>       0.00012296      -0.00009359       0.00001115 </v>
   <v>       0.00162172      -0.00104300       0.00022123 </v>
   <v>       0.00017129       0.00123765      -0.00201378 </v>
   <v>      -0.00160537      -0.00102644      -0.00061328 </v>
   <v>      -0.00049782       0.00090589       0.00162722 </v>
   <v>      -0.00049782       0.00090589       0.00162722 </v>
   <v>      -0.00160537      -0.00102644      -0.00061328 </v>
   <v>       0.00017129       0.00123765      -0.00201378 </v>
   <v>       0.00162172      -0.00104300       0.00022123 </v>
   <v>       0.00187668       0.00035370      -0.00109635 </v>
   <v>       0.00048222      -0.00194934       0.00120556 </v>
   <v>      -0.00030676       0.00166025       0.00087825 </v>
   <v>      -0.00135045      -0.00059830      -0.00110340 </v>
   <v>       0.00187668       0.00035370      -0.00109635 </v>
   <v>       0.00048222      -0.00194934       0.00120556 </v>
   <v>      -0.00030676       0.00166025       0.00087825 </v>
   <v>      -0.00135045      -0.00059830      -0.00110340 </v>
   <v>       0.00012097       0.00003188      -0.00011006 </v>
   <v>       0.00012097       0.00003188      -0.00011006 </v>
   <v>       0.00008976      -0.00010270      -0.00000486 </v>
   <v>       0.00008976      -0.00010270      -0.00000486 </v>
   <v>       0.00010847       0.00082746       0.00014573 </v>
   <v>       0.00010847       0.00082746       0.00014573 </v>
   <v>       0.00001916      -0.00008494       0.00083168 </v>
   <v>       0.00001916      -0.00008494       0.00083168 </v>
  </varray>
  <varray name="stress" >
   <v>       4.44161545      -3.97355300      -4.00362843 </v>
   <v>      -3.97355235      -2.14832488       1.94959042 </v>
   <v>      -4.00362777       1.94959027      -2.20844069 </v>
  </varray>
  <energy>
   <i name="e_fr_energy">   -272.55395461 </i>
   <i name="e_wo_entrp">   -272.55395461 </i>
   <i name="e_0_energy">   -272.55395461 </i>
  </energy>
  <time name="totalsc">   64.47   65.62</time>
 </calculation>
 <calculation>
  <scstep>
   <time name="dav">    2.29    2.31</time>
   <time name="total">    2.82    2.85</time>
   <energy>
    <i name="alphaZ">    303.32991449 </i>
    <i name="ewald">  -8870.34668667 </i>
    <i name="hartreedc">  -2173.60118748 </i>
    <i name="XCdc">    537.99900248 </i>
    <i name="pawpsdc">   9816.70851850 </i>
    <i name="pawaedc">  -9960.66948665 </i>
    <i name="eentropy">     -0.00000000 </i>
    <i name="bandstr">  -2615.42440852 </i>
    <i name="atom">  12703.13999606 </i>
    <i name="e_fr_energy">   -258.86433779 </i>
    <i name="e_wo_entrp">   -258.86433779 </i>
    <i name="e_0_energy">   -258.86433779 </i>
   </energy>
  </scstep>
  <scstep>
   <time name="diag">    0.37    0.37</time>
   <time name="diis">    0.90    0.91</time>
   <time name="orth">    0.07    0.07</time>
   <time name="total">    1.80    1.82</time>
   <energy>
    <i name="alphaZ">    303.32991449 </i>
    <i name="ewald">  -8870.34668667 </i>
    <i name="hartreedc">  -2173.60009400 </i>
    <i name="XCdc">    537.99868086 </i>
    <i name="pawpsdc">   9816.64246621 </i>
    <i name="pawaedc">  -9960.60285794 </i>
    <i name="eentropy">     -0.00000000 </i>
    <i name="bandstr">  -2615.42575689 </i>
    <i name="atom">  12703.13999606 </i>
    <i name="e_fr_energy">   -258.86433789 </i>
    <i name="e_wo_entrp">   -258.86433789 </i>
    <i name="e_0_energy">   -258.86433789 </i>
   </energy>
  </scstep>
  <structure>
   <crystal>
    <varray name="basis" >
     <v>       9.63671177       0.00000000       0.00000000 </v>
     <v>       0.00000000       9.63671177       0.00000000 </v>
     <v>       0.00000000       0.00000000       9.63671177 </v>
    </varray>
    <i name="volume">    894.92493391 </i>
    <varray name="rec_basis" >
     <v>       0.10376984       0.00000000       0.00000000 </v>
     <v>       0.00000000       0.10376984       0.00000000 </v>
     <v>       0.00000000       0.00000000       0.10376984 </v>
    </varray>
   </crystal>
   <varray name="positions" >
    <v>       0.97631214       0.33964476       0.28275066 </v>
    <v>       0.97631028       0.83964733       0.78274914 </v>
    <v>       0.02126165       0.30986257       0.70891668 </v>
    <v>       0.02126391       0.80986689       0.20891277 </v>
    <v>       0.18019941       0.16708626       0.95799092 </v>
    <v>       0.21127597       0.80348381       0.01120837 </v>
    <v>       0.82934495       0.16041165       0.03940878 </v>
    <v>       0.79223228       0.79186529       0.98574231 </v>
    <v>       0.29226179       0.98737330       0.29021878 </v>
    <v>       0.32927008       0.04101545       0.65875442 </v>
    <v>       0.68018357       0.95961530       0.66547528 </v>
    <v>       0.71121294       0.01284352       0.30185807 </v>
    <v>       0.18020086       0.66708748       0.45798810 </v>
    <v>       0.21127458       0.30348541       0.51121110 </v>
    <v>       0.82934719       0.66041314       0.53940706 </v>
    <v>       0.79223235       0.29186979       0.48574360 </v>
    <v>       0.29225938       0.48737280       0.79021798 </v>
    <v>       0.32927086       0.54101535       0.15875421 </v>
    <v>       0.68018661       0.45961623       0.16547517 </v>
    <v>       0.71121339       0.51284199       0.80185423 </v>
    <v>       0.47631070       0.28438552       0.83797074 </v>
    <v>       0.47631365       0.78438506       0.33796498 </v>
    <v>       0.52123492       0.21057080       0.30826580 </v>
    <v>       0.52123475       0.71056937       0.80826492 </v>
    <v>       0.50554086       0.49976526       0.49825682 </v>
    <v>       0.50554159       0.99976542       0.99825630 </v>
    <v>       0.00550344       0.49995401       0.99803644 </v>
    <v>       0.00550313       0.99995362       0.49803477 </v>
    <v>       0.14407114       0.87864084       0.60401518 </v>
    <v>       0.10796689       0.12907694       0.36337060 </v>
    <v>       0.87662400       0.86412514       0.39512901 </v>
    <v>       0.88536815       0.11110463       0.63439318 </v>
    <v>       0.88537071       0.61110572       0.13439463 </v>
    <v>       0.87662146       0.36412415       0.89513145 </v>
    <v>       0.10796513       0.62907694       0.86336930 </v>
    <v>       0.14407077       0.37864197       0.10401512 </v>
    <v>       0.64414116       0.10571579       0.87698726 </v>
    <v>       0.60795182       0.86505819       0.12739820 </v>
    <v>       0.38539665       0.13608475       0.10944625 </v>
    <v>       0.37664803       0.89682788       0.86246269 </v>
    <v>       0.64414157       0.60571475       0.37698832 </v>
    <v>       0.60794818       0.36505600       0.62739866 </v>
    <v>       0.38539562       0.63608420       0.60944633 </v>
    <v>       0.37664612       0.39682814       0.36246288 </v>
    <v>       0.75292337       0.74374629       0.75358238 </v>
    <v>       0.75292385       0.24374710       0.25358399 </v>
    <v>       0.25293416       0.75520460       0.24210647 </v>
    <v>       0.25293235       0.25520338       0.74210893 </v>
    <v>       0.00102376       0.96787252       0.00401443 </v>
    <v>       0.00102278       0.46787064       0.50401727 </v>
    <v>       0.50090747       0.00561502       0.46620763 </v>
    <v>       0.50090735       0.50561670       0.96620833 </v>
   </varray>
  </structure>
  <varray name="forces" >
   <v>      -0.00019271       0.00102219      -0.00024723 </v>
   <v>      -0.00019271       0.00102219      -0.00024723 </v>
   <v>      -0.00001917       0.00036872       0.00025113 </v>
   <v>      -0.00001917       0.00036872       0.00025113 </v>
   <v>       0.00015139      -0.00043532      -0.00000872 </v>
   <v>      -0.00020982      -0.00035294      -0.00013689 </v>
   <v>       0.00024891      -0.00001139       0.00010242 </v>
   <v>       0.00018846      -0.00004574       0.00017719 </v>
   <v>       0.00010793       0.00020593      -0.00004154 </v>
   <v>       0.00017985       0.00008089      -0.00001320 </v>
   <v>       0.00005204      -0.00002777      -0.00046811 </v>
   <v>      -0.00025455      -0.00009319      -0.00034508 </v>
   <v>       0.00015139      -0.00043532      -0.00000872 </v>
   <v>      -0.00020982      -0.00035294      -0.00013689 </v>
   <v>       0.00024891      -0.00001139       0.00010242 </v>
   <v>       0.00018846      -0.00004574       0.00017719 </v>
   <v>       0.00010793       0.00020593      -0.00004154 </v>
   <v>       0.00017985       0.00008089      -0.00001320 </v>
   <v>       0.00005204      -0.00002777      -0.00046811 </v>
   <v>      -0.00025455      -0.00009319      -0.00034508 </v>
   <v>      -0.00012499      -0.00028802       0.00093869 </v>
   <v>      -0.00012499      -0.00028802       0.00093869 </v>
   <v>       0.00004764       0.00018591       0.00034277 </v>
   <v>       0.00004764       0.00018591       0.00034277 </v>
   <v>      -0.00027679      -0.00020442      -0.00001583 </v>
   <v>      -0.00027679      -0.00020442      -0.00001583 </v>
   <v>       0.00011063       0.00004102      -0.00003389 </v>
   <v>       0.00011063       0.00004102      -0.00003389 </v>
   <v>       0.00068886      -0.00035443      -0.00007480 </v>
   <v>      -0.00010514       0.00052211      -0.00095087 </v>
   <v>      -0.00076704      -0.00025069      -0.00015871 </v>
   <v>       0.00001977       0.00038658       0.00073752 </v>
   <v>       0.00001977       0.00038658       0.00073752 </v>
   <v>      -0.00076704      -0.00025069      -0.00015871 </v>
   <v>      -0.00010514       0.00052211      -0.00095087 </v>
   <v>       0.00068886      -0.00035443      -0.00007480 </v>
   <v>       0.00063010      -0.00015140      -0.00023341 </v>
   <v>       0.00001246      -0.00084695       0.00044543 </v>
   <v>       0.00006040       0.00080728       0.00041319 </v>
   <v>      -0.00076791      -0.00027195      -0.00043616 </v>
   <v>       0.00063010      -0.00015140      -0.00023341 </v>
   <v>       0.00001246      -0.00084695       0.00044543 </v>
   <v>       0.00006040       0.00080728       0.00041319 </v>
   <v>      -0.00076791      -0.00027195      -0.00043616 </v>
   <v>       0.00001309      -0.00001811       0.00011988 </v>
   <v>       0.00001309      -0.00001811       0.00011988 </v>
   <v>       0.00000281       0.00013235      -0.00004833 </v>
   <v>       0.00000281       0.00013235      -0.00004833 </v>
   <v>       0.00007337      -0.00038861       0.00012126 </v>
   <v>       0.00007337      -0.00038861       0.00012126 </v>
   <v>       0.00013041      -0.00001203      -0.00043670 </v>
   <v>       0.00013041      -0.00001203      -0.00043670 </v>
  </varray>
  <varray name="stress" >
   <v>       4.41738587      -3.97367353      -4.00241577 </v>
   <v>      -3.97367288      -2.17244882       1.95136768 </v>
   <v>      -4.00241501       1.95136774      -2.23247194 </v>
  </varray>
  <energy>
   <i name="e_fr_energy">   -272.55395636 </i>
   <i name="e_wo_entrp">   -272.55395636 </i>
   <i name="e_0_energy">   -272.55395636 </i>
  </energy>
  <time name="totalsc">    7.74    7.83</time>
 </calculation>
 <calculation>
  <scstep>
   <time name="dav">    2.28    2.30</time>
   <time name="total">    2.90    2.92</time>
   <energy>
    <i name="alphaZ">    303.32991449 </i>
    <i name="ewald">  -8870.38321917 </i>
    <i name="hartreedc">  -2173.57140765 </i>
    <i name="XCdc">    537.99769148 </i>
    <i name="pawpsdc">   9816.60586824 </i>
    <i name="pawaedc">  -9960.56575937 </i>
    <i name="eentropy">     -0.00000000 </i>
    <i name="bandstr">  -2615.41742006 </i>
    <i name="atom">  12703.13999606 </i>
    <i name="e_fr_energy">   -258.86433599 </i>
    <i name="e_wo_entrp">   -258.86433599 </i>
    <i name="e_0_energy">   -258.86433599 </i>
   </energy>
  </scstep>
  <scstep>
   <time name="diag">    0.36    0.37</time>
   <time name="diis">    0.83    0.83</time>
   <time name="orth">    0.07    0.07</time>
   <time name="total">    1.72    1.73</time>
   <energy>
    <i name="alphaZ">    303.32991449 </i>
    <i name="ewald">  -8870.38321917 </i>
    <i name="hartreedc">  -2173.56862186 </i>
    <i name="XCdc">    537.99747095 </i>
    <i name="pawpsdc">   9816.55375237 </i>
    <i name="pawaedc">  -9960.51332590 </i>
    <i name="eentropy">     -0.00000000 </i>
    <i name="bandstr">  -2615.42030286 </i>
    <i name="atom">  12703.13999606 </i>
    <i name="e_fr_energy">   -258.86433593 </i>
    <i name="e_wo_entrp">   -258.86433593 </i>
    <i name="e_0_energy">   -258.86433593 </i>
   </energy>
  </scstep>
  <structure>
   <crystal>
    <varray name="basis" >
     <v>       9.63671177       0.00000000       0.00000000 </v>
     <v>       0.00000000       9.63671177       0.00000000 </v>
     <v>       0.00000000       0.00000000       9.63671177 </v>
    </varray>
    <i name="volume">    894.92493391 </i>
    <varray name="rec_basis" >
     <v>       0.10376984       0.00000000       0.00000000 </v>
     <v>       0.00000000       0.10376984       0.00000000 </v>
     <v>       0.00000000       0.00000000       0.10376984 </v>
    </varray>
   </crystal>
   <varray name="positions" >
    <v>       0.97631171       0.33964701       0.28274991 </v>
    <v>       0.97630985       0.83964958       0.78274838 </v>
    <v>       0.02126159       0.30986335       0.70891725 </v>
    <v>       0.02126385       0.80986767       0.20891334 </v>
    <v>       0.18019983       0.16708518       0.95799088 </v>
    <v>       0.21127550       0.80348287       0.01120794 </v>
    <v>       0.82934555       0.16041156       0.03940893 </v>
    <v>       0.79223274       0.79186504       0.98574269 </v>
    <v>       0.29226203       0.98737375       0.29021855 </v>
    <v>       0.32927048       0.04101550       0.65875433 </v>
    <v>       0.68018370       0.95961517       0.66547411 </v>
    <v>       0.71121231       0.01284323       0.30185714 </v>
    <v>       0.18020128       0.66708640       0.45798806 </v>
    <v>       0.21127412       0.30348446       0.51121067 </v>
    <v>       0.82934780       0.66041306       0.53940720 </v>
    <v>       0.79223281       0.29186953       0.48574398 </v>
    <v>       0.29225961       0.48737325       0.79021775 </v>
    <v>       0.32927126       0.54101540       0.15875413 </v>
    <v>       0.68018674       0.45961610       0.16547399 </v>
    <v>       0.71121276       0.51284170       0.80185330 </v>
    <v>       0.47631031       0.28438470       0.83797284 </v>
    <v>       0.47631326       0.78438425       0.33796708 </v>
    <v>       0.52123490       0.21057127       0.30826650 </v>
    <v>       0.52123473       0.71056984       0.80826561 </v>
    <v>       0.50553938       0.49976471       0.49825662 </v>
    <v>       0.50554011       0.99976486       0.99825610 </v>
    <v>       0.00550362       0.49995387       0.99803645 </v>
    <v>       0.00550330       0.99995349       0.49803479 </v>
    <v>       0.14407348       0.87863933       0.60401550 </v>
    <v>       0.10796714       0.12907873       0.36336769 </v>
    <v>       0.87662168       0.86412365       0.39512813 </v>
    <v>       0.88536744       0.11110594       0.63439553 </v>
    <v>       0.88536999       0.61110703       0.13439698 </v>
    <v>       0.87661914       0.36412267       0.89513057 </v>
    <v>       0.10796537       0.62907873       0.86336639 </v>
    <v>       0.14407311       0.37864046       0.10401544 </v>
    <v>       0.64414387       0.10571630       0.87698567 </v>
    <v>       0.60795252       0.86505537       0.12739994 </v>
    <v>       0.38539621       0.13608715       0.10944752 </v>
    <v>       0.37664608       0.89682702       0.86246109 </v>
    <v>       0.64414428       0.60571526       0.37698674 </v>
    <v>       0.60794888       0.36505318       0.62740040 </v>
    <v>       0.38539517       0.63608659       0.60944760 </v>
    <v>       0.37664417       0.39682727       0.36246129 </v>
    <v>       0.75292354       0.74374633       0.75358222 </v>
    <v>       0.75292402       0.24374715       0.25358383 </v>
    <v>       0.25293429       0.75520445       0.24210646 </v>
    <v>       0.25293248       0.25520323       0.74210893 </v>
    <v>       0.00102392       0.96787372       0.00401464 </v>
    <v>       0.00102293       0.46787184       0.50401748 </v>
    <v>       0.50090750       0.00561490       0.46620883 </v>
    <v>       0.50090738       0.50561658       0.96620953 </v>
   </varray>
  </structure>
  <varray name="forces" >
   <v>      -0.00025330       0.00129221      -0.00034334 </v>
   <v>      -0.00025330       0.00129221      -0.00034334 </v>
   <v>      -0.00002164       0.00041877       0.00028439 </v>
   <v>      -0.00002164       0.00041877       0.00028439 </v>
   <v>       0.00014687      -0.00052651      -0.00001771 </v>
   <v>      -0.00025569      -0.00042917      -0.00016746 </v>
   <v>       0.00028572      -0.00004125       0.00010435 </v>
   <v>       0.00019692      -0.00005396       0.00017909 </v>
   <v>       0.00010917       0.00020597      -0.00004605 </v>
   <v>       0.00022261       0.00009158      -0.00004641 </v>
   <v>       0.00004340      -0.00003568      -0.00055869 </v>
   <v>      -0.00029683      -0.00011929      -0.00041634 </v>
   <v>       0.00014687      -0.00052651      -0.00001771 </v>
   <v>      -0.00025569      -0.00042917      -0.00016746 </v>
   <v>       0.00028572      -0.00004125       0.00010435 </v>
   <v>       0.00019692      -0.00005396       0.00017909 </v>
   <v>       0.00010917       0.00020597      -0.00004605 </v>
   <v>       0.00022261       0.00009158      -0.00004641 </v>
   <v>       0.00004340      -0.00003568      -0.00055869 </v>
   <v>      -0.00029683      -0.00011929      -0.00041634 </v>
   <v>      -0.00015078      -0.00039730       0.00118371 </v>
   <v>      -0.00015078      -0.00039730       0.00118371 </v>
   <v>       0.00007713       0.00020091       0.00039093 </v>
   <v>       0.00007713       0.00020091       0.00039093 </v>
   <v>       0.00018395      -0.00014703       0.00001882 </v>
   <v>       0.00018395      -0.00014703       0.00001882 </v>
   <v>       0.00005548       0.00008242      -0.00011261 </v>
   <v>       0.00005548       0.00008242      -0.00011261 </v>
   <v>       0.00048661      -0.00019055      -0.00030410 </v>
   <v>      -0.00035683       0.00025169      -0.00080592 </v>
   <v>      -0.00056264      -0.00001315       0.00008432 </v>
   <v>       0.00028144       0.00012584       0.00054296 </v>
   <v>       0.00028144       0.00012584       0.00054296 </v>
   <v>      -0.00056264      -0.00001315       0.00008432 </v>
   <v>      -0.00035683       0.00025169      -0.00080592 </v>
   <v>       0.00048661      -0.00019055      -0.00030410 </v>
   <v>       0.00026735      -0.00047678       0.00002165 </v>
   <v>      -0.00030972      -0.00065168       0.00013701 </v>
   <v>       0.00024388       0.00064469       0.00018400 </v>
   <v>      -0.00068000      -0.00011650      -0.00028961 </v>
   <v>       0.00026735      -0.00047678       0.00002165 </v>
   <v>      -0.00030972      -0.00065168       0.00013701 </v>
   <v>       0.00024388       0.00064469       0.00018400 </v>
   <v>      -0.00068000      -0.00011650      -0.00028961 </v>
   <v>       0.00002811       0.00000271       0.00006614 </v>
   <v>       0.00002811       0.00000271       0.00006614 </v>
   <v>       0.00001616       0.00007819      -0.00003265 </v>
   <v>       0.00001616       0.00007819      -0.00003265 </v>
   <v>       0.00011144      -0.00015602       0.00014415 </v>
   <v>       0.00011144      -0.00015602       0.00014415 </v>
   <v>       0.00013116      -0.00004011      -0.00020062 </v>
   <v>       0.00013116      -0.00004011      -0.00020062 </v>
  </varray>
  <varray name="stress" >
   <v>       4.40691335      -3.97368280      -4.00177798 </v>
   <v>      -3.97368217      -2.18325759       1.95257632 </v>
   <v>      -4.00177723       1.95257616      -2.24326639 </v>
  </varray>
  <energy>
   <i name="e_fr_energy">   -272.55395691 </i>
   <i name="e_wo_entrp">   -272.55395691 </i>
   <i name="e_0_energy">   -272.55395691 </i>
  </energy>
  <time name="totalsc">    7.74    7.82</time>
 </calculation>
 <calculation>
  <scstep>
   <time name="dav">    2.48    2.50</time>
   <time name="total">    3.02    3.04</time>
   <energy>
    <i name="alphaZ">    303.32991449 </i>
    <i name="ewald">  -8870.45627440 </i>
    <i name="hartreedc">  -2173.51074121 </i>
    <i name="XCdc">    537.99576197 </i>
    <i name="pawpsdc">   9816.52480663 </i>
    <i name="pawaedc">  -9960.48418085 </i>
    <i name="eentropy">     -0.00000000 </i>
    <i name="bandstr">  -2615.40361374 </i>
    <i name="atom">  12703.13999606 </i>
    <i name="e_fr_energy">   -258.86433104 </i>
    <i name="e_wo_entrp">   -258.86433104 </i>
    <i name="e_0_energy">   -258.86433104 </i>
   </energy>
  </scstep>
  <scstep>
   <time name="diag">    0.37    0.37</time>
   <time name="diis">    1.09    1.10</time>
   <time name="orth">    0.07    0.07</time>
   <time name="total">    1.98    2.00</time>
   <energy>
    <i name="alphaZ">    303.32991449 </i>
    <i name="ewald">  -8870.45627440 </i>
    <i name="hartreedc">  -2173.50613138 </i>
    <i name="XCdc">    537.99551875 </i>
    <i name="pawpsdc">   9816.45239992 </i>
    <i name="pawaedc">  -9960.41154509 </i>
    <i name="eentropy">     -0.00000000 </i>
    <i name="bandstr">  -2615.40820951 </i>
    <i name="atom">  12703.13999606 </i>
    <i name="e_fr_energy">   -258.86433116 </i>
    <i name="e_wo_entrp">   -258.86433116 </i>
    <i name="e_0_energy">   -258.86433116 </i>
   </energy>
  </scstep>
  <structure>
   <crystal>
    <varray name="basis" >
     <v>       9.63671177       0.00000000       0.00000000 </v>
     <v>       0.00000000       9.63671177       0.00000000 </v>
     <v>       0.00000000       0.00000000       9.63671177 </v>
    </varray>
    <i name="volume">    894.92493391 </i>
    <varray name="rec_basis" >
     <v>       0.10376984       0.00000000       0.00000000 </v>
     <v>       0.00000000       0.10376984       0.00000000 </v>
     <v>       0.00000000       0.00000000       0.10376984 </v>
    </varray>
   </crystal>
   <varray name="positions" >
    <v>       0.97631084       0.33965151       0.28274840 </v>
    <v>       0.97630899       0.83965407       0.78274688 </v>
    <v>       0.02126148       0.30986490       0.70891838 </v>
    <v>       0.02126374       0.80986922       0.20891447 </v>
    <v>       0.18020065       0.16708302       0.95799080 </v>
    <v>       0.21127456       0.80348098       0.01120708 </v>
    <v>       0.82934676       0.16041139       0.03940922 </v>
    <v>       0.79223366       0.79186452       0.98574344 </v>
    <v>       0.29226249       0.98737464       0.29021809 </v>
    <v>       0.32927127       0.04101559       0.65875417 </v>
    <v>       0.68018396       0.95961491       0.66547176 </v>
    <v>       0.71121106       0.01284265       0.30185528 </v>
    <v>       0.18020211       0.66708423       0.45798798 </v>
    <v>       0.21127318       0.30348257       0.51120980 </v>
    <v>       0.82934900       0.66041289       0.53940750 </v>
    <v>       0.79223373       0.29186902       0.48574473 </v>
    <v>       0.29226008       0.48737414       0.79021729 </v>
    <v>       0.32927205       0.54101549       0.15875396 </v>
    <v>       0.68018700       0.45961584       0.16547164 </v>
    <v>       0.71121151       0.51284112       0.80185144 </v>
    <v>       0.47630955       0.28438308       0.83797704 </v>
    <v>       0.47631250       0.78438262       0.33797127 </v>
    <v>       0.52123486       0.21057221       0.30826788 </v>
    <v>       0.52123469       0.71057077       0.80826700 </v>
    <v>       0.50553641       0.49976360       0.49825620 </v>
    <v>       0.50553714       0.99976375       0.99825568 </v>
    <v>       0.00550397       0.49995360       0.99803649 </v>
    <v>       0.00550366       0.99995322       0.49803482 </v>
    <v>       0.14407816       0.87863632       0.60401613 </v>
    <v>       0.10796763       0.12908230       0.36336188 </v>
    <v>       0.87661705       0.86412069       0.39512636 </v>
    <v>       0.88536600       0.11110856       0.63440023 </v>
    <v>       0.88536855       0.61110964       0.13440168 </v>
    <v>       0.87661451       0.36411971       0.89512880 </v>
    <v>       0.10796587       0.62908230       0.86336058 </v>
    <v>       0.14407780       0.37863745       0.10401608 </v>
    <v>       0.64414929       0.10571732       0.87698251 </v>
    <v>       0.60795391       0.86504975       0.12740342 </v>
    <v>       0.38539533       0.13609194       0.10945006 </v>
    <v>       0.37664218       0.89682529       0.86245791 </v>
    <v>       0.64414969       0.60571628       0.37698357 </v>
    <v>       0.60795027       0.36504755       0.62740388 </v>
    <v>       0.38539429       0.63609139       0.60945014 </v>
    <v>       0.37664027       0.39682555       0.36245810 </v>
    <v>       0.75292389       0.74374643       0.75358191 </v>
    <v>       0.75292437       0.24374724       0.25358351 </v>
    <v>       0.25293455       0.75520416       0.24210645 </v>
    <v>       0.25293274       0.25520294       0.74210891 </v>
    <v>       0.00102423       0.96787610       0.00401506 </v>
    <v>       0.00102325       0.46787423       0.50401790 </v>
    <v>       0.50090755       0.00561465       0.46621123 </v>
    <v>       0.50090743       0.50561634       0.96621193 </v>
   </varray>
  </structure>
  <varray name="forces" >
   <v>      -0.00016558       0.00084341      -0.00015237 </v>
   <v>      -0.00016558       0.00084341      -0.00015237 </v>
   <v>      -0.00000524       0.00031977       0.00020112 </v>
   <v>      -0.00000524       0.00031977       0.00020112 </v>
   <v>       0.00003899      -0.00032822      -0.00000957 </v>
   <v>      -0.00021211      -0.00030025      -0.00008758 </v>
   <v>       0.00018148      -0.00003646       0.00009001 </v>
   <v>       0.00011015       0.00001037       0.00011344 </v>
   <v>       0.00006480       0.00012186       0.00001395 </v>
   <v>       0.00018103       0.00013016      -0.00005379 </v>
   <v>       0.00001532       0.00001399      -0.00033052 </v>
   <v>      -0.00019789      -0.00007438      -0.00027759 </v>
   <v>       0.00003899      -0.00032822      -0.00000957 </v>
   <v>      -0.00021211      -0.00030025      -0.00008758 </v>
   <v>       0.00018148      -0.00003646       0.00009001 </v>
   <v>       0.00011015       0.00001037       0.00011344 </v>
   <v>       0.00006480       0.00012186       0.00001395 </v>
   <v>       0.00018103       0.00013016      -0.00005379 </v>
   <v>       0.00001532       0.00001399      -0.00033052 </v>
   <v>      -0.00019789      -0.00007438      -0.00027759 </v>
   <v>      -0.00001267      -0.00021137       0.00074427 </v>
   <v>      -0.00001267      -0.00021137       0.00074427 </v>
   <v>       0.00015233       0.00010997       0.00032430 </v>
   <v>       0.00015233       0.00010997       0.00032430 </v>
   <v>       0.00123600       0.00005595       0.00011230 </v>
   <v>       0.00123600       0.00005595       0.00011230 </v>
   <v>      -0.00001397       0.00019417      -0.00023207 </v>
   <v>      -0.00001397       0.00019417      -0.00023207 </v>
   <v>      -0.00046402       0.00052200      -0.00080743 </v>
   <v>      -0.00086656      -0.00062649       0.00022515 </v>
   <v>       0.00033286       0.00078998       0.00074258 </v>
   <v>       0.00096262      -0.00060790      -0.00036004 </v>
   <v>       0.00096262      -0.00060790      -0.00036004 </v>
   <v>       0.00033286       0.00078998       0.00074258 </v>
   <v>      -0.00086656      -0.00062649       0.00022515 </v>
   <v>      -0.00046402       0.00052200      -0.00080743 </v>
   <v>      -0.00108142      -0.00124184       0.00097749 </v>
   <v>      -0.00104194       0.00044949      -0.00081743 </v>
   <v>       0.00071797      -0.00018583      -0.00047307 </v>
   <v>      -0.00011777       0.00034810       0.00032243 </v>
   <v>      -0.00108142      -0.00124184       0.00097749 </v>
   <v>      -0.00104194       0.00044949      -0.00081743 </v>
   <v>       0.00071797      -0.00018583      -0.00047307 </v>
   <v>      -0.00011777       0.00034810       0.00032243 </v>
   <v>      -0.00002963      -0.00000729       0.00010610 </v>
   <v>      -0.00002963      -0.00000729       0.00010610 </v>
   <v>      -0.00002567       0.00011522      -0.00002961 </v>
   <v>      -0.00002567       0.00011522      -0.00002961 </v>
   <v>       0.00010030      -0.00039455       0.00010436 </v>
   <v>       0.00010030      -0.00039455       0.00010436 </v>
   <v>       0.00014061      -0.00000984      -0.00044642 </v>
   <v>       0.00014061      -0.00000984      -0.00044642 </v>
  </varray>
  <varray name="stress" >
   <v>       4.38500962      -3.97389450      -4.00006072 </v>
   <v>      -3.97389382      -2.20560591       1.95562171 </v>
   <v>      -4.00006002       1.95562170      -2.26554810 </v>
  </varray>
  <energy>
   <i name="e_fr_energy">   -272.55395715 </i>
   <i name="e_wo_entrp">   -272.55395715 </i>
   <i name="e_0_energy">   -272.55395715 </i>
  </energy>
  <time name="totalsc">    8.12    8.20</time>
 </calculation>
 <calculation>
  <scstep>
   <time name="dav">    2.27    2.29</time>
   <time name="total">    2.81    2.82</time>
   <energy>
    <i name="alphaZ">    303.32991449 </i>
    <i name="ewald">  -8870.42536788 </i>
    <i name="hartreedc">  -2173.52787974 </i>
    <i name="XCdc">    537.99603541 </i>
    <i name="pawpsdc">   9816.40313336 </i>
    <i name="pawaedc">  -9960.36202558 </i>
    <i name="eentropy">     -0.00000000 </i>
    <i name="bandstr">  -2615.41813916 </i>
    <i name="atom">  12703.13999606 </i>
    <i name="e_fr_energy">   -258.86433303 </i>
    <i name="e_wo_entrp">   -258.86433303 </i>
    <i name="e_0_energy">   -258.86433303 </i>
   </energy>
  </scstep>
  <scstep>
   <time name="diag">    0.36    0.37</time>
   <time name="diis">    0.74    0.75</time>
   <time name="orth">    0.07    0.07</time>
   <time name="total">    1.63    1.65</time>
   <energy>
    <i name="alphaZ">    303.32991449 </i>
    <i name="ewald">  -8870.42536788 </i>
    <i name="hartreedc">  -2173.52898067 </i>
    <i name="XCdc">    537.99610422 </i>
    <i name="pawpsdc">   9816.41692076 </i>
    <i name="pawaedc">  -9960.37579011 </i>
    <i name="eentropy">     -0.00000000 </i>
    <i name="bandstr">  -2615.41713011 </i>
    <i name="atom">  12703.13999606 </i>
    <i name="e_fr_energy">   -258.86433324 </i>
    <i name="e_wo_entrp">   -258.86433324 </i>
    <i name="e_0_energy">   -258.86433324 </i>
   </energy>
  </scstep>
  <structure>
   <crystal>
    <varray name="basis" >
     <v>       9.63671177       0.00000000       0.00000000 </v>
     <v>       0.00000000       9.63671177       0.00000000 </v>
     <v>       0.00000000       0.00000000       9.63671177 </v>
    </varray>
    <i name="volume">    894.92493391 </i>
    <varray name="rec_basis" >
     <v>       0.10376984       0.00000000       0.00000000 </v>
     <v>       0.00000000       0.10376984       0.00000000 </v>
     <v>       0.00000000       0.00000000       0.10376984 </v>
    </varray>
   </crystal>
   <varray name="positions" >
    <v>       0.97631121       0.33964961       0.28274904 </v>
    <v>       0.97630935       0.83965217       0.78274751 </v>
    <v>       0.02126153       0.30986424       0.70891790 </v>
    <v>       0.02126378       0.80986857       0.20891399 </v>
    <v>       0.18020030       0.16708393       0.95799083 </v>
    <v>       0.21127496       0.80348178       0.01120744 </v>
    <v>       0.82934625       0.16041147       0.03940910 </v>
    <v>       0.79223327       0.79186474       0.98574312 </v>
    <v>       0.29226229       0.98737426       0.29021828 </v>
    <v>       0.32927094       0.04101555       0.65875424 </v>
    <v>       0.68018385       0.95961502       0.66547275 </v>
    <v>       0.71121159       0.01284290       0.30185607 </v>
    <v>       0.18020176       0.66708515       0.45798801 </v>
    <v>       0.21127357       0.30348337       0.51121017 </v>
    <v>       0.82934849       0.66041296       0.53940737 </v>
    <v>       0.79223334       0.29186924       0.48574442 </v>
    <v>       0.29225988       0.48737376       0.79021748 </v>
    <v>       0.32927172       0.54101545       0.15875403 </v>
    <v>       0.68018689       0.45961595       0.16547264 </v>
    <v>       0.71121204       0.51284137       0.80185222 </v>
    <v>       0.47630987       0.28438377       0.83797526 </v>
    <v>       0.47631282       0.78438331       0.33796950 </v>
    <v>       0.52123488       0.21057181       0.30826729 </v>
    <v>       0.52123471       0.71057038       0.80826641 </v>
    <v>       0.50553766       0.49976407       0.49825638 </v>
    <v>       0.50553840       0.99976422       0.99825586 </v>
    <v>       0.00550382       0.49995372       0.99803647 </v>
    <v>       0.00550351       0.99995333       0.49803481 </v>
    <v>       0.14407618       0.87863759       0.60401586 </v>
    <v>       0.10796742       0.12908079       0.36336434 </v>
    <v>       0.87661901       0.86412194       0.39512711 </v>
    <v>       0.88536661       0.11110745       0.63439824 </v>
    <v>       0.88536916       0.61110854       0.13439969 </v>
    <v>       0.87661647       0.36412096       0.89512954 </v>
    <v>       0.10796566       0.62908079       0.86336304 </v>
    <v>       0.14407581       0.37863872       0.10401581 </v>
    <v>       0.64414700       0.10571689       0.87698385 </v>
    <v>       0.60795332       0.86505213       0.12740195 </v>
    <v>       0.38539570       0.13608991       0.10944899 </v>
    <v>       0.37664383       0.89682602       0.86245926 </v>
    <v>       0.64414740       0.60571585       0.37698491 </v>
    <v>       0.60794968       0.36504993       0.62740241 </v>
    <v>       0.38539466       0.63608936       0.60944906 </v>
    <v>       0.37664192       0.39682628       0.36245945 </v>
    <v>       0.75292374       0.74374639       0.75358204 </v>
    <v>       0.75292422       0.24374720       0.25358364 </v>
    <v>       0.25293444       0.75520428       0.24210646 </v>
    <v>       0.25293263       0.25520306       0.74210892 </v>
    <v>       0.00102410       0.96787509       0.00401488 </v>
    <v>       0.00102311       0.46787321       0.50401772 </v>
    <v>       0.50090753       0.00561475       0.46621021 </v>
    <v>       0.50090741       0.50561644       0.96621091 </v>
   </varray>
  </structure>
  <varray name="forces" >
   <v>      -0.00046346       0.00215471      -0.00065468 </v>
   <v>      -0.00046346       0.00215471      -0.00065468 </v>
   <v>      -0.00003254       0.00081457       0.00054819 </v>
   <v>      -0.00003254       0.00081457       0.00054819 </v>
   <v>       0.00029935      -0.00105476      -0.00006459 </v>
   <v>      -0.00051744      -0.00090061      -0.00034102 </v>
   <v>       0.00060510      -0.00012543       0.00020554 </v>
   <v>       0.00044236      -0.00021745       0.00031332 </v>
   <v>       0.00022821       0.00038110      -0.00019288 </v>
   <v>       0.00043677       0.00013139      -0.00012821 </v>
   <v>       0.00007506      -0.00013108      -0.00112585 </v>
   <v>      -0.00062629      -0.00021695      -0.00087354 </v>
   <v>       0.00029935      -0.00105476      -0.00006459 </v>
   <v>      -0.00051744      -0.00090061      -0.00034102 </v>
   <v>       0.00060510      -0.00012543       0.00020554 </v>
   <v>       0.00044236      -0.00021745       0.00031332 </v>
   <v>       0.00022821       0.00038110      -0.00019288 </v>
   <v>       0.00043677       0.00013139      -0.00012821 </v>
   <v>       0.00007506      -0.00013108      -0.00112585 </v>
   <v>      -0.00062629      -0.00021695      -0.00087354 </v>
   <v>      -0.00032907      -0.00073907       0.00199061 </v>
   <v>      -0.00032907      -0.00073907       0.00199061 </v>
   <v>       0.00009836       0.00042138       0.00077159 </v>
   <v>       0.00009836       0.00042138       0.00077159 </v>
   <v>       0.00066694      -0.00009808       0.00003902 </v>
   <v>       0.00066694      -0.00009808       0.00003902 </v>
   <v>      -0.00004461       0.00011694      -0.00020056 </v>
   <v>      -0.00004461       0.00011694      -0.00020056 </v>
   <v>       0.00069210      -0.00029901      -0.00052592 </v>
   <v>      -0.00061302       0.00030680      -0.00118410 </v>
   <v>      -0.00079412      -0.00002712       0.00017700 </v>
   <v>       0.00043213       0.00010819       0.00074896 </v>
   <v>       0.00043213       0.00010819       0.00074896 </v>
   <v>      -0.00079412      -0.00002712       0.00017700 </v>
   <v>      -0.00061302       0.00030680      -0.00118410 </v>
   <v>       0.00069210      -0.00029901      -0.00052592 </v>
   <v>       0.00036289      -0.00077022      -0.00001846 </v>
   <v>      -0.00059372      -0.00098089       0.00013529 </v>
   <v>       0.00032259       0.00088602       0.00019564 </v>
   <v>      -0.00098607      -0.00010765      -0.00040142 </v>
   <v>       0.00036289      -0.00077022      -0.00001846 </v>
   <v>      -0.00059372      -0.00098089       0.00013529 </v>
   <v>       0.00032259       0.00088602       0.00019564 </v>
   <v>      -0.00098607      -0.00010765      -0.00040142 </v>
   <v>       0.00003135      -0.00000078       0.00005203 </v>
   <v>       0.00003135      -0.00000078       0.00005203 </v>
   <v>       0.00001385       0.00005975      -0.00004952 </v>
   <v>       0.00001385       0.00005975      -0.00004952 </v>
   <v>       0.00019661       0.00037973       0.00024001 </v>
   <v>       0.00019661       0.00037973       0.00024001 </v>
   <v>       0.00009669      -0.00009148       0.00034356 </v>
   <v>       0.00009669      -0.00009148       0.00034356 </v>
  </varray>
  <varray name="stress" >
   <v>       4.40214922      -3.97371709      -4.00119089 </v>
   <v>      -3.97371637      -2.18866108       1.95401399 </v>
   <v>      -4.00119023       1.95401412      -2.24866357 </v>
  </varray>
  <energy>
   <i name="e_fr_energy">   -272.55395711 </i>
   <i name="e_wo_entrp">   -272.55395711 </i>
   <i name="e_0_energy">   -272.55395711 </i>
  </energy>
  <time name="totalsc">    7.56    7.63</time>
 </calculation>
 <calculation>
  <scstep>
[...]
       <r>     8.0186    12.8260   143.9912 </r>
       <r>     8.2112    14.6903   146.8216 </r>
       <r>     8.4038    11.1604   148.9739 </r>
       <r>     8.5964    15.9623   152.0526 </r>
       <r>     8.7890    12.0129   154.3663 </r>
       <r>     8.9816    20.5344   158.3214 </r>
       <r>     9.1742    15.1536   161.2413 </r>
       <r>     9.3668    22.1601   165.5095 </r>
       <r>     9.5594    17.1929   168.8232 </r>
       <r>     9.7520    16.0685   171.9203 </r>
       <r>     9.9446    17.3358   175.2594 </r>
       <r>    10.1372     3.8368   176.0000 </r>
       <r>    10.3298     0.0000   176.0000 </r>
       <r>    10.5225     0.0000   176.0000 </r>
       <r>    10.7151     0.0000   176.0000 </r>
       <r>    10.9077     0.0000   176.0000 </r>
       <r>    11.1003     0.0000   176.0000 </r>
       <r>    11.2929     0.0000   176.0000 </r>
       <r>    11.4855     0.0000   176.0000 </r>
       <r>    11.6781     0.0000   176.0000 </r>
       <r>    11.8707     0.0000   176.0000 </r>
       <r>    12.0633     0.0000   176.0000 </r>
       <r>    12.2559     0.0000   176.0000 </r>
       <r>    12.4485     0.0000   176.0000 </r>
       <r>    12.6411     0.0000   176.0000 </r>
      </set>
      <set comment="spin 2">
       <r>   -45.1410     0.0000     0.0000 </r>
       <r>   -44.9484     0.0000     0.0000 </r>
       <r>   -44.7558     0.0000     0.0000 </r>
       <r>   -44.5632     0.0000     0.0000 </r>
       <r>   -44.3706     0.0000     0.0000 </r>
       <r>   -44.1780     0.0000     0.0000 </r>
       <r>   -43.9854     0.0000     0.0000 </r>
       <r>   -43.7927     0.0000     0.0000 </r>
       <r>   -43.6001     0.0000     0.0000 </r>
       <r>   -43.4075     0.0000     0.0000 </r>
       <r>   -43.2149     0.0000     0.0000 </r>
       <r>   -43.0223     0.0000     0.0000 </r>
       <r>   -42.8297     0.0000     0.0000 </r>
       <r>   -42.6371     0.0000     0.0000 </r>
       <r>   -42.4445    20.7611     3.9987 </r>
       <r>   -42.2519    59.1934    15.4019 </r>
       <r>   -42.0593    44.6383    24.0000 </r>
       <r>   -41.8667     0.0000    24.0000 </r>
       <r>   -41.6741     0.0000    24.0000 </r>
       <r>   -41.4815     0.0000    24.0000 </r>
       <r>   -41.2889     0.0000    24.0000 </r>
       <r>   -41.0962     0.0000    24.0000 </r>
       <r>   -40.9036     0.0000    24.0000 </r>
       <r>   -40.7110     0.0000    24.0000 </r>
       <r>   -40.5184     0.0000    24.0000 </r>
       <r>   -40.3258     0.0000    24.0000 </r>
       <r>   -40.1332     0.0000    24.0000 </r>
       <r>   -39.9406     0.0000    24.0000 </r>
       <r>   -39.7480     0.0000    24.0000 </r>
       <r>   -39.5554     0.0000    24.0000 </r>
       <r>   -39.3628     0.0000    24.0000 </r>
       <r>   -39.1702     0.0000    24.0000 </r>
       <r>   -38.9776     0.0000    24.0000 </r>
       <r>   -38.7850     0.0000    24.0000 </r>
       <r>   -38.5924     0.0000    24.0000 </r>
       <r>   -38.3997     0.0000    24.0000 </r>
       <r>   -38.2071     0.0000    24.0000 </r>
       <r>   -38.0145     0.0000    24.0000 </r>
       <r>   -37.8219     0.0000    24.0000 </r>
       <r>   -37.6293     0.0000    24.0000 </r>
       <r>   -37.4367     0.0000    24.0000 </r>
       <r>   -37.2441     0.0000    24.0000 </r>
       <r>   -37.0515     0.0000    24.0000 </r>
       <r>   -36.8589     0.0000    24.0000 </r>
       <r>   -36.6663     0.0000    24.0000 </r>
       <r>   -36.4737     0.0000    24.0000 </r>
       <r>   -36.2811     0.0000    24.0000 </r>
       <r>   -36.0885     0.0000    24.0000 </r>
       <r>   -35.8959     0.0000    24.0000 </r>
       <r>   -35.7033     0.0000    24.0000 </r>
       <r>   -35.5106     0.0000    24.0000 </r>
       <r>   -35.3180     0.0000    24.0000 </r>
       <r>   -35.1254     0.0000    24.0000 </r>
       <r>   -34.9328     0.0000    24.0000 </r>
       <r>   -34.7402     0.0000    24.0000 </r>
       <r>   -34.5476     0.0000    24.0000 </r>
       <r>   -34.3550     0.0000    24.0000 </r>
       <r>   -34.1624     0.0000    24.0000 </r>
       <r>   -33.9698     0.0000    24.0000 </r>
       <r>   -33.7772     0.0000    24.0000 </r>
       <r>   -33.5846     0.0000    24.0000 </r>
       <r>   -33.3920     0.0000    24.0000 </r>
       <r>   -33.1994     0.0000    24.0000 </r>
       <r>   -33.0068     0.0000    24.0000 </r>
       <r>   -32.8141     0.0000    24.0000 </r>
       <r>   -32.6215     0.0000    24.0000 </r>
       <r>   -32.4289     0.0000    24.0000 </r>
       <r>   -32.2363     0.0000    24.0000 </r>
       <r>   -32.0437     0.0000    24.0000 </r>
       <r>   -31.8511     0.0000    24.0000 </r>
       <r>   -31.6585     0.0000    24.0000 </r>
       <r>   -31.4659     0.0000    24.0000 </r>
       <r>   -31.2733     0.0000    24.0000 </r>
       <r>   -31.0807     0.0000    24.0000 </r>
       <r>   -30.8881     0.0000    24.0000 </r>
       <r>   -30.6955     0.0000    24.0000 </r>
       <r>   -30.5029     0.0000    24.0000 </r>
       <r>   -30.3103     0.0000    24.0000 </r>
       <r>   -30.1176     0.0000    24.0000 </r>
       <r>   -29.9250     0.0000    24.0000 </r>
       <r>   -29.7324     0.0000    24.0000 </r>
       <r>   -29.5398     0.0000    24.0000 </r>
       <r>   -29.3472     0.0000    24.0000 </r>
       <r>   -29.1546     0.0000    24.0000 </r>
       <r>   -28.9620     0.0000    24.0000 </r>
       <r>   -28.7694     0.0000    24.0000 </r>
       <r>   -28.5768     0.0000    24.0000 </r>
       <r>   -28.3842     0.0000    24.0000 </r>
       <r>   -28.1916     0.0000    24.0000 </r>
       <r>   -27.9990     0.0000    24.0000 </r>
       <r>   -27.8064     0.0000    24.0000 </r>
       <r>   -27.6138     0.0000    24.0000 </r>
       <r>   -27.4211     0.0000    24.0000 </r>
       <r>   -27.2285     0.0000    24.0000 </r>
       <r>   -27.0359     0.0000    24.0000 </r>
       <r>   -26.8433     0.0000    24.0000 </r>
       <r>   -26.6507     0.0000    24.0000 </r>
       <r>   -26.4581     0.0000    24.0000 </r>
       <r>   -26.2655     0.0000    24.0000 </r>
       <r>   -26.0729     0.0000    24.0000 </r>
       <r>   -25.8803     0.0000    24.0000 </r>
       <r>   -25.6877     0.0000    24.0000 </r>
       <r>   -25.4951     0.0000    24.0000 </r>
       <r>   -25.3025     0.0000    24.0000 </r>
       <r>   -25.1099     0.0000    24.0000 </r>
       <r>   -24.9173     0.0000    24.0000 </r>
       <r>   -24.7246     0.0000    24.0000 </r>
       <r>   -24.5320     0.0000    24.0000 </r>
       <r>   -24.3394     0.0000    24.0000 </r>
       <r>   -24.1468     0.0000    24.0000 </r>
       <r>   -23.9542     0.0000    24.0000 </r>
       <r>   -23.7616     0.0000    24.0000 </r>
       <r>   -23.5690     0.0000    24.0000 </r>
       <r>   -23.3764     0.0000    24.0000 </r>
       <r>   -23.1838     0.0000    24.0000 </r>
       <r>   -22.9912     0.0000    24.0000 </r>
       <r>   -22.7986     0.0000    24.0000 </r>
       <r>   -22.6060     0.0000    24.0000 </r>
       <r>   -22.4134     0.0000    24.0000 </r>
       <r>   -22.2208     0.0000    24.0000 </r>
       <r>   -22.0281     0.0000    24.0000 </r>
       <r>   -21.8355     0.0000    24.0000 </r>
       <r>   -21.6429     0.0000    24.0000 </r>
       <r>   -21.4503     0.0000    24.0000 </r>
       <r>   -21.2577     0.0000    24.0000 </r>
       <r>   -21.0651     0.0000    24.0000 </r>
       <r>   -20.8725     0.0000    24.0000 </r>
       <r>   -20.6799     0.0000    24.0000 </r>
       <r>   -20.4873     0.0000    24.0000 </r>
       <r>   -20.2947     0.0000    24.0000 </r>
       <r>   -20.1021     0.0000    24.0000 </r>
       <r>   -19.9095     0.0000    24.0000 </r>
       <r>   -19.7169     0.0000    24.0000 </r>
       <r>   -19.5243     0.0000    24.0000 </r>
       <r>   -19.3316     0.0000    24.0000 </r>
       <r>   -19.1390     0.0000    24.0000 </r>
       <r>   -18.9464     0.0000    24.0000 </r>
       <r>   -18.7538     0.0000    24.0000 </r>
       <r>   -18.5612     0.0000    24.0000 </r>
       <r>   -18.3686     0.0000    24.0000 </r>
       <r>   -18.1760     0.0000    24.0000 </r>
       <r>   -17.9834     0.0000    24.0000 </r>
       <r>   -17.7908     0.0000    24.0000 </r>
       <r>   -17.5982     0.0000    24.0000 </r>
       <r>   -17.4056     0.0000    24.0000 </r>
       <r>   -17.2130     0.0000    24.0000 </r>
       <r>   -17.0204     0.0000    24.0000 </r>
       <r>   -16.8278     0.0000    24.0000 </r>
       <r>   -16.6351     0.0000    24.0000 </r>
       <r>   -16.4425     0.0000    24.0000 </r>
       <r>   -16.2499     0.0000    24.0000 </r>
       <r>   -16.0573     0.0000    24.0000 </r>
       <r>   -15.8647     0.0000    24.0000 </r>
       <r>   -15.6721     0.0000    24.0000 </r>
       <r>   -15.4795     0.0000    24.0000 </r>
       <r>   -15.2869     0.0000    24.0000 </r>
       <r>   -15.0943     0.0000    24.0000 </r>
       <r>   -14.9017     0.0000    24.0000 </r>
       <r>   -14.7091     0.0000    24.0000 </r>
       <r>   -14.5165     0.0000    24.0000 </r>
       <r>   -14.3239     0.0000    24.0000 </r>
       <r>   -14.1313     0.0000    24.0000 </r>
       <r>   -13.9386     0.0000    24.0000 </r>
       <r>   -13.7460     0.0000    24.0000 </r>
       <r>   -13.5534     0.0000    24.0000 </r>
       <r>   -13.3608     0.0000    24.0000 </r>
       <r>   -13.1682     0.0000    24.0000 </r>
       <r>   -12.9756     1.6073    24.3096 </r>
       <r>   -12.7830    19.1604    28.0000 </r>
       <r>   -12.5904    17.3882    31.3491 </r>
       <r>   -12.3978     3.3795    32.0000 </r>
       <r>   -12.2052     0.0000    32.0000 </r>
       <r>   -12.0126     0.0000    32.0000 </r>
       <r>   -11.8200     0.0000    32.0000 </r>
       <r>   -11.6274     0.0000    32.0000 </r>
       <r>   -11.4348     0.0000    32.0000 </r>
       <r>   -11.2422     0.0000    32.0000 </r>
       <r>   -11.0495     0.0000    32.0000 </r>
       <r>   -10.8569     0.0000    32.0000 </r>
       <r>   -10.6643     0.0000    32.0000 </r>
       <r>   -10.4717     0.0000    32.0000 </r>
       <r>   -10.2791     0.0008    32.0002 </r>
       <r>   -10.0865    15.6764    35.0195 </r>
       <r>    -9.8939    25.7413    39.9778 </r>
       <r>    -9.7013    20.8654    44.0000 </r>
       <r>    -9.5087     0.0000    44.0000 </r>
       <r>    -9.3161     0.0000    44.0000 </r>
       <r>    -9.1235     0.0000    44.0000 </r>
       <r>    -8.9309     0.0000    44.0000 </r>
       <r>    -8.7383     0.0000    44.0000 </r>
       <r>    -8.5457     0.0000    44.0000 </r>
       <r>    -8.3530     0.0000    44.0000 </r>
       <r>    -8.1604    20.7326    47.9932 </r>
       <r>    -7.9678     0.0000    48.0000 </r>
       <r>    -7.7752     0.0000    48.0000 </r>
       <r>    -7.5826     0.0000    48.0000 </r>
       <r>    -7.3900     0.0000    48.0000 </r>
       <r>    -7.1974     0.0000    48.0000 </r>
       <r>    -7.0048     0.0000    48.0000 </r>
       <r>    -6.8122     0.0000    48.0000 </r>
       <r>    -6.6196     0.0000    48.0000 </r>
       <r>    -6.4270     0.0000    48.0000 </r>
       <r>    -6.2344     0.0000    48.0000 </r>
       <r>    -6.0418     3.7896    48.7299 </r>
       <r>    -5.8492     1.4023    49.0000 </r>
       <r>    -5.6565     1.4335    49.2761 </r>
       <r>    -5.4639    14.1195    51.9956 </r>
       <r>    -5.2713     0.0193    52.0000 </r>
       <r>    -5.0787     0.0000    52.0000 </r>
       <r>    -4.8861     0.0000    52.0000 </r>
       <r>    -4.6935     0.0000    52.0000 </r>
       <r>    -4.5009     0.0000    52.0000 </r>
       <r>    -4.3083     0.0000    52.0000 </r>
       <r>    -4.1157     0.0000    52.0000 </r>
       <r>    -3.9231     0.0000    52.0000 </r>
       <r>    -3.7305     0.0000    52.0000 </r>
       <r>    -3.5379     0.0000    52.0000 </r>
       <r>    -3.3453     0.0000    52.0000 </r>
       <r>    -3.1527     3.6183    52.6969 </r>
       <r>    -2.9600    11.9574    55.0000 </r>
       <r>    -2.7674     3.7999    55.7319 </r>
       <r>    -2.5748    11.4935    57.9456 </r>
       <r>    -2.3822    11.6502    60.1960 </r>
       <r>    -2.1896    18.1708    63.6983 </r>
       <r>    -1.9970     1.5509    64.0000 </r>
       <r>    -1.8044     0.0000    64.0000 </r>
       <r>    -1.6118     0.0001    64.0000 </r>
       <r>    -1.4192    20.7098    67.9889 </r>
       <r>    -1.2266    20.7574    71.9929 </r>
       <r>    -1.0340    20.7510    75.9968 </r>
       <r>    -0.8414     0.0000    76.0000 </r>
       <r>    -0.6488     0.0000    76.0000 </r>
       <r>    -0.4562    10.3990    78.0029 </r>
       <r>    -0.2635    10.3470    79.9980 </r>
       <r>    -0.0709    11.5198    82.2168 </r>
       <r>     0.1217    26.8324    87.3849 </r>
       <r>     0.3143    25.5092    92.3002 </r>
       <r>     0.5069    19.1055    95.9859 </r>
       <r>     0.6995     0.0564    96.0000 </r>
       <r>     0.8921     8.0369    97.5480 </r>
       <r>     1.0847    22.3838   101.8593 </r>
       <r>     1.2773    21.0805   105.9226 </r>
       <r>     1.4699    27.5150   111.2258 </r>
       <r>     1.6625    28.2903   116.6773 </r>
       <r>     1.8551    17.1000   119.9749 </r>
       <r>     2.0477     0.1206   120.0000 </r>
       <r>     2.2403     0.0000   120.0000 </r>
       <r>     2.4330     0.0000   120.0000 </r>
       <r>     2.6256     0.0000   120.0000 </r>
       <r>     2.8182     0.0000   120.0000 </r>
       <r>     3.0108     0.0000   120.0000 </r>
       <r>     3.2034     0.0000   120.0000 </r>
       <r>     3.3960     0.0000   120.0000 </r>
       <r>     3.5886     0.0000   120.0000 </r>
       <r>     3.7812     0.0000   120.0000 </r>
       <r>     3.9738     0.0000   120.0000 </r>
       <r>     4.1664     0.0000   120.0000 </r>
       <r>     4.3590     0.0000   120.0000 </r>
       <r>     4.5516     4.9549   120.9544 </r>
       <r>     4.7442     0.2370   121.0000 </r>
       <r>     4.9368     0.0000   121.0000 </r>
       <r>     5.1295     0.0000   121.0000 </r>
       <r>     5.3221     1.9412   121.3739 </r>
       <r>     5.5147    13.6344   124.0000 </r>
       <r>     5.7073     0.0000   124.0000 </r>
       <r>     5.8999     0.0000   124.0000 </r>
       <r>     6.0925     8.4740   125.6322 </r>
       <r>     6.2851    18.6901   129.2328 </r>
       <r>     6.4777     4.2304   130.0477 </r>
       <r>     6.6703    11.2413   132.2129 </r>
       <r>     6.8629     4.8351   133.1466 </r>
       <r>     7.0555    14.8147   136.0000 </r>
       <r>     7.2481     4.2827   136.8249 </r>
       <r>     7.4407     3.3075   137.4640 </r>
       <r>     7.6333     8.5504   139.1108 </r>
       <r>     7.8260    12.4929   141.5191 </r>
       <r>     8.0186    12.8260   143.9912 </r>
       <r>     8.2112    14.6903   146.8216 </r>
       <r>     8.4038    11.1604   148.9739 </r>
       <r>     8.5964    15.9623   152.0526 </r>
       <r>     8.7890    12.0129   154.3663 </r>
       <r>     8.9816    20.5344   158.3214 </r>
       <r>     9.1742    15.1537   161.2413 </r>
       <r>     9.3668    22.1599   165.5094 </r>
       <r>     9.5594    17.1885   168.8223 </r>
       <r>     9.7520    16.0217   171.9105 </r>
       <r>     9.9446    17.5479   175.2904 </r>
       <r>    10.1372     3.6701   176.0000 </r>
       <r>    10.3298     0.0000   176.0000 </r>
       <r>    10.5225     0.0000   176.0000 </r>
       <r>    10.7151     0.0000   176.0000 </r>
       <r>    10.9077     0.0000   176.0000 </r>
       <r>    11.1003     0.0000   176.0000 </r>
       <r>    11.2929     0.0000   176.0000 </r>
       <r>    11.4855     0.0000   176.0000 </r>
       <r>    11.6781     0.0000   176.0000 </r>
       <r>    11.8707     0.0000   176.0000 </r>
       <r>    12.0633     0.0000   176.0000 </r>
       <r>    12.2559     0.0000   176.0000 </r>
       <r>    12.4485     0.0000   176.0000 </r>
       <r>    12.6411     0.0000   176.0000 </r>
      </set>
     </set>
    </array>
   </total>
  </dos>
 </calculation>
 <structure name="finalpos" >
  <crystal>
   <varray name="basis" >
    <v>       9.63671177       0.00000000       0.00000000 </v>
    <v>       0.00000000       9.63671177       0.00000000 </v>
    <v>       0.00000000       0.00000000       9.63671177 </v>
   </varray>
   <i name="volume">    894.92493391 </i>
   <varray name="rec_basis" >
    <v>       0.10376984       0.00000000       0.00000000 </v>
    <v>       0.00000000       0.10376984       0.00000000 </v>
    <v>       0.00000000       0.00000000       0.10376984 </v>
   </varray>
  </crystal>
  <varray name="positions" >
   <v>       0.97631000       0.33965565       0.28274730 </v>
   <v>       0.97630814       0.83965821       0.78274577 </v>
   <v>       0.02126152       0.30986647       0.70891938 </v>
   <v>       0.02126377       0.80987079       0.20891547 </v>
   <v>       0.18020113       0.16708115       0.95799065 </v>
   <v>       0.21127357       0.80347936       0.01120658 </v>
   <v>       0.82934775       0.16041118       0.03940968 </v>
   <v>       0.79223439       0.79186429       0.98574392 </v>
   <v>       0.29226290       0.98737523       0.29021789 </v>
   <v>       0.32927206       0.04101602       0.65875392 </v>
   <v>       0.68018411       0.95961471       0.66546978 </v>
   <v>       0.71120994       0.01284236       0.30185373 </v>
   <v>       0.18020259       0.66708236       0.45798783 </v>
   <v>       0.21127219       0.30348095       0.51120931 </v>
   <v>       0.82935000       0.66041267       0.53940795 </v>
   <v>       0.79223446       0.29186879       0.48574522 </v>
   <v>       0.29226048       0.48737473       0.79021709 </v>
   <v>       0.32927284       0.54101591       0.15875372 </v>
   <v>       0.68018715       0.45961564       0.16546967 </v>
   <v>       0.71121040       0.51284083       0.80184989 </v>
   <v>       0.47630910       0.28438178       0.83798078 </v>
   <v>       0.47631205       0.78438132       0.33797502 </v>
   <v>       0.52123529       0.21057289       0.30826939 </v>
   <v>       0.52123512       0.71057146       0.80826851 </v>
   <v>       0.50553888       0.49976338       0.49825636 </v>
   <v>       0.50553962       0.99976354       0.99825584 </v>
   <v>       0.00550394       0.49995402       0.99803584 </v>
   <v>       0.00550362       0.99995363       0.49803417 </v>
   <v>       0.14407865       0.87863659       0.60401411 </v>
   <v>       0.10796541       0.12908195       0.36336034 </v>
   <v>       0.87661628       0.86412180       0.39512770 </v>
   <v>       0.88536811       0.11110793       0.63440086 </v>
   <v>       0.88537067       0.61110902       0.13440231 </v>
   <v>       0.87661374       0.36412082       0.89513014 </v>
   <v>       0.10796365       0.62908195       0.86335904 </v>
   <v>       0.14407829       0.37863771       0.10401406 </v>
   <v>       0.64414835       0.10571424       0.87698393 </v>
   <v>       0.60795148       0.86504887       0.12740250 </v>
   <v>       0.38539692       0.13609309       0.10944979 </v>
   <v>       0.37664044       0.89682559       0.86245769 </v>
   <v>       0.64414875       0.60571320       0.37698499 </v>
   <v>       0.60794784       0.36504668       0.62740296 </v>
   <v>       0.38539588       0.63609253       0.60944987 </v>
   <v>       0.37663853       0.39682585       0.36245788 </v>
   <v>       0.75292391       0.74374639       0.75358222 </v>
   <v>       0.75292439       0.24374720       0.25358382 </v>
   <v>       0.25293455       0.75520449       0.24210629 </v>
   <v>       0.25293274       0.25520327       0.74210875 </v>
   <v>       0.00102473       0.96787615       0.00401558 </v>
   <v>       0.00102374       0.46787427       0.50401842 </v>
   <v>       0.50090787       0.00561456       0.46621115 </v>
   <v>       0.50090775       0.50561625       0.96621185 </v>
  </varray>
 </structure>
</modeling>
