unknown system                          
           1
     9.636712    0.000000    0.000000
     0.000000    9.636712    0.000000
     0.000000    0.000000    9.636712
   Li   P    S    Cl
    24     4    20     4
Direct configuration=     1
   0.97631274  0.33964165  0.28275171
   0.97631088  0.83964421  0.78275018
   0.02126173  0.30986149  0.70891590
   0.02126399  0.80986581  0.20891198
   0.18019884  0.16708776  0.95799098
   0.21127662  0.80348512  0.01120897
   0.82934411  0.16041177  0.03940858
   0.79223164  0.79186565  0.98574178
   0.29226147  0.98737269  0.29021910
   0.32926953  0.04101539  0.65875453
   0.68018339  0.95961549  0.66547692
   0.71121380  0.01284392  0.30185936
   0.18020029  0.66708898  0.45798816
   0.21127524  0.30348672  0.51121170
   0.82934636  0.66041326  0.53940685
   0.79223171  0.29187014  0.48574308
   0.29225906  0.48737218  0.79021830
   0.32927031  0.54101529  0.15875432
   0.68018643  0.45961642  0.16547680
   0.71121426  0.51284239  0.80185552
   0.47631123  0.28438664  0.83796783
   0.47631418  0.78438619  0.33796207
   0.52123494  0.21057016  0.30826484
   0.52123477  0.71056872  0.80826396
   0.50554292  0.49976603  0.49825711
   0.50554365  0.99976619  0.99825659
   0.00550319  0.49995420  0.99803642
   0.00550288  0.99995381  0.49803475
   0.14406789  0.87864293  0.60401473
   0.10796654  0.12907446  0.36337463
   0.87662722  0.86412719  0.39513024
   0.88536915  0.11110282  0.63438993
   0.88537170  0.61110391  0.13439137
   0.87662467  0.36412621  0.89513268
   0.10796478  0.62907446  0.86337333
   0.14406752  0.37864405  0.10401468
   0.64413740  0.10571508  0.87698945
   0.60795086  0.86506209  0.12739579
   0.38539727  0.13608143  0.10944450
   0.37665074  0.89682908  0.86246490
   0.64413781  0.60571404  0.37699051
   0.60794722  0.36505990  0.62739624
   0.38539623  0.63608087  0.60944457
   0.37664883  0.39682933  0.36246509
   0.75292312  0.74374622  0.75358260
   0.75292360  0.24374704  0.25358421
   0.25293398  0.75520481  0.24210648
   0.25293217  0.25520359  0.74210894
   0.00102355  0.96787086  0.00401413
   0.00102256  0.46786899  0.50401698
   0.50090743  0.00561519  0.46620596
   0.50090731  0.50561687  0.96620666
Direct configuration=     2
   0.97631214  0.33964476  0.28275066
   0.97631028  0.83964733  0.78274914
   0.02126165  0.30986257  0.70891668
   0.02126391  0.80986689  0.20891277
   0.18019941  0.16708626  0.95799092
   0.21127597  0.80348381  0.01120837
   0.82934495  0.16041165  0.03940878
   0.79223228  0.79186529  0.98574231
   0.29226179  0.98737330  0.29021878
   0.32927008  0.04101545  0.65875442
   0.68018357  0.95961530  0.66547528
   0.71121294  0.01284352  0.30185807
   0.18020086  0.66708748  0.45798810
   0.21127458  0.30348541  0.51121110
   0.82934719  0.66041314  0.53940706
   0.79223235  0.29186979  0.48574360
   0.29225938  0.48737280  0.79021798
   0.32927086  0.54101535  0.15875421
   0.68018661  0.45961623  0.16547517
   0.71121339  0.51284199  0.80185423
   0.47631070  0.28438552  0.83797074
   0.47631365  0.78438506  0.33796498
   0.52123492  0.21057080  0.30826580
   0.52123475  0.71056937  0.80826492
   0.50554086  0.49976526  0.49825682
   0.50554159  0.99976542  0.99825630
   0.00550344  0.49995401  0.99803644
   0.00550313  0.99995362  0.49803477
   0.14407114  0.87864084  0.60401518
   0.10796689  0.12907694  0.36337060
   0.87662400  0.86412514  0.39512901
   0.88536815  0.11110463  0.63439318
   0.88537071  0.61110572  0.13439463
   0.87662146  0.36412415  0.89513145
   0.10796513  0.62907694  0.86336930
   0.14407077  0.37864197  0.10401512
   0.64414116  0.10571579  0.87698726
   0.60795182  0.86505819  0.12739820
   0.38539665  0.13608475  0.10944625
   0.37664803  0.89682788  0.86246269
   0.64414157  0.60571475  0.37698832
   0.60794818  0.36505600  0.62739866
   0.38539562  0.63608420  0.60944633
   0.37664612  0.39682814  0.36246288
   0.75292337  0.74374629  0.75358238
   0.75292385  0.24374710  0.25358399
   0.25293416  0.75520460  0.24210647
   0.25293235  0.25520338  0.74210893
   0.00102376  0.96787252  0.00401443
   0.00102278  0.46787064  0.50401727
   0.50090747  0.00561502  0.46620763
   0.50090735  0.50561670  0.96620833
Direct configuration=     3
   0.97631171  0.33964701  0.28274991
   0.97630985  0.83964958  0.78274838
   0.02126159  0.30986335  0.70891725
   0.02126385  0.80986767  0.20891334
   0.18019983  0.16708518  0.95799088
   0.21127550  0.80348287  0.01120794
   0.82934555  0.16041156  0.03940893
   0.79223274  0.79186504  0.98574269
   0.29226203  0.98737375  0.29021855
   0.32927048  0.04101550  0.65875433
   0.68018370  0.95961517  0.66547411
   0.71121231  0.01284323  0.30185714
   0.18020128  0.66708640  0.45798806
   0.21127412  0.30348446  0.51121067
   0.82934780  0.66041306  0.53940720
   0.79223281  0.29186953  0.48574398
   0.29225961  0.48737325  0.79021775
   0.32927126  0.54101540  0.15875413
   0.68018674  0.45961610  0.16547399
   0.71121276  0.51284170  0.80185330
   0.47631031  0.28438470  0.83797284
   0.47631326  0.78438425  0.33796708
   0.52123490  0.21057127  0.30826650
   0.52123473  0.71056984  0.80826561
   0.50553938  0.49976471  0.49825662
   0.50554011  0.99976486  0.99825610
   0.00550362  0.49995387  0.99803645
   0.00550330  0.99995349  0.49803479
   0.14407348  0.87863933  0.60401550
   0.10796714  0.12907873  0.36336769
   0.87662168  0.86412365  0.39512813
   0.88536744  0.11110594  0.63439553
   0.88536999  0.61110703  0.13439698
   0.87661914  0.36412267  0.89513057
   0.10796537  0.62907873  0.86336639
   0.14407311  0.37864046  0.10401544
   0.64414387  0.10571630  0.87698567
   0.60795252  0.86505537  0.12739994
   0.38539621  0.13608715  0.10944752
   0.37664608  0.89682702  0.86246109
   0.64414428  0.60571526  0.37698674
   0.60794888  0.36505318  0.62740040
   0.38539517  0.63608659  0.60944760
   0.37664417  0.39682727  0.36246129
   0.75292354  0.74374633  0.75358222
   0.75292402  0.24374715  0.25358383
   0.25293429  0.75520445  0.24210646
   0.25293248  0.25520323  0.74210893
   0.00102392  0.96787372  0.00401464
   0.00102293  0.46787184  0.50401748
   0.50090750  0.00561490  0.46620883
   0.50090738  0.50561658  0.96620953
Direct configuration=     4
   0.97631084  0.33965151  0.28274840
   0.97630899  0.83965407  0.78274688
   0.02126148  0.30986490  0.70891838
   0.02126374  0.80986922  0.20891447
   0.18020065  0.16708302  0.95799080
   0.21127456  0.80348098  0.01120708
   0.82934676  0.16041139  0.03940922
   0.79223366  0.79186452  0.98574344
   0.29226249  0.98737464  0.29021809
   0.32927127  0.04101559  0.65875417
   0.68018396  0.95961491  0.66547176
   0.71121106  0.01284265  0.30185528
   0.18020211  0.66708423  0.45798798
   0.21127318  0.30348257  0.51120980
   0.82934900  0.66041289  0.53940750
   0.79223373  0.29186902  0.48574473
   0.29226008  0.48737414  0.79021729
   0.32927205  0.54101549  0.15875396
   0.68018700  0.45961584  0.16547164
   0.71121151  0.51284112  0.80185144
   0.47630955  0.28438308  0.83797704
   0.47631250  0.78438262  0.33797127
   0.52123486  0.21057221  0.30826788
   0.52123469  0.71057077  0.80826700
   0.50553641  0.49976360  0.49825620
   0.50553714  0.99976375  0.99825568
   0.00550397  0.49995360  0.99803649
   0.00550366  0.99995322  0.49803482
   0.14407816  0.87863632  0.60401613
   0.10796763  0.12908230  0.36336188
   0.87661705  0.86412069  0.39512636
   0.88536600  0.11110856  0.63440023
   0.88536855  0.61110964  0.13440168
   0.87661451  0.36411971  0.89512880
   0.10796587  0.62908230  0.86336058
   0.14407780  0.37863745  0.10401608
   0.64414929  0.10571732  0.87698251
   0.60795391  0.86504975  0.12740342
   0.38539533  0.13609194  0.10945006
   0.37664218  0.89682529  0.86245791
   0.64414969  0.60571628  0.37698357
   0.60795027  0.36504755  0.62740388
   0.38539429  0.63609139  0.60945014
   0.37664027  0.39682555  0.36245810
   0.75292389  0.74374643  0.75358191
   0.75292437  0.24374724  0.25358351
   0.25293455  0.75520416  0.24210645
   0.25293274  0.25520294  0.74210891
   0.00102423  0.96787610  0.00401506
   0.00102325  0.46787423  0.50401790
   0.50090755  0.00561465  0.46621123
   0.50090743  0.50561634  0.96621193
Direct configuration=     5
   0.97631121  0.33964961  0.28274904
   0.97630935  0.83965217  0.78274751
   0.02126153  0.30986424  0.70891790
   0.02126378  0.80986857  0.20891399
   0.18020030  0.16708393  0.95799083
   0.21127496  0.80348178  0.01120744
   0.82934625  0.16041147  0.03940910
   0.79223327  0.79186474  0.98574312
   0.29226229  0.98737426  0.29021828
   0.32927094  0.04101555  0.65875424
   0.68018385  0.95961502  0.66547275
   0.71121159  0.01284290  0.30185607
   0.18020176  0.66708515  0.45798801
   0.21127357  0.30348337  0.51121017
   0.82934849  0.66041296  0.53940737
   0.79223334  0.29186924  0.48574442
   0.29225988  0.48737376  0.79021748
   0.32927172  0.54101545  0.15875403
   0.68018689  0.45961595  0.16547264
   0.71121204  0.51284137  0.80185222
   0.47630987  0.28438377  0.83797526
   0.47631282  0.78438331  0.33796950
   0.52123488  0.21057181  0.30826729
   0.52123471  0.71057038  0.80826641
   0.50553766  0.49976407  0.49825638
   0.50553840  0.99976422  0.99825586
   0.00550382  0.49995372  0.99803647
   0.00550351  0.99995333  0.49803481
   0.14407618  0.87863759  0.60401586
   0.10796742  0.12908079  0.36336434
   0.87661901  0.86412194  0.39512711
   0.88536661  0.11110745  0.63439824
   0.88536916  0.61110854  0.13439969
   0.87661647  0.36412096  0.89512954
   0.10796566  0.62908079  0.86336304
   0.14407581  0.37863872  0.10401581
   0.64414700  0.10571689  0.87698385
   0.60795332  0.86505213  0.12740195
   0.38539570  0.13608991  0.10944899
   0.37664383  0.89682602  0.86245926
   0.64414740  0.60571585  0.37698491
   0.60794968  0.36504993  0.62740241
   0.38539466  0.63608936  0.60944906
   0.37664192  0.39682628  0.36245945
   0.75292374  0.74374639  0.75358204
   0.75292422  0.24374720  0.25358364
   0.25293444  0.75520428  0.24210646
   0.25293263  0.25520306  0.74210892
   0.00102410  0.96787509  0.00401488
   0.00102311  0.46787321  0.50401772
   0.50090753  0.00561475  0.46621021
   0.50090741  0.50561644  0.96621091
Direct configuration=     6
   0.97631096  0.33965092  0.28274860
   0.97630910  0.83965348  0.78274707
   0.02126149  0.30986470  0.70891823
   0.02126375  0.80986902  0.20891432
   0.18020055  0.16708330  0.95799081
   0.21127468  0.80348122  0.01120719
   0.82934660  0.16041142  0.03940919
   0.79223354  0.79186459  0.98574334
   0.29226243  0.98737452  0.29021815
   0.32927117  0.04101558  0.65875419
   0.68018393  0.95961494  0.66547207
   0.71121122  0.01284273  0.30185553
   0.18020200  0.66708452  0.45798799
   0.21127330  0.30348282  0.51120991
   0.82934884  0.66041291  0.53940746
   0.79223361  0.29186909  0.48574464
   0.29226001  0.48737402  0.79021735
   0.32927195  0.54101548  0.15875399
   0.68018696  0.45961587  0.16547195
   0.71121168  0.51284120  0.80185168
   0.47630965  0.28438329  0.83797649
   0.47631260  0.78438284  0.33797072
   0.52123487  0.21057208  0.30826770
   0.52123470  0.71057065  0.80826682
   0.50553680  0.49976375  0.49825626
   0.50553753  0.99976390  0.99825574
   0.00550393  0.49995364  0.99803648
   0.00550361  0.99995325  0.49803481
   0.14407754  0.87863672  0.60401605
   0.10796756  0.12908183  0.36336264
   0.87661766  0.86412108  0.39512659
   0.88536619  0.11110821  0.63439961
   0.88536874  0.61110930  0.13440106
   0.87661512  0.36412010  0.89512903
   0.10796580  0.62908183  0.86336134
   0.14407718  0.37863784  0.10401600
   0.64414858  0.10571719  0.87698292
   0.60795373  0.86505049  0.12740296
   0.38539544  0.13609131  0.10944972
   0.37664270  0.89682552  0.86245833
   0.64414898  0.60571615  0.37698399
   0.60795009  0.36504829  0.62740342
   0.38539441  0.63609076  0.60944980
   0.37664079  0.39682577  0.36245852
   0.75292384  0.74374641  0.75358195
   0.75292432  0.24374723  0.25358355
   0.25293452  0.75520420  0.24210645
   0.25293270  0.25520297  0.74210891
   0.00102419  0.96787579  0.00401500
   0.00102320  0.46787391  0.50401785
   0.50090755  0.00561468  0.46621091
   0.50090742  0.50561637  0.96621161
Direct configuration=     7
   0.97631000  0.33965565  0.28274730
   0.97630814  0.83965821  0.78274577
   0.02126152  0.30986647  0.70891938
   0.02126377  0.80987079  0.20891547
   0.18020113  0.16708115  0.95799065
   0.21127357  0.80347936  0.01120658
   0.82934775  0.16041118  0.03940968
   0.79223439  0.79186429  0.98574392
   0.29226290  0.98737523  0.29021789
   0.32927206  0.04101602  0.65875392
   0.68018411  0.95961471  0.66546978
   0.71120994  0.01284236  0.30185373
   0.18020259  0.66708236  0.45798783
   0.21127219  0.30348095  0.51120931
   0.82935000  0.66041267  0.53940795
   0.79223446  0.29186879  0.48574522
   0.29226048  0.48737473  0.79021709
   0.32927284  0.54101591  0.15875372
   0.68018715  0.45961564  0.16546967
   0.71121040  0.51284083  0.80184989
   0.47630910  0.28438178  0.83798078
   0.47631205  0.78438132  0.33797502
   0.52123529  0.21057289  0.30826939
   0.52123512  0.71057146  0.80826851
   0.50553888  0.49976338  0.49825636
   0.50553962  0.99976354  0.99825584
   0.00550394  0.49995402  0.99803584
   0.00550362  0.99995363  0.49803417
   0.14407865  0.87863659  0.60401411
   0.10796541  0.12908195  0.36336034
   0.87661628  0.86412180  0.39512770
   0.88536811  0.11110793  0.63440086
   0.88537067  0.61110902  0.13440231
   0.87661374  0.36412082  0.89513014
   0.10796365  0.62908195  0.86335904
   0.14407829  0.37863771  0.10401406
   0.64414835  0.10571424  0.87698393
   0.60795148  0.86504887  0.12740250
   0.38539692  0.13609309  0.10944979
   0.37664044  0.89682559  0.86245769
   0.64414875  0.60571320  0.37698499
   0.60794784  0.36504668  0.62740296
   0.38539588  0.63609253  0.60944987
   0.37663853  0.39682585  0.36245788
   0.75292391  0.74374639  0.75358222
   0.75292439  0.24374720  0.25358382
   0.25293455  0.75520449  0.24210629
   0.25293274  0.25520327  0.74210875
   0.00102473  0.96787615  0.00401558
   0.00102374  0.46787427  0.50401842
   0.50090787  0.00561456  0.46621115
   0.50090775  0.50561625  0.96621185
