  52  52   0  16
  0.1843604E+02  0.9860305E-09  0.9860305E-09  0.9860305E-09  0.2000000E-15
  1.000000000000000E-004
  CAR 
 unknown system                          
     11.95701654    -45.49044209  301      1.28136381      1.00000000
    -45.490  0.0000E+00  0.0000E+00  0.0000E+00  0.0000E+00
    -45.299  0.0000E+00  0.0000E+00  0.0000E+00  0.0000E+00
    -45.107  0.0000E+00  0.0000E+00  0.0000E+00  0.0000E+00
    -44.916  0.0000E+00  0.0000E+00  0.0000E+00  0.0000E+00
    -44.724  0.0000E+00  0.0000E+00  0.0000E+00  0.0000E+00
    -44.533  0.0000E+00  0.0000E+00  0.0000E+00  0.0000E+00
    -44.341  0.0000E+00  0.0000E+00  0.0000E+00  0.0000E+00
    -44.150  0.0000E+00  0.0000E+00  0.0000E+00  0.0000E+00
    -43.959  0.0000E+00  0.0000E+00  0.0000E+00  0.0000E+00
    -43.767  0.0000E+00  0.0000E+00  0.0000E+00  0.0000E+00
    -43.576  0.0000E+00  0.0000E+00  0.0000E+00  0.0000E+00
    -43.384  0.0000E+00  0.0000E+00  0.0000E+00  0.0000E+00
    -43.193  0.0000E+00  0.0000E+00  0.0000E+00  0.0000E+00
    -43.001  0.9157E-10  0.9157E-10  0.1753E-10  0.1753E-10
    -42.810  0.7221E-01  0.7221E-01  0.1383E-01  0.1383E-01
    -42.618  0.5308E-01  0.5308E-01  0.2400E-01  0.2400E-01
    -42.427  0.0000E+00  0.0000E+00  0.2400E-01  0.2400E-01
    -42.235  0.0000E+00  0.0000E+00  0.2400E-01  0.2400E-01
    -42.044  0.0000E+00  0.0000E+00  0.2400E-01  0.2400E-01
    -41.852  0.0000E+00  0.0000E+00  0.2400E-01  0.2400E-01
    -41.661  0.0000E+00  0.0000E+00  0.2400E-01  0.2400E-01
    -41.469  0.0000E+00  0.0000E+00  0.2400E-01  0.2400E-01
    -41.278  0.0000E+00  0.0000E+00  0.2400E-01  0.2400E-01
    -41.086  0.0000E+00  0.0000E+00  0.2400E-01  0.2400E-01
    -40.895  0.0000E+00  0.0000E+00  0.2400E-01  0.2400E-01
    -40.703  0.0000E+00  0.0000E+00  0.2400E-01  0.2400E-01
    -40.512  0.0000E+00  0.0000E+00  0.2400E-01  0.2400E-01
    -40.320  0.0000E+00  0.0000E+00  0.2400E-01  0.2400E-01
    -40.129  0.0000E+00  0.0000E+00  0.2400E-01  0.2400E-01
    -39.937  0.0000E+00  0.0000E+00  0.2400E-01  0.2400E-01
    -39.746  0.0000E+00  0.0000E+00  0.2400E-01  0.2400E-01
    -39.554  0.0000E+00  0.0000E+00  0.2400E-01  0.2400E-01
    -39.363  0.0000E+00  0.0000E+00  0.2400E-01  0.2400E-01
    -39.171  0.0000E+00  0.0000E+00  0.2400E-01  0.2400E-01
    -38.980  0.0000E+00  0.0000E+00  0.2400E-01  0.2400E-01
    -38.788  0.0000E+00  0.0000E+00  0.2400E-01  0.2400E-01
    -38.597  0.0000E+00  0.0000E+00  0.2400E-01  0.2400E-01
    -38.405  0.0000E+00  0.0000E+00  0.2400E-01  0.2400E-01
    -38.214  0.0000E+00  0.0000E+00  0.2400E-01  0.2400E-01
    -38.022  0.0000E+00  0.0000E+00  0.2400E-01  0.2400E-01
    -37.831  0.0000E+00  0.0000E+00  0.2400E-01  0.2400E-01
    -37.639  0.0000E+00  0.0000E+00  0.2400E-01  0.2400E-01
    -37.448  0.0000E+00  0.0000E+00  0.2400E-01  0.2400E-01
    -37.256  0.0000E+00  0.0000E+00  0.2400E-01  0.2400E-01
    -37.065  0.0000E+00  0.0000E+00  0.2400E-01  0.2400E-01
    -36.873  0.0000E+00  0.0000E+00  0.2400E-01  0.2400E-01
    -36.682  0.0000E+00  0.0000E+00  0.2400E-01  0.2400E-01
    -36.490  0.0000E+00  0.0000E+00  0.2400E-01  0.2400E-01
    -36.299  0.0000E+00  0.0000E+00  0.2400E-01  0.2400E-01
    -36.107  0.0000E+00  0.0000E+00  0.2400E-01  0.2400E-01
    -35.916  0.0000E+00  0.0000E+00  0.2400E-01  0.2400E-01
    -35.724  0.0000E+00  0.0000E+00  0.2400E-01  0.2400E-01
    -35.533  0.0000E+00  0.0000E+00  0.2400E-01  0.2400E-01
    -35.341  0.0000E+00  0.0000E+00  0.2400E-01  0.2400E-01
    -35.150  0.0000E+00  0.0000E+00  0.2400E-01  0.2400E-01
    -34.958  0.0000E+00  0.0000E+00  0.2400E-01  0.2400E-01
    -34.767  0.0000E+00  0.0000E+00  0.2400E-01  0.2400E-01
    -34.575  0.0000E+00  0.0000E+00  0.2400E-01  0.2400E-01
    -34.384  0.0000E+00  0.0000E+00  0.2400E-01  0.2400E-01
    -34.192  0.0000E+00  0.0000E+00  0.2400E-01  0.2400E-01
    -34.001  0.0000E+00  0.0000E+00  0.2400E-01  0.2400E-01
    -33.809  0.0000E+00  0.0000E+00  0.2400E-01  0.2400E-01
    -33.618  0.0000E+00  0.0000E+00  0.2400E-01  0.2400E-01
    -33.426  0.0000E+00  0.0000E+00  0.2400E-01  0.2400E-01
    -33.235  0.0000E+00  0.0000E+00  0.2400E-01  0.2400E-01
    -33.043  0.0000E+00  0.0000E+00  0.2400E-01  0.2400E-01
    -32.852  0.0000E+00  0.0000E+00  0.2400E-01  0.2400E-01
    -32.661  0.0000E+00  0.0000E+00  0.2400E-01  0.2400E-01
    -32.469  0.0000E+00  0.0000E+00  0.2400E-01  0.2400E-01
    -32.278  0.0000E+00  0.0000E+00  0.2400E-01  0.2400E-01
    -32.086  0.0000E+00  0.0000E+00  0.2400E-01  0.2400E-01
    -31.895  0.0000E+00  0.0000E+00  0.2400E-01  0.2400E-01
    -31.703  0.0000E+00  0.0000E+00  0.2400E-01  0.2400E-01
    -31.512  0.0000E+00  0.0000E+00  0.2400E-01  0.2400E-01
    -31.320  0.0000E+00  0.0000E+00  0.2400E-01  0.2400E-01
    -31.129  0.0000E+00  0.0000E+00  0.2400E-01  0.2400E-01
    -30.937  0.0000E+00  0.0000E+00  0.2400E-01  0.2400E-01
    -30.746  0.0000E+00  0.0000E+00  0.2400E-01  0.2400E-01
    -30.554  0.0000E+00  0.0000E+00  0.2400E-01  0.2400E-01
    -30.363  0.0000E+00  0.0000E+00  0.2400E-01  0.2400E-01
    -30.171  0.0000E+00  0.0000E+00  0.2400E-01  0.2400E-01
    -29.980  0.0000E+00  0.0000E+00  0.2400E-01  0.2400E-01
    -29.788  0.0000E+00  0.0000E+00  0.2400E-01  0.2400E-01
    -29.597  0.0000E+00  0.0000E+00  0.2400E-01  0.2400E-01
    -29.405  0.0000E+00  0.0000E+00  0.2400E-01  0.2400E-01
    -29.214  0.0000E+00  0.0000E+00  0.2400E-01  0.2400E-01
    -29.022  0.0000E+00  0.0000E+00  0.2400E-01  0.2400E-01
    -28.831  0.0000E+00  0.0000E+00  0.2400E-01  0.2400E-01
    -28.639  0.0000E+00  0.0000E+00  0.2400E-01  0.2400E-01
    -28.448  0.0000E+00  0.0000E+00  0.2400E-01  0.2400E-01
    -28.256  0.0000E+00  0.0000E+00  0.2400E-01  0.2400E-01
    -28.065  0.0000E+00  0.0000E+00  0.2400E-01  0.2400E-01
    -27.873  0.0000E+00  0.0000E+00  0.2400E-01  0.2400E-01
    -27.682  0.0000E+00  0.0000E+00  0.2400E-01  0.2400E-01
    -27.490  0.0000E+00  0.0000E+00  0.2400E-01  0.2400E-01
    -27.299  0.0000E+00  0.0000E+00  0.2400E-01  0.2400E-01
    -27.107  0.0000E+00  0.0000E+00  0.2400E-01  0.2400E-01
    -26.916  0.0000E+00  0.0000E+00  0.2400E-01  0.2400E-01
    -26.724  0.0000E+00  0.0000E+00  0.2400E-01  0.2400E-01
    -26.533  0.0000E+00  0.0000E+00  0.2400E-01  0.2400E-01
    -26.341  0.0000E+00  0.0000E+00  0.2400E-01  0.2400E-01
    -26.150  0.0000E+00  0.0000E+00  0.2400E-01  0.2400E-01
    -25.958  0.0000E+00  0.0000E+00  0.2400E-01  0.2400E-01
    -25.767  0.0000E+00  0.0000E+00  0.2400E-01  0.2400E-01
    -25.575  0.0000E+00  0.0000E+00  0.2400E-01  0.2400E-01
    -25.384  0.0000E+00  0.0000E+00  0.2400E-01  0.2400E-01
    -25.192  0.0000E+00  0.0000E+00  0.2400E-01  0.2400E-01
    -25.001  0.0000E+00  0.0000E+00  0.2400E-01  0.2400E-01
    -24.809  0.0000E+00  0.0000E+00  0.2400E-01  0.2400E-01
    -24.618  0.0000E+00  0.0000E+00  0.2400E-01  0.2400E-01
    -24.426  0.0000E+00  0.0000E+00  0.2400E-01  0.2400E-01
    -24.235  0.0000E+00  0.0000E+00  0.2400E-01  0.2400E-01
    -24.043  0.0000E+00  0.0000E+00  0.2400E-01  0.2400E-01
    -23.852  0.0000E+00  0.0000E+00  0.2400E-01  0.2400E-01
    -23.660  0.0000E+00  0.0000E+00  0.2400E-01  0.2400E-01
    -23.469  0.0000E+00  0.0000E+00  0.2400E-01  0.2400E-01
    -23.277  0.0000E+00  0.0000E+00  0.2400E-01  0.2400E-01
    -23.086  0.0000E+00  0.0000E+00  0.2400E-01  0.2400E-01
    -22.894  0.0000E+00  0.0000E+00  0.2400E-01  0.2400E-01
    -22.703  0.0000E+00  0.0000E+00  0.2400E-01  0.2400E-01
    -22.511  0.0000E+00  0.0000E+00  0.2400E-01  0.2400E-01
    -22.320  0.0000E+00  0.0000E+00  0.2400E-01  0.2400E-01
    -22.128  0.0000E+00  0.0000E+00  0.2400E-01  0.2400E-01
    -21.937  0.0000E+00  0.0000E+00  0.2400E-01  0.2400E-01
    -21.745  0.0000E+00  0.0000E+00  0.2400E-01  0.2400E-01
    -21.554  0.0000E+00  0.0000E+00  0.2400E-01  0.2400E-01
    -21.363  0.0000E+00  0.0000E+00  0.2400E-01  0.2400E-01
    -21.171  0.0000E+00  0.0000E+00  0.2400E-01  0.2400E-01
    -20.980  0.0000E+00  0.0000E+00  0.2400E-01  0.2400E-01
    -20.788  0.0000E+00  0.0000E+00  0.2400E-01  0.2400E-01
    -20.597  0.0000E+00  0.0000E+00  0.2400E-01  0.2400E-01
    -20.405  0.0000E+00  0.0000E+00  0.2400E-01  0.2400E-01
    -20.214  0.0000E+00  0.0000E+00  0.2400E-01  0.2400E-01
    -20.022  0.0000E+00  0.0000E+00  0.2400E-01  0.2400E-01
    -19.831  0.0000E+00  0.0000E+00  0.2400E-01  0.2400E-01
    -19.639  0.0000E+00  0.0000E+00  0.2400E-01  0.2400E-01
    -19.448  0.0000E+00  0.0000E+00  0.2400E-01  0.2400E-01
    -19.256  0.0000E+00  0.0000E+00  0.2400E-01  0.2400E-01
    -19.065  0.0000E+00  0.0000E+00  0.2400E-01  0.2400E-01
    -18.873  0.0000E+00  0.0000E+00  0.2400E-01  0.2400E-01
    -18.682  0.0000E+00  0.0000E+00  0.2400E-01  0.2400E-01
    -18.490  0.0000E+00  0.0000E+00  0.2400E-01  0.2400E-01
    -18.299  0.0000E+00  0.0000E+00  0.2400E-01  0.2400E-01
    -18.107  0.0000E+00  0.0000E+00  0.2400E-01  0.2400E-01
    -17.916  0.0000E+00  0.0000E+00  0.2400E-01  0.2400E-01
    -17.724  0.0000E+00  0.0000E+00  0.2400E-01  0.2400E-01
    -17.533  0.0000E+00  0.0000E+00  0.2400E-01  0.2400E-01
    -17.341  0.0000E+00  0.0000E+00  0.2400E-01  0.2400E-01
    -17.150  0.0000E+00  0.0000E+00  0.2400E-01  0.2400E-01
    -16.958  0.0000E+00  0.0000E+00  0.2400E-01  0.2400E-01
    -16.767  0.0000E+00  0.0000E+00  0.2400E-01  0.2400E-01
    -16.575  0.0000E+00  0.0000E+00  0.2400E-01  0.2400E-01
    -16.384  0.0000E+00  0.0000E+00  0.2400E-01  0.2400E-01
    -16.192  0.0000E+00  0.0000E+00  0.2400E-01  0.2400E-01
    -16.001  0.0000E+00  0.0000E+00  0.2400E-01  0.2400E-01
    -15.809  0.0000E+00  0.0000E+00  0.2400E-01  0.2400E-01
    -15.618  0.0000E+00  0.0000E+00  0.2400E-01  0.2400E-01
    -15.426  0.0000E+00  0.0000E+00  0.2400E-01  0.2400E-01
    -15.235  0.0000E+00  0.0000E+00  0.2400E-01  0.2400E-01
    -15.043  0.0000E+00  0.0000E+00  0.2400E-01  0.2400E-01
    -14.852  0.0000E+00  0.0000E+00  0.2400E-01  0.2400E-01
    -14.660  0.0000E+00  0.0000E+00  0.2400E-01  0.2400E-01
    -14.469  0.0000E+00  0.0000E+00  0.2400E-01  0.2400E-01
    -14.277  0.0000E+00  0.0000E+00  0.2400E-01  0.2400E-01
    -14.086  0.0000E+00  0.0000E+00  0.2400E-01  0.2400E-01
    -13.894  0.0000E+00  0.0000E+00  0.2400E-01  0.2400E-01
    -13.703  0.0000E+00  0.0000E+00  0.2400E-01  0.2400E-01
    -13.511  0.7707E-02  0.7707E-02  0.2548E-01  0.2548E-01
    -13.320  0.1318E-01  0.1318E-01  0.2800E-01  0.2800E-01
    -13.128  0.0000E+00  0.0000E+00  0.2800E-01  0.2800E-01
    -12.937  0.0000E+00  0.0000E+00  0.2800E-01  0.2800E-01
    -12.745  0.3585E-13  0.3585E-13  0.2800E-01  0.2800E-01
    -12.554  0.2046E-01  0.2046E-01  0.3192E-01  0.3192E-01
    -12.362  0.4264E-03  0.4264E-03  0.3200E-01  0.3200E-01
    -12.171  0.0000E+00  0.0000E+00  0.3200E-01  0.3200E-01
    -11.979  0.0000E+00  0.0000E+00  0.3200E-01  0.3200E-01
    -11.788  0.0000E+00  0.0000E+00  0.3200E-01  0.3200E-01
    -11.596  0.0000E+00  0.0000E+00  0.3200E-01  0.3200E-01
    -11.405  0.0000E+00  0.0000E+00  0.3200E-01  0.3200E-01
    -11.213  0.0000E+00  0.0000E+00  0.3200E-01  0.3200E-01
    -11.022  0.0000E+00  0.0000E+00  0.3200E-01  0.3200E-01
    -10.830  0.2002E-04  0.2002E-04  0.3200E-01  0.3200E-01
    -10.639  0.1876E-01  0.1876E-01  0.3560E-01  0.3560E-01
    -10.447  0.3329E-01  0.3329E-01  0.4197E-01  0.4197E-01
    -10.256  0.1056E-01  0.1056E-01  0.4400E-01  0.4400E-01
    -10.065  0.0000E+00  0.0000E+00  0.4400E-01  0.4400E-01
     -9.873  0.0000E+00  0.0000E+00  0.4400E-01  0.4400E-01
     -9.682  0.0000E+00  0.0000E+00  0.4400E-01  0.4400E-01
     -9.490  0.0000E+00  0.0000E+00  0.4400E-01  0.4400E-01
     -9.299  0.0000E+00  0.0000E+00  0.4400E-01  0.4400E-01
     -9.107  0.1412E-10  0.1412E-10  0.4400E-01  0.4400E-01
     -8.916  0.1043E-01  0.1043E-01  0.4600E-01  0.4600E-01
     -8.724  0.1044E-01  0.1044E-01  0.4800E-01  0.4800E-01
     -8.533  0.0000E+00  0.0000E+00  0.4800E-01  0.4800E-01
     -8.341  0.0000E+00  0.0000E+00  0.4800E-01  0.4800E-01
     -8.150  0.0000E+00  0.0000E+00  0.4800E-01  0.4800E-01
     -7.958  0.0000E+00  0.0000E+00  0.4800E-01  0.4800E-01
     -7.767  0.0000E+00  0.0000E+00  0.4800E-01  0.4800E-01
     -7.575  0.0000E+00  0.0000E+00  0.4800E-01  0.4800E-01
     -7.384  0.0000E+00  0.0000E+00  0.4800E-01  0.4800E-01
     -7.192  0.0000E+00  0.0000E+00  0.4800E-01  0.4800E-01
     -7.001  0.0000E+00  0.0000E+00  0.4800E-01  0.4800E-01
     -6.809  0.0000E+00  0.0000E+00  0.4800E-01  0.4800E-01
     -6.618  0.9145E-03  0.9144E-03  0.4818E-01  0.4818E-01
     -6.426  0.4308E-02  0.4308E-02  0.4900E-01  0.4900E-01
     -6.235  0.6657E-02  0.6657E-02  0.5027E-01  0.5027E-01
     -6.043  0.9009E-02  0.9009E-02  0.5200E-01  0.5200E-01
     -5.852  0.0000E+00  0.0000E+00  0.5200E-01  0.5200E-01
     -5.660  0.0000E+00  0.0000E+00  0.5200E-01  0.5200E-01
     -5.469  0.0000E+00  0.0000E+00  0.5200E-01  0.5200E-01
     -5.277  0.0000E+00  0.0000E+00  0.5200E-01  0.5200E-01
     -5.086  0.0000E+00  0.0000E+00  0.5200E-01  0.5200E-01
     -4.894  0.0000E+00  0.0000E+00  0.5200E-01  0.5200E-01
     -4.703  0.0000E+00  0.0000E+00  0.5200E-01  0.5200E-01
     -4.511  0.0000E+00  0.0000E+00  0.5200E-01  0.5200E-01
     -4.320  0.0000E+00  0.0000E+00  0.5200E-01  0.5200E-01
     -4.128  0.0000E+00  0.0000E+00  0.5200E-01  0.5200E-01
     -3.937  0.0000E+00  0.0000E+00  0.5200E-01  0.5200E-01
     -3.745  0.1389E-03  0.1389E-03  0.5203E-01  0.5203E-01
     -3.554  0.1553E-01  0.1553E-01  0.5500E-01  0.5500E-01
     -3.362  0.1470E-02  0.1470E-02  0.5528E-01  0.5528E-01
     -3.171  0.1164E-01  0.1164E-01  0.5751E-01  0.5751E-01
     -2.979  0.1476E-01  0.1476E-01  0.6034E-01  0.6034E-01
     -2.788  0.1912E-01  0.1912E-01  0.6400E-01  0.6400E-01
     -2.596  0.0000E+00  0.0000E+00  0.6400E-01  0.6400E-01
     -2.405  0.0000E+00  0.0000E+00  0.6400E-01  0.6400E-01
     -2.213  0.0000E+00  0.0000E+00  0.6400E-01  0.6400E-01
     -2.022  0.0000E+00  0.0000E+00  0.6400E-01  0.6400E-01
     -1.830  0.1322E-15  0.1322E-15  0.6400E-01  0.6400E-01
     -1.639  0.8784E-02  0.8784E-02  0.6568E-01  0.6568E-01
     -1.447  0.2250E-01  0.2250E-01  0.6999E-01  0.6999E-01
     -1.256  0.1814E-01  0.1814E-01  0.7347E-01  0.7347E-01
     -1.064  0.1319E-01  0.1319E-01  0.7600E-01  0.7600E-01
     -0.873  0.7022E-02  0.7022E-02  0.7734E-01  0.7734E-01
     -0.681  0.1342E-01  0.1342E-01  0.7991E-01  0.7991E-01
     -0.490  0.2423E-01  0.2423E-01  0.8455E-01  0.8455E-01
     -0.298  0.2756E-01  0.2756E-01  0.8985E-01  0.8985E-01
     -0.107  0.2227E-01  0.2227E-01  0.9411E-01  0.9411E-01
      0.085  0.9845E-02  0.9845E-02  0.9600E-01  0.9600E-01
      0.276  0.2508E-02  0.2508E-02  0.9648E-01  0.9648E-01
      0.468  0.2968E-01  0.2968E-01  0.1022E+00  0.1022E+00
      0.659  0.2600E-01  0.2600E-01  0.1072E+00  0.1072E+00
      0.851  0.2802E-01  0.2802E-01  0.1125E+00  0.1125E+00
      1.042  0.3140E-01  0.3140E-01  0.1185E+00  0.1185E+00
      1.233  0.7637E-02  0.7637E-02  0.1200E+00  0.1200E+00
      1.425  0.0000E+00  0.0000E+00  0.1200E+00  0.1200E+00
      1.616  0.0000E+00  0.0000E+00  0.1200E+00  0.1200E+00
      1.808  0.0000E+00  0.0000E+00  0.1200E+00  0.1200E+00
      1.999  0.0000E+00  0.0000E+00  0.1200E+00  0.1200E+00
      2.191  0.0000E+00  0.0000E+00  0.1200E+00  0.1200E+00
      2.382  0.0000E+00  0.0000E+00  0.1200E+00  0.1200E+00
      2.574  0.0000E+00  0.0000E+00  0.1200E+00  0.1200E+00
      2.765  0.0000E+00  0.0000E+00  0.1200E+00  0.1200E+00
      2.957  0.0000E+00  0.0000E+00  0.1200E+00  0.1200E+00
      3.148  0.0000E+00  0.0000E+00  0.1200E+00  0.1200E+00
      3.340  0.0000E+00  0.0000E+00  0.1200E+00  0.1200E+00
      3.531  0.0000E+00  0.0000E+00  0.1200E+00  0.1200E+00
      3.723  0.5428E-12  0.5428E-12  0.1200E+00  0.1200E+00
      3.914  0.5202E-02  0.5202E-02  0.1210E+00  0.1210E+00
      4.106  0.0000E+00  0.0000E+00  0.1210E+00  0.1210E+00
      4.297  0.0000E+00  0.0000E+00  0.1210E+00  0.1210E+00
      4.489  0.2464E-17  0.2464E-17  0.1210E+00  0.1210E+00
      4.680  0.6917E-02  0.6917E-02  0.1223E+00  0.1223E+00
      4.872  0.8750E-02  0.8750E-02  0.1240E+00  0.1240E+00
      5.063  0.0000E+00  0.0000E+00  0.1240E+00  0.1240E+00
      5.255  0.1786E-05  0.1786E-05  0.1240E+00  0.1240E+00
      5.446  0.1160E-01  0.1160E-01  0.1262E+00  0.1262E+00
      5.638  0.1397E-01  0.1397E-01  0.1289E+00  0.1289E+00
      5.829  0.5751E-02  0.5751E-02  0.1300E+00  0.1300E+00
      6.021  0.6077E-02  0.6077E-02  0.1312E+00  0.1312E+00
      6.212  0.1343E-01  0.1343E-01  0.1337E+00  0.1337E+00
      6.404  0.1183E-01  0.1183E-01  0.1360E+00  0.1360E+00
      6.595  0.5205E-02  0.5205E-02  0.1370E+00  0.1370E+00
      6.787  0.1387E-03  0.1387E-03  0.1370E+00  0.1370E+00
      6.978  0.1110E-01  0.1110E-01  0.1392E+00  0.1392E+00
      7.170  0.1010E-01  0.1010E-01  0.1411E+00  0.1411E+00
      7.361  0.1195E-01  0.1195E-01  0.1434E+00  0.1434E+00
      7.553  0.9446E-02  0.9446E-02  0.1452E+00  0.1452E+00
      7.744  0.1472E-01  0.1472E-01  0.1480E+00  0.1480E+00
      7.936  0.1330E-01  0.1330E-01  0.1505E+00  0.1505E+00
      8.127  0.1300E-01  0.1300E-01  0.1530E+00  0.1530E+00
      8.319  0.1371E-01  0.1371E-01  0.1557E+00  0.1557E+00
      8.510  0.2119E-01  0.2119E-01  0.1597E+00  0.1597E+00
      8.702  0.1803E-01  0.1803E-01  0.1632E+00  0.1632E+00
      8.893  0.2337E-01  0.2337E-01  0.1677E+00  0.1677E+00
      9.085  0.1929E-01  0.1928E-01  0.1713E+00  0.1713E+00
      9.276  0.1813E-01  0.1776E-01  0.1748E+00  0.1747E+00
      9.468  0.6160E-02  0.6547E-02  0.1760E+00  0.1760E+00
      9.659  0.0000E+00  0.0000E+00  0.1760E+00  0.1760E+00
      9.851  0.0000E+00  0.0000E+00  0.1760E+00  0.1760E+00
     10.042  0.0000E+00  0.0000E+00  0.1760E+00  0.1760E+00
     10.234  0.0000E+00  0.0000E+00  0.1760E+00  0.1760E+00
     10.425  0.0000E+00  0.0000E+00  0.1760E+00  0.1760E+00
     10.617  0.0000E+00  0.0000E+00  0.1760E+00  0.1760E+00
     10.808  0.0000E+00  0.0000E+00  0.1760E+00  0.1760E+00
     11.000  0.0000E+00  0.0000E+00  0.1760E+00  0.1760E+00
     11.191  0.0000E+00  0.0000E+00  0.1760E+00  0.1760E+00
     11.383  0.0000E+00  0.0000E+00  0.1760E+00  0.1760E+00
     11.574  0.0000E+00  0.0000E+00  0.1760E+00  0.1760E+00
     11.766  0.0000E+00  0.0000E+00  0.1760E+00  0.1760E+00
     11.957  0.0000E+00  0.0000E+00  0.1760E+00  0.1760E+00
