       N       E                     dE             d eps       ncg     rms          rms(c)
DAV:   1     0.157779957796E+04    0.15778E+04   -0.11289E+05  1568   0.124E+03
DAV:   2    -0.572867257800E+02   -0.16351E+04   -0.15371E+04  1912   0.354E+02
DAV:   3    -0.230836158088E+03   -0.17355E+03   -0.17149E+03  1896   0.117E+02
DAV:   4    -0.243554536003E+03   -0.12718E+02   -0.12693E+02  2304   0.323E+01
DAV:   5    -0.243898492805E+03   -0.34396E+00   -0.34385E+00  2352   0.498E+00
DAV:   6    -0.243905923850E+03   -0.74310E-02   -0.74298E-02  2288   0.961E-01
DAV:   7    -0.243906297491E+03   -0.37364E-03   -0.37362E-03  2304   0.204E-01
DAV:   8    -0.243906320047E+03   -0.22556E-04   -0.22555E-04  2240   0.568E-02
DAV:   9    -0.243906321500E+03   -0.14529E-05   -0.14538E-05  2232   0.131E-02
DAV:  10    -0.243906321564E+03   -0.63965E-07   -0.63757E-07  1304   0.410E-03    0.654E+01
RMM:  11    -0.231919396402E+03    0.11987E+02   -0.55353E+01  1408   0.203E+01    0.333E+01
RMM:  12    -0.255746290689E+03   -0.23827E+02   -0.29618E+01  1492   0.144E+01    0.210E+01
RMM:  13    -0.258321651575E+03   -0.25754E+01   -0.10204E+01  1454   0.564E+00    0.763E+00
RMM:  14    -0.258596328360E+03   -0.27468E+00   -0.25312E+00  1831   0.357E+00    0.347E+00
RMM:  15    -0.258550544317E+03    0.45784E-01   -0.43284E-01  1492   0.181E+00    0.768E-01
RMM:  16    -0.258576567422E+03   -0.26023E-01   -0.15891E-01  1578   0.105E+00    0.350E-01
RMM:  17    -0.258584016296E+03   -0.74489E-02   -0.33736E-02  1729   0.514E-01    0.201E-01
RMM:  18    -0.258586011860E+03   -0.19956E-02   -0.90706E-03  1684   0.230E-01    0.104E-01
RMM:  19    -0.258586937078E+03   -0.92522E-03   -0.26339E-03  1808   0.126E-01    0.501E-02
RMM:  20    -0.258587119749E+03   -0.18267E-03   -0.82700E-04  1935   0.650E-02    0.281E-02
RMM:  21    -0.258587160952E+03   -0.41203E-04   -0.24561E-04  1667   0.349E-02    0.110E-02
RMM:  22    -0.258587172931E+03   -0.11979E-04   -0.85110E-05  1899   0.196E-02    0.724E-03
RMM:  23    -0.258587173246E+03   -0.31539E-06   -0.18444E-05  1700   0.982E-03    0.357E-03
RMM:  24    -0.258587172923E+03    0.32335E-06   -0.72566E-06  1325   0.658E-03
   1 F= -.27128371E+03 E0= -.27128371E+03  d E =-.271284E+03  mag=    -0.0006
       N       E                     dE             d eps       ncg     rms          rms(c)
DAV:   1    -0.258587176218E+03   -0.29720E-05   -0.30376E-04  1568   0.333E-02    0.380E-03
RMM:   2    -0.258587176971E+03   -0.75299E-06   -0.18453E-05  1429   0.164E-02    0.174E-03
RMM:   3    -0.258587177382E+03   -0.41083E-06   -0.78449E-06  1289   0.747E-03
   2 F= -.27128372E+03 E0= -.27128372E+03  d E =-.113622E-04  mag=    -0.0001
       N       E                     dE             d eps       ncg     rms          rms(c)
DAV:   1    -0.258587174114E+03    0.28572E-05   -0.39915E-04  1744   0.383E-02    0.416E-03
RMM:   2    -0.258587175071E+03   -0.95665E-06   -0.24037E-05  1409   0.189E-02    0.216E-03
RMM:   3    -0.258587175576E+03   -0.50549E-06   -0.10367E-05  1373   0.893E-03    0.147E-03
RMM:   4    -0.258587175809E+03   -0.23289E-06   -0.13070E-06   939   0.540E-03
   3 F= -.27128372E+03 E0= -.27128372E+03  d E =-.176755E-04  mag=    -0.0000
       N       E                     dE             d eps       ncg     rms          rms(c)
DAV:   1    -0.258587172742E+03    0.28345E-05   -0.85297E-05  1736   0.176E-02    0.191E-03
RMM:   2    -0.258587172721E+03    0.20493E-07   -0.50697E-06  1245   0.890E-03
   4 F= -.27128372E+03 E0= -.27128372E+03  d E =-.182325E-04  mag=    -0.0000
       N       E                     dE             d eps       ncg     rms          rms(c)
DAV:   1    -0.258587173447E+03   -0.70586E-06   -0.58445E-06  1616   0.621E-03    0.904E-04
RMM:   2    -0.258587173580E+03   -0.13305E-06   -0.31048E-07   796   0.194E-03
   5 F= -.27128372E+03 E0= -.27128372E+03  d E =-.182618E-04  mag=    -0.0000
       N       E                     dE             d eps       ncg     rms          rms(c)
DAV:   1    -0.258587173122E+03    0.32506E-06   -0.16968E-06  1208   0.300E-03    0.334E-04
RMM:   2    -0.258587173103E+03    0.19649E-07   -0.30825E-07   764   0.236E-03
   6 F= -.27128373E+03 E0= -.27128373E+03  d E =-.183786E-04  mag=    -0.0000
       N       E                     dE             d eps       ncg     rms          rms(c)
DAV:   1    -0.258587179008E+03   -0.58857E-05   -0.12631E-04  1616   0.216E-02    0.168E-03
RMM:   2    -0.258587179371E+03   -0.36301E-06   -0.47191E-06  1168   0.789E-03
   7 F= -.27128373E+03 E0= -.27128373E+03  d E =-.173800E-05  mag=    -0.0000
