 vasp.6.4.1 05Apr23 (build Jun 07 2023 15:38:11) complex                        
  
 executed on             LinuxIFC date 2023.10.19  05:11:46
 running  128 mpi-ranks, with    1 threads/rank, on    1 nodes
 distrk:  each k-point on  128 cores,    1 groups
 distr:  one band on NCORE=  32 cores,    4 groups


--------------------------------------------------------------------------------------------------------


 INCAR:
   GGA = PE
   PREC = Accu
   EDIFF = 1.e-6
   EDIFFG = -1.e-3
   ENCUT = 520.
   NELM = 100
   NELMDL = -10
   LASPH = .TRUE.
   LREAL = Auto
   LMAXMIX = 4
   ISPIN = 2
   LDIAG = .TRUE.
   LPLANE = .TRUE.
   IVDW = 12
   SIGMA = 0.03
   ISMEAR = 0
   NSW = 1000    number of steps for IOM
   IBRION = 2    ionic relax: 0-MD 1-quasi-New 2-CG
   ISIF = 2    ionic relaxation + stress tensor calcn.
   LCHARG = .FALSE.
   LWAVE = .FALSE.
   ALGO = F
   KPAR = 1
   NPAR = 4
   POTIM = 0.2

 POTCAR:    PAW_PBE Li_sv_GW 25Mar2010            
 POTCAR:    PAW_PBE P_GW 19Mar2012                
 POTCAR:    PAW_PBE S_GW 19Mar2012                
 POTCAR:    PAW_PBE Cl_GW 19Mar2012               
 -----------------------------------------------------------------------------
|                                                                             |
|           W    W    AA    RRRRR   N    N  II  N    N   GGGG   !!!           |
|           W    W   A  A   R    R  NN   N  II  NN   N  G    G  !!!           |
|           W    W  A    A  R    R  N N  N  II  N N  N  G       !!!           |
|           W WW W  AAAAAA  RRRRR   N  N N  II  N  N N  G  GGG   !            |
|           WW  WW  A    A  R   R   N   NN  II  N   NN  G    G                |
|           W    W  A    A  R    R  N    N  II  N    N   GGGG   !!!           |
|                                                                             |
|     You use a magnetic or noncollinear calculation, but did not specify     |
|     the initial magnetic moment with the MAGMOM tag. Note that a            |
|     default of 1 will be used for all atoms. This ferromagnetic setup       |
|     may break the symmetry of the crystal, in particular it may rule        |
|     out finding an antiferromagnetic solution. Thence, we recommend         |
|     setting the initial magnetic moment manually or verifying carefully     |
|     that this magnetic setup is desired.                                    |
|                                                                             |
 -----------------------------------------------------------------------------

 POTCAR:    PAW_PBE Li_sv_GW 25Mar2010            
   SHA256 =  24a6ace15a582615486b36ce4dc781b048409f4015b7684ed1273ae395fa2fdc Li_sv_GW/POTCAR       
   COPYR  = (c) Copyright 25Mar2010 Georg Kresse                                                    
   COPYR  = This file is part of the software VASP. Any use, copying, and all other rights are regul
   COPYR  = If you do not have a valid VASP license, you may not use, copy or distribute this file. 
   VRHFIN =Li: 1s2s                                                                                 
   LEXCH  = PE                                                                                      
   EATOM  =   200.9989 eV,   14.7730 Ry                                                             
                                                                                                    
   TITEL  = PAW_PBE Li_sv_GW 25Mar2010                                                              
   LULTRA =        F    use ultrasoft PP ?                                                          
   IUNSCR =        0    unscreen: 0-lin 1-nonlin 2-no                                               
   RPACOR =    0.000    partial core radius                                                         
   POMASS =    7.010; ZVAL   =    3.000    mass and valenz                                          
   RCORE  =    1.500    outmost cutoff radius                                                       
   RWIGS  =    1.600; RWIGS  =    0.847    wigner-seitz radius (au A)                               
   ENMAX  =  433.699; ENMIN  =  325.274 eV                                                          
   RCLOC  =    1.003    cutoff for local pot                                                        
   LCOR   =        T    correct aug charges                                                         
   LPAW   =        T    paw PP                                                                      
   EAUG   = 1041.699                                                                                
   RMAX   =    1.536    core radius for proj-oper                                                   
   RAUG   =    1.300    factor for augmentation sphere                                              
   RDEP   =    1.520    radius for radial grids                                                     
   RDEPT  =    1.300    core radius for aug-charge                                                  
                                                                                                    
   Atomic configuration                                                                             
    4 entries                                                                                       
     n  l   j            E        occ.                                                              
     1  0  0.50       -53.3604   2.0000                                                             
     1  0  0.50       -52.0001   0.0000                                                             
     2  1  0.50        -1.5636   1.0000                                                             
     3  2  1.50        -1.3606   0.0000                                                             
   Description                                                                                      
     l       E           TYP  RCUT    TYP  RCUT                                                     
     0    -53.3603633     23  1.200                                                                 
     0    -52.0001064     23  1.200                                                                 
     0    176.8757380     23  1.300                                                                 
     1     -1.5635925     23  1.500                                                                 
     1    108.8466080     23  1.500                                                                 
     2     81.6349560     23  1.500                                                                 
  local pseudopotential read in
  kinetic energy density of atom read in
  atomic valenz-charges read in
  non local Contribution for L=           0  read in
    real space projection operators read in
  non local Contribution for L=           0  read in
    real space projection operators read in
  non local Contribution for L=           0  read in
    real space projection operators read in
  non local Contribution for L=           1  read in
    real space projection operators read in
  non local Contribution for L=           1  read in
    real space projection operators read in
  non local Contribution for L=           2  read in
    real space projection operators read in
    PAW grid and wavefunctions read in
 
   number of l-projection  operators is LMAX  =           6
   number of lm-projection operators is LMMAX =          14
 
 POTCAR:    PAW_PBE P_GW 19Mar2012                
   SHA256 =  715c28f2291d37b61637ce89646c59f66f71c8b8d8bfba631e5feb9f7b42defe P_GW/POTCAR           
   COPYR  = (c) Copyright 19Mar2012 Georg Kresse                                                    
   COPYR  = This file is part of the software VASP. Any use, copying, and all other rights are regul
   COPYR  = If you do not have a valid VASP license, you may not use, copy or distribute this file. 
   VRHFIN =P : s2p3                                                                                 
   LEXCH  = PE                                                                                      
   EATOM  =   176.0430 eV,   12.9388 Ry                                                             
                                                                                                    
   TITEL  = PAW_PBE P_GW 19Mar2012                                                                  
   LULTRA =        F    use ultrasoft PP ?                                                          
   IUNSCR =        1    unscreen: 0-lin 1-nonlin 2-no                                               
   RPACOR =    1.400    partial core radius                                                         
   POMASS =   30.974; ZVAL   =    5.000    mass and valenz                                          
   RCORE  =    2.000    outmost cutoff radius                                                       
   RWIGS  =    1.900; RWIGS  =    1.005    wigner-seitz radius (au A)                               
   ENMAX  =  255.040; ENMIN  =  191.280 eV                                                          
   ICORE  =        3    local potential                                                             
   LCOR   =        T    correct aug charges                                                         
   LPAW   =        T    paw PP                                                                      
   EAUG   =  499.732                                                                                
   DEXC   =    0.000                                                                                
   RMAX   =    2.047    core radius for proj-oper                                                   
   RAUG   =    1.300    factor for augmentation sphere                                              
   RDEP   =    2.059    radius for radial grids                                                     
   RDEPT  =    1.900    core radius for aug-charge                                                  
                                                                                                    
   Atomic configuration                                                                             
    7 entries                                                                                       
     n  l   j            E        occ.                                                              
     1  0  0.50     -2084.0982   2.0000                                                             
     2  0  0.50      -173.9859   2.0000                                                             
     2  1  1.50      -124.4865   6.0000                                                             
     3  0  0.50       -13.9692   2.0000                                                             
     3  1  0.50        -5.5067   3.0000                                                             
     3  2  1.50        -6.8029   0.0000                                                             
     4  3  2.50        -1.3606   0.0000                                                             
   Description                                                                                      
     l       E           TYP  RCUT    TYP  RCUT                                                     
     0    -13.9691528     23  1.900                                                                 
     0    102.0436950     23  1.900                                                                 
     1     -5.5066939     23  1.900                                                                 
     1    102.0436950     23  1.900                                                                 
     2     -8.1634956     23  2.000                                                                 
     2     81.6349560     23  2.000                                                                 
     3     27.2116520     23  2.000                                                                 
  local pseudopotential read in
  partial core-charges read in
  partial kinetic energy density read in
  kinetic energy density of atom read in
  atomic valenz-charges read in
  non local Contribution for L=           0  read in
    real space projection operators read in
  non local Contribution for L=           0  read in
    real space projection operators read in
  non local Contribution for L=           1  read in
    real space projection operators read in
  non local Contribution for L=           1  read in
    real space projection operators read in
  non local Contribution for L=           2  read in
    real space projection operators read in
  non local Contribution for L=           2  read in
    real space projection operators read in
    PAW grid and wavefunctions read in
 
   number of l-projection  operators is LMAX  =           6
   number of lm-projection operators is LMMAX =          18
 
 POTCAR:    PAW_PBE S_GW 19Mar2012                
   SHA256 =  357db9cfb0783579b2eebe03197c2d807131fea8ea663b1fcfb6ce2fa75af011 S_GW/POTCAR           
   COPYR  = (c) Copyright 19Mar2012 Georg Kresse                                                    
   COPYR  = This file is part of the software VASP. Any use, copying, and all other rights are regul
   COPYR  = If you do not have a valid VASP license, you may not use, copy or distribute this file. 
   VRHFIN =S : s2p4                                                                                 
   LEXCH  = PE                                                                                      
   EATOM  =   276.8230 eV,   20.3459 Ry                                                             
                                                                                                    
   TITEL  = PAW_PBE S_GW 19Mar2012                                                                  
   LULTRA =        F    use ultrasoft PP ?                                                          
   IUNSCR =        1    unscreen: 0-lin 1-nonlin 2-no                                               
   RPACOR =    1.400    partial core radius                                                         
   POMASS =   32.066; ZVAL   =    6.000    mass and valenz                                          
   RCORE  =    1.900    outmost cutoff radius                                                       
   RWIGS  =    1.900; RWIGS  =    1.005    wigner-seitz radius (au A)                               
   ENMAX  =  258.689; ENMIN  =  194.016 eV                                                          
   ICORE  =        3    local potential                                                             
   LCOR   =        T    correct aug charges                                                         
   LPAW   =        T    paw PP                                                                      
   EAUG   =  488.319                                                                                
   DEXC   =    0.000                                                                                
   RMAX   =    1.942    core radius for proj-oper                                                   
   RAUG   =    1.300    factor for augmentation sphere                                              
   RDEP   =    1.954    radius for radial grids                                                     
   RDEPT  =    1.900    core radius for aug-charge                                                  
                                                                                                    
   Atomic configuration                                                                             
    7 entries                                                                                       
     n  l   j            E        occ.                                                              
     1  0  0.50     -2405.8406   2.0000                                                             
     2  0  0.50      -211.7007   2.0000                                                             
     2  1  1.50      -156.4958   6.0000                                                             
     3  0  0.50       -17.2562   2.0000                                                             
     3  1  0.50        -7.0085   4.0000                                                             
     3  2  1.50        -8.1635   0.0000                                                             
     4  3  2.50        -1.3606   0.0000                                                             
   Description                                                                                      
     l       E           TYP  RCUT    TYP  RCUT                                                     
     0    -17.2561639     23  1.700                                                                 
     0     88.4378690     23  1.900                                                                 
     1     -7.0085399     23  1.900                                                                 
     1     88.4378690     23  1.900                                                                 
     2    -10.8846608     23  1.900                                                                 
     2     54.4233040     23  1.900                                                                 
     3     27.2116520     23  1.800                                                                 
  local pseudopotential read in
  partial core-charges read in
  partial kinetic energy density read in
  kinetic energy density of atom read in
  atomic valenz-charges read in
  non local Contribution for L=           0  read in
    real space projection operators read in
  non local Contribution for L=           0  read in
    real space projection operators read in
  non local Contribution for L=           1  read in
    real space projection operators read in
  non local Contribution for L=           1  read in
    real space projection operators read in
  non local Contribution for L=           2  read in
    real space projection operators read in
  non local Contribution for L=           2  read in
    real space projection operators read in
    PAW grid and wavefunctions read in
 
   number of l-projection  operators is LMAX  =           6
   number of lm-projection operators is LMMAX =          18
 
 POTCAR:    PAW_PBE Cl_GW 19Mar2012               
   SHA256 =  3ef3b3169d6a9a89979f58b4cf17d927a58518fc660d8883d88cacaee8175441 Cl_GW/POTCAR          
   COPYR  = (c) Copyright 19Mar2012 Georg Kresse                                                    
   COPYR  = This file is part of the software VASP. Any use, copying, and all other rights are regul
   COPYR  = If you do not have a valid VASP license, you may not use, copy or distribute this file. 
   VRHFIN =Cl: s2p5                                                                                 
   LEXCH  = PE                                                                                      
   EATOM  =   409.7259 eV,   30.1140 Ry                                                             
                                                                                                    
   TITEL  = PAW_PBE Cl_GW 19Mar2012                                                                 
   LULTRA =        F    use ultrasoft PP ?                                                          
   IUNSCR =        1    unscreen: 0-lin 1-nonlin 2-no                                               
   RPACOR =    1.400    partial core radius                                                         
   POMASS =   35.453; ZVAL   =    7.000    mass and valenz                                          
   RCORE  =    1.900    outmost cutoff radius                                                       
   RWIGS  =    1.900; RWIGS  =    1.005    wigner-seitz radius (au A)                               
   ENMAX  =  262.472; ENMIN  =  196.854 eV                                                          
   ICORE  =        3    local potential                                                             
   LCOR   =        T    correct aug charges                                                         
   LPAW   =        T    paw PP                                                                      
   EAUG   =  456.703                                                                                
   DEXC   =    0.000                                                                                
   RMAX   =    1.945    core radius for proj-oper                                                   
   RAUG   =    1.300    factor for augmentation sphere                                              
   RDEP   =    2.020    radius for radial grids                                                     
   RDEPT  =    1.900    core radius for aug-charge                                                  
                                                                                                    
   Atomic configuration                                                                             
    7 entries                                                                                       
     n  l   j            E        occ.                                                              
     1  0  0.50     -2751.1850   2.0000                                                             
     2  0  0.50      -252.6861   2.0000                                                             
     2  1  1.50      -191.6157   6.0000                                                             
     3  0  0.50       -20.6916   2.0000                                                             
     3  1  0.50        -8.5949   5.0000                                                             
     3  2  1.50        -9.5241   0.0000                                                             
     4  3  2.50        -9.5241   0.0000                                                             
   Description                                                                                      
     l       E           TYP  RCUT    TYP  RCUT                                                     
     0    -20.6915657     23  1.700                                                                 
     0     95.2407820     23  1.800                                                                 
     1     -8.5948577     23  1.900                                                                 
     1     95.2407820     23  1.900                                                                 
     2    -10.8846608     23  1.900                                                                 
     2     54.4233040     23  1.900                                                                 
     3     27.2116520     23  1.900                                                                 
  local pseudopotential read in
  partial core-charges read in
  partial kinetic energy density read in
  kinetic energy density of atom read in
  atomic valenz-charges read in
  non local Contribution for L=           0  read in
    real space projection operators read in
  non local Contribution for L=           0  read in
    real space projection operators read in
  non local Contribution for L=           1  read in
    real space projection operators read in
  non local Contribution for L=           1  read in
    real space projection operators read in
  non local Contribution for L=           2  read in
    real space projection operators read in
  non local Contribution for L=           2  read in
    real space projection operators read in
    PAW grid and wavefunctions read in
 
   number of l-projection  operators is LMAX  =           6
   number of lm-projection operators is LMMAX =          18
 
 Optimization of the real space projectors (new method)

 maximal supplied QI-value         = 25.13
 optimisation between [QCUT,QGAM] = [ 11.56, 23.12] = [ 37.43,149.72] Ry 
 Optimized for a Real-space Cutoff    1.28 Angstroem

   l    n(q)    QCUT    max X(q) W(low)/X(q) W(high)/X(q)  e(spline) 
   0      9    11.561    87.733    0.11E-03    0.32E-04    0.56E-06
   0      9    11.561    82.800    0.11E-03    0.35E-04    0.56E-06
   0      9    11.561     2.509    0.22E-03    0.42E-04    0.79E-06
   1      8    11.561    12.580    0.94E-04    0.26E-03    0.21E-06
   1      8    11.561     1.319    0.33E-04    0.15E-03    0.19E-06
   2      8    11.561     1.993    0.36E-04    0.89E-04    0.26E-06
 Optimization of the real space projectors (new method)

 maximal supplied QI-value         = 18.90
 optimisation between [QCUT,QGAM] = [ 11.53, 23.24] = [ 37.21,151.29] Ry 
 Optimized for a Real-space Cutoff    1.21 Angstroem

   l    n(q)    QCUT    max X(q) W(low)/X(q) W(high)/X(q)  e(spline) 
   0      8    11.527     8.355    0.73E-04    0.70E-04    0.26E-07
   0      8    11.527     1.401    0.17E-03    0.17E-03    0.63E-07
   1      8    11.527     4.747    0.13E-03    0.17E-03    0.11E-06
   1      8    11.527     2.025    0.16E-03    0.18E-03    0.12E-06
   2      7    11.527     3.169    0.51E-04    0.25E-03    0.60E-07
   2      7    11.527     3.441    0.82E-04    0.22E-03    0.14E-06
 Optimization of the real space projectors (new method)

 maximal supplied QI-value         = 19.84
 optimisation between [QCUT,QGAM] = [ 11.51, 23.22] = [ 37.09,150.92] Ry 
 Optimized for a Real-space Cutoff    1.49 Angstroem

   l    n(q)    QCUT    max X(q) W(low)/X(q) W(high)/X(q)  e(spline) 
   0     10    11.508     7.541    0.34E-04    0.13E-04    0.69E-07
   0     10    11.508     1.809    0.49E-04    0.27E-04    0.14E-06
   1     10    11.508     4.107    0.27E-05    0.41E-05    0.14E-06
   1     10    11.508     2.196    0.26E-05    0.25E-05    0.22E-06
   2      9    11.508     4.265    0.18E-03    0.11E-03    0.81E-06
   2      9    11.508     1.925    0.97E-04    0.76E-04    0.47E-06
 Optimization of the real space projectors (new method)

 maximal supplied QI-value         = 19.84
 optimisation between [QCUT,QGAM] = [ 11.51, 23.22] = [ 37.09,150.92] Ry 
 Optimized for a Real-space Cutoff    1.21 Angstroem

   l    n(q)    QCUT    max X(q) W(low)/X(q) W(high)/X(q)  e(spline) 
   0      8    11.508     6.761    0.57E-04    0.57E-04    0.35E-07
   0      8    11.508     1.642    0.14E-03    0.14E-03    0.91E-07
   1      8    11.508     3.519    0.20E-04    0.72E-04    0.47E-07
   1      8    11.508     2.150    0.27E-04    0.11E-03    0.89E-07
   2      7    11.508     2.976    0.19E-03    0.33E-03    0.16E-06
   2      7    11.508     1.494    0.14E-03    0.29E-03    0.14E-06
  PAW_PBE Li_sv_GW 25Mar2010            :
 energy of atom  1       EATOM= -200.9989
 kinetic energy error for atom=    0.0127 (will be added to EATOM!!)
  PAW_PBE P_GW 19Mar2012                :
 energy of atom  2       EATOM= -176.0430
 kinetic energy error for atom=    0.0011 (will be added to EATOM!!)
  PAW_PBE S_GW 19Mar2012                :
 energy of atom  3       EATOM= -276.8230
 kinetic energy error for atom=    0.0024 (will be added to EATOM!!)
  PAW_PBE Cl_GW 19Mar2012               :
 energy of atom  4       EATOM= -409.7259
 kinetic energy error for atom=    0.0030 (will be added to EATOM!!)
 
 
 POSCAR: Li24 P4 S20 Cl4
  positions in direct lattice
  velocities in cartesian coordinates
 exchange correlation table for  LEXCH =        8
   RHO(1)=    0.500       N(1)  =     2000
   RHO(2)=  100.500       N(2)  =     4000

 VTST: version 4.1, (05/19/21)

 CHAIN: initializing optimizer
 
 OPT: Using VASP Conjugate-Gradient optimizer
 CHAIN: Read ICHAIN            0
 
 POSCAR: Li24 P4 S20 Cl4
  positions in direct lattice
  velocities in cartesian coordinates
 


--------------------------------------------------------------------------------------------------------


 ion  position               nearest neighbor table
   1  0.951  0.250  0.250-
   2  0.001  0.750  0.750-
   3  0.016  0.250  0.750-
   4  0.016  0.750  0.250-
   5  0.296  0.310  0.975-
   6  0.194  0.810  0.025-
   7  0.682  0.286  0.021-
   8  0.808  0.786  0.979-
   9  0.296  0.975  0.310-
  10  0.194  0.025  0.810-
  11  0.808  0.979  0.786-
  12  0.682  0.021  0.286-
  13  0.194  0.690  0.475-
  14  0.296  0.190  0.525-
  15  0.808  0.714  0.521-
  16  0.682  0.214  0.479-
  17  0.194  0.475  0.690-
  18  0.296  0.525  0.190-
  19  0.682  0.479  0.214-
  20  0.808  0.521  0.714-
  21  0.473  0.250  0.750-
  22  0.473  0.750  0.250-
  23  0.489  0.250  0.250-
  24  0.539  0.750  0.750-
  25  0.491  0.508  0.508-  43 2.05  44 2.05  42 2.06  41 2.06
  26  0.491  0.992  0.992-  40 2.05  39 2.05  38 2.06  37 2.06
  27  0.998  0.492  0.008-  36 2.05  35 2.05  34 2.06  33 2.06
  28  0.998  0.008  0.492-  30 2.05  29 2.05  31 2.06  32 2.06
  29  0.132  0.895  0.605-  28 2.05
  30  0.115  0.129  0.371-  28 2.05
  31  0.873  0.890  0.373-  28 2.06
  32  0.873  0.127  0.610-  28 2.06
  33  0.873  0.610  0.127-  27 2.06
  34  0.873  0.373  0.890-  27 2.06
  35  0.132  0.605  0.895-  27 2.05
  36  0.115  0.371  0.129-  27 2.05
  37  0.617  0.110  0.873-  26 2.06
  38  0.617  0.873  0.110-  26 2.06
  39  0.358  0.105  0.105-  26 2.05
  40  0.375  0.871  0.871-  26 2.05
  41  0.617  0.627  0.391-  25 2.06
  42  0.617  0.391  0.627-  25 2.06
  43  0.375  0.629  0.629-  25 2.05
  44  0.358  0.395  0.395-  25 2.05
  45  0.767  0.750  0.750-
  46  0.723  0.250  0.250-
  47  0.245  0.750  0.250-
  48  0.245  0.250  0.750-
  49  0.001  0.953  0.953-
  50  0.001  0.547  0.547-
  51  0.489  0.047  0.453-
  52  0.489  0.453  0.047-
 
  LATTYP: Found a simple cubic cell.
 ALAT       =     9.8603047208
  
  Lattice vectors:
  
 A1 = (   9.8603047208,   0.0000000000,   0.0000000000)
 A2 = (   0.0000000000,   9.8603047208,   0.0000000000)
 A3 = (   0.0000000000,   0.0000000000,   9.8603047208)


Analysis of symmetry for initial positions (statically):
=====================================================================
 Subroutine PRICEL returns:
 Original cell was already a primitive cell.
 

 Routine SETGRP: Setting up the symmetry group for a 
 simple cubic supercell.


 Subroutine GETGRP returns: Found  4 space group operations
 (whereof  2 operations were pure point group operations)
 out of a pool of 48 trial point group operations.


The static configuration has the point symmetry C_1h.
 The point group associated with its full space group is C_2v.


Analysis of symmetry for dynamics (positions and initial velocities):
=====================================================================
 Subroutine PRICEL returns:
 Original cell was already a primitive cell.
 

 Routine SETGRP: Setting up the symmetry group for a 
 simple cubic supercell.


 Subroutine GETGRP returns: Found  4 space group operations
 (whereof  2 operations were pure point group operations)
 out of a pool of 48 trial point group operations.


The dynamic configuration has the point symmetry C_1h.
 The point group associated with its full space group is C_2v.


Analysis of structural, dynamic, and magnetic symmetry:
=====================================================================
 Subroutine PRICEL returns:
 Original cell was already a primitive cell.
 

 Routine SETGRP: Setting up the symmetry group for a 
 simple cubic supercell.


 Subroutine GETGRP returns: Found  4 space group operations
 (whereof  2 operations were pure point group operations)
 out of a pool of 48 trial point group operations.


The overall configuration has the point symmetry C_1h.
 The point group associated with its full space group is C_2v.


 Subroutine INISYM returns: Found  4 space group operations
 (whereof  2 operations are pure point group operations),
 and found     1 'primitive' translations


----------------------------------------------------------------------------------------

                                     Primitive cell                                     

  volume of cell :     958.6741

  direct lattice vectors                    reciprocal lattice vectors
     9.860304721  0.000000000  0.000000000     0.101416744  0.000000000  0.000000000
     0.000000000  9.860304721  0.000000000     0.000000000  0.101416744  0.000000000
     0.000000000  0.000000000  9.860304721     0.000000000  0.000000000  0.101416744

  length of vectors
     9.860304721  9.860304721  9.860304721     0.101416744  0.101416744  0.101416744

  position of ions in fractional coordinates (direct lattice)
     0.951105539  0.250067203  0.250067203
     0.000644745  0.750067203  0.750067203
     0.016471990  0.250067203  0.750067203
     0.016471990  0.750067203  0.250067203
     0.295762811  0.310381899  0.974665118
     0.193978688  0.810340523  0.025468508
     0.682251962  0.286163369  0.020989197
     0.807501520  0.786222891  0.979163803
     0.295762811  0.974665118  0.310381899
     0.193978688  0.025468508  0.810340523
     0.807501520  0.979163803  0.786222891
     0.682251962  0.020989197  0.286163369
     0.193978688  0.689793883  0.474665898
     0.295762811  0.189752507  0.525469288
     0.807501520  0.713911515  0.520970603
     0.682251962  0.213971037  0.479145209
     0.193978688  0.474665898  0.689793883
     0.295762811  0.525469288  0.189752507
     0.682251962  0.479145209  0.213971037
     0.807501520  0.520970603  0.713911515
     0.473337665  0.250067203  0.750067203
     0.473337665  0.750067203  0.250067203
     0.489108018  0.250067203  0.250067203
     0.538642312  0.750067203  0.750067203
     0.491274607  0.508019821  0.508019821
     0.491274607  0.992114585  0.992114585
     0.998291008  0.492093396  0.008041010
     0.998291008  0.008041010  0.492093396
     0.131809340  0.895264997  0.604869410
     0.115161939  0.129255743  0.370878663
     0.872888138  0.890499275  0.373030764
     0.872888138  0.127103642  0.609635131
     0.872888138  0.609635131  0.127103642
     0.872888138  0.373030764  0.890499275
     0.131809340  0.604869410  0.895264997
     0.115161939  0.370878663  0.129255743
     0.616773074  0.109610750  0.873071645
     0.616773074  0.873071645  0.109610750
     0.357798512  0.104895133  0.104895133
     0.374514876  0.870862222  0.870862222
     0.616773074  0.627062761  0.390523656
     0.616773074  0.390523656  0.627062761
     0.374514876  0.629272184  0.629272184
     0.357798512  0.395239274  0.395239274
     0.766965130  0.750067203  0.750067203
     0.722807948  0.250067203  0.250067203
     0.244897978  0.750067203  0.250067203
     0.244897978  0.250067203  0.750067203
     0.000735677  0.953366882  0.953366882
     0.000735677  0.546767524  0.546767524
     0.489045052  0.046847986  0.453286420
     0.489045052  0.453286420  0.046847986

  ion indices of the primitive-cell ions
   primitive index   ion index
                 1           1
                 2           2
                 3           3
                 4           4
                 5           5
                 6           6
                 7           7
                 8           8
                 9           9
                10          10
                11          11
                12          12
                13          13
                14          14
                15          15
                16          16
                17          17
                18          18
                19          19
                20          20
                21          21
                22          22
                23          23
                24          24
                25          25
                26          26
                27          27
                28          28
                29          29
                30          30
                31          31
                32          32
                33          33
                34          34
                35          35
                36          36
                37          37
                38          38
                39          39
                40          40
                41          41
                42          42
                43          43
                44          44
                45          45
                46          46
                47          47
                48          48
                49          49
                50          50
                51          51
                52          52

----------------------------------------------------------------------------------------

 
 
 KPOINTS: Automatic mesh                          

Automatic generation of k-mesh.
 Grid dimensions read from file:
 generate k-points for:    2    2    2

 Generating k-lattice:

  Cartesian coordinates                     Fractional coordinates (reciprocal lattice)
     0.050708372  0.000000000  0.000000000     0.500000000  0.000000000  0.000000000
     0.000000000  0.050708372  0.000000000     0.000000000  0.500000000  0.000000000
     0.000000000  0.000000000  0.050708372     0.000000000  0.000000000  0.500000000

  Length of vectors
     0.050708372  0.050708372  0.050708372

  Shift w.r.t. Gamma in fractional coordinates (k-lattice)
     0.500000000  0.500000000  0.500000000

 
 Subroutine IBZKPT returns following result:
 ===========================================
 
 Found      2 irreducible k-points:
 
 Following reciprocal coordinates:
            Coordinates               Weight
  0.250000  0.250000  0.250000      4.000000
 -0.250000 -0.250000  0.250000      4.000000
 
 Following cartesian coordinates:
            Coordinates               Weight
  0.025354  0.025354  0.025354      4.000000
 -0.025354 -0.025354  0.025354      4.000000
 


--------------------------------------------------------------------------------------------------------




 Dimension of arrays:
   k-points           NKPTS =      2   k-points in BZ     NKDIM =      2   number of bands    NBANDS=    176
   number of dos      NEDOS =    301   number of ions     NIONS =     52
   non local maximal  LDIM  =      6   non local SUM 2l+1 LMDIM =     18
   total plane-waves  NPLWV = 512000
   max r-space proj   IRMAX =   7437   max aug-charges    IRDMAX=  22738
   dimension x,y,z NGX =    80 NGY =   80 NGZ =   80
   dimension x,y,z NGXF=   160 NGYF=  160 NGZF=  160
   support grid    NGXF=   160 NGYF=  160 NGZF=  160
   ions per type =              24   4  20   4
   NGX,Y,Z   is equivalent  to a cutoff of  13.49, 13.49, 13.49 a.u.
   NGXF,Y,Z  is equivalent  to a cutoff of  26.98, 26.98, 26.98 a.u.

 SYSTEM =  unknown system                          
 POSCAR =  Li24 P4 S20 Cl4                         

 Startparameter for this run:
   NWRITE =      2    write-flag & timer
   PREC   = accu      normal or accurate (medium, high low for compatibility)
   ISTART =      0    job   : 0-new  1-cont  2-samecut
   ICHARG =      2    charge: 1-file 2-atom 10-const
   ISPIN  =      2    spin polarized calculation?
   LNONCOLLINEAR =      F non collinear calculations
   LSORBIT =      F    spin-orbit coupling
   INIWAV =      1    electr: 0-lowe 1-rand  2-diag
   LASPH  =      T    aspherical Exc in radial PAW
 Electronic Relaxation 1
   ENCUT  =  520.0 eV  38.22 Ry    6.18 a.u.  18.33 18.33 18.33*2*pi/ulx,y,z
   ENINI  =  520.0     initial cutoff
   ENAUG  = 1041.7 eV  augmentation charge cutoff
   NELM   =    100;   NELMIN=  2; NELMDL=-10     # of ELM steps 
   EDIFF  = 0.1E-05   stopping-criterion for ELM
   LREAL  =      T    real-space projection
   NLSPLINE    = F    spline interpolate recip. space projectors
   LCOMPAT=      F    compatible to vasp.4.4
   GGA_COMPAT  = T    GGA compatible to vasp.4.4-vasp.4.6
   LMAXPAW     = -100 max onsite density
   LMAXMIX     =    4 max onsite mixed and CHGCAR
   VOSKOWN=      0    Vosko Wilk Nusair interpolation
   ROPT   =   -0.00025  -0.00025  -0.00025  -0.00025
 Ionic relaxation
   EDIFFG = -.1E-02   stopping-criterion for IOM
   NSW    =   1000    number of steps for IOM
   NBLOCK =      1;   KBLOCK =   1000    inner block; outer block 
   IBRION =      2    ionic relax: 0-MD 1-quasi-New 2-CG
   NFREE  =      1    steps in history (QN), initial steepest desc. (CG)
   ISIF   =      2    stress and relaxation
   IWAVPR =     11    prediction:  0-non 1-charg 2-wave 3-comb
   ISYM   =      2    0-nonsym 1-usesym 2-fastsym
   LCORR  =      T    Harris-Foulkes like correction to forces

   POTIM  = 0.2000    time-step for ionic-motion
   TEIN   =    0.0    initial temperature
   TEBEG  =    0.0;   TEEND  =   0.0 temperature during run
   SMASS  =  -3.00    Nose mass-parameter (am)
   estimated Nose-frequenzy (Omega)   =  0.10E-29 period in steps = 0.31E+47 mass=  -0.222E-26a.u.
   SCALEE = 1.0000    scale energy and forces
   NPACO  =    256;   APACO  = 10.0  distance and # of slots for P.C.
   PSTRESS=    0.0 pullay stress

  Mass of Ions in am
   POMASS =   7.01 30.97 32.07 35.45
  Ionic Valenz
   ZVAL   =   3.00  5.00  6.00  7.00
  Atomic Wigner-Seitz radii
   RWIGS  =  -1.00 -1.00 -1.00 -1.00
  virtual crystal weights 
   VCA    =   1.00  1.00  1.00  1.00
   NELECT =     240.0000    total number of electrons
   NUPDOWN=      -1.0000    fix difference up-down

 DOS related values:
   EMIN   =  10.00;   EMAX   =-10.00  energy-range for DOS
   EFERMI =   0.00;   METHOD = LEGACY      
   ISMEAR =     0;   SIGMA  =   0.03  broadening in eV -4-tet -1-fermi 0-gaus

 Electronic relaxation 2 (details)
   IALGO  =     68    algorithm
   LDIAG  =      T    sub-space diagonalisation (order eigenvalues)
   LSUBROT=      F    optimize rotation matrix (better conditioning)
   TURBO    =      0    0=normal 1=particle mesh
   IRESTART =      0    0=no restart 2=restart with 2 vectors
   NREBOOT  =      0    no. of reboots
   NMIN     =      0    reboot dimension
   EREF     =   0.00    reference energy to select bands
   IMIX   =      4    mixing-type and parameters
     AMIX     =   0.40;   BMIX     =  1.00
     AMIX_MAG =   1.60;   BMIX_MAG =  1.00
     AMIN     =   0.10
     WC   =   100.;   INIMIX=   1;  MIXPRE=   1;  MAXMIX= -45

 Intra band minimization:
   WEIMIN = 0.0010     energy-eigenvalue tresh-hold
   EBREAK =  0.14E-08  absolut break condition
   DEPER  =   0.30     relativ break condition  

   TIME   =   0.40     timestep for ELM

  volume/ion in A,a.u.               =      18.44       124.41
  Fermi-wavevector in a.u.,A,eV,Ry     =   1.031783  1.949787 14.484430  1.064576
  Thomas-Fermi vector in A             =   2.165948
 
 Write flags
   LWAVE        =      F    write WAVECAR
   LDOWNSAMPLE  =      F    k-point downsampling of WAVECAR
   LCHARG       =      F    write CHGCAR
   LVTOT        =      F    write LOCPOT, total local potential
   LVHAR        =      F    write LOCPOT, Hartree potential only
   LELF         =      F    write electronic localiz. function (ELF)
   LORBIT       =      0    0 simple, 1 ext, 2 COOP (PROOUT), +10 PAW based schemes


 Dipole corrections
   LMONO  =      F    monopole corrections only (constant potential shift)
   LDIPOL =      F    correct potential (dipole corrections)
   IDIPOL =      0    1-x, 2-y, 3-z, 4-all directions 
   EPSILON=  1.0000000 bulk dielectric constant

 Exchange correlation treatment:
   GGA     =    PE    GGA type
   LEXCH   =     8    internal setting for exchange type
   LIBXC   =     F    Libxc                    
   VOSKOWN =     0    Vosko Wilk Nusair interpolation
   LHFCALC =     F    Hartree Fock is set to
   LHFONE  =     F    Hartree Fock one center treatment
   AEXX    =    0.0000 exact exchange contribution

 Linear response parameters
   LEPSILON=     F    determine dielectric tensor
   LRPA    =     F    only Hartree local field effects (RPA)
   LNABLA  =     F    use nabla operator in PAW spheres
   LVEL    =     F    velocity operator in full k-point grid
   CSHIFT  =0.1000    complex shift for real part using Kramers Kronig
   OMEGAMAX=  -1.0    maximum frequency
   DEG_THRESHOLD= 0.2000000E-02 threshold for treating states as degnerate
   RTIME   =   -0.100 relaxation time in fs
  (WPLASMAI=    0.000 imaginary part of plasma frequency in eV, 0.658/RTIME)
   DFIELD  = 0.0000000 0.0000000 0.0000000 field for delta impulse in time
 
  Optional k-point grid parameters
   LKPOINTS_OPT  =     F    use optional k-point grid
   KPOINTS_OPT_MODE=     1    mode for optional k-point grid
 
 Orbital magnetization related:
   ORBITALMAG=     F  switch on orbital magnetization
   LCHIMAG   =     F  perturbation theory with respect to B field
   DQ        =  0.001000  dq finite difference perturbation B field
   LLRAUG    =     F  two centre corrections for induced B field
   LBONE     =     F  B-component reconstruction in AE one-centre
   LVGVCALC  =     T  calculate vGv susceptibility
   LVGVAPPL  =     F  apply vGv susceptibility instead of pGv for G=0

 Random number generation:
   RANDOM_GENERATOR = DEFAULT
   PCG_SEED         = not used


--------------------------------------------------------------------------------------------------------


 conjugate gradient relaxation of ions
 charge density and potential will be updated during run
 spin polarized calculation
 RMM-DIIS sequential band-by-band and
  variant of blocked Davidson during initial phase
 perform sub-space diagonalisation
    before iterative eigenvector-optimisation
 modified Broyden-mixing scheme, WC =      100.0
 initial mixing is a Kerker type mixing with AMIX =  0.4000 and BMIX =      1.0000
 Hartree-type preconditioning will be used
 using additional bands           56
 real space projection scheme for non local part
 use partial core corrections
 calculate Harris-corrections to forces 
   (improved forces if not selfconsistent)
 use gradient corrections 
 use of overlap-Matrix (Vanderbilt PP)
 Gauss-broadening in eV      SIGMA  =   0.03


--------------------------------------------------------------------------------------------------------


  energy-cutoff  :      520.00
  volume of cell :      958.67
      direct lattice vectors                 reciprocal lattice vectors
     9.860304721  0.000000000  0.000000000     0.101416744  0.000000000  0.000000000
     0.000000000  9.860304721  0.000000000     0.000000000  0.101416744  0.000000000
     0.000000000  0.000000000  9.860304721     0.000000000  0.000000000  0.101416744

  length of vectors
     9.860304721  9.860304721  9.860304721     0.101416744  0.101416744  0.101416744


 
 k-points in units of 2pi/SCALE and weight: Automatic mesh                          
   0.02535419  0.02535419  0.02535419       0.500
  -0.02535419 -0.02535419  0.02535419       0.500
 
 k-points in reciprocal lattice and weights: Automatic mesh                          
   0.25000000  0.25000000  0.25000000       0.500
  -0.25000000 -0.25000000  0.25000000       0.500
 
 position of ions in fractional coordinates (direct lattice) 
   0.95110554  0.25006720  0.25006720
   0.00064475  0.75006720  0.75006720
   0.01647199  0.25006720  0.75006720
   0.01647199  0.75006720  0.25006720
   0.29576281  0.31038190  0.97466512
   0.19397869  0.81034052  0.02546851
   0.68225196  0.28616337  0.02098920
   0.80750152  0.78622289  0.97916380
   0.29576281  0.97466512  0.31038190
   0.19397869  0.02546851  0.81034052
   0.80750152  0.97916380  0.78622289
   0.68225196  0.02098920  0.28616337
   0.19397869  0.68979388  0.47466590
   0.29576281  0.18975251  0.52546929
   0.80750152  0.71391151  0.52097060
   0.68225196  0.21397104  0.47914521
   0.19397869  0.47466590  0.68979388
   0.29576281  0.52546929  0.18975251
   0.68225196  0.47914521  0.21397104
   0.80750152  0.52097060  0.71391151
   0.47333767  0.25006720  0.75006720
   0.47333767  0.75006720  0.25006720
   0.48910802  0.25006720  0.25006720
   0.53864231  0.75006720  0.75006720
   0.49127461  0.50801982  0.50801982
   0.49127461  0.99211458  0.99211458
   0.99829101  0.49209340  0.00804101
   0.99829101  0.00804101  0.49209340
   0.13180934  0.89526500  0.60486941
   0.11516194  0.12925574  0.37087866
   0.87288814  0.89049928  0.37303076
   0.87288814  0.12710364  0.60963513
   0.87288814  0.60963513  0.12710364
   0.87288814  0.37303076  0.89049928
   0.13180934  0.60486941  0.89526500
   0.11516194  0.37087866  0.12925574
   0.61677307  0.10961075  0.87307164
   0.61677307  0.87307164  0.10961075
   0.35779851  0.10489513  0.10489513
   0.37451488  0.87086222  0.87086222
   0.61677307  0.62706276  0.39052366
   0.61677307  0.39052366  0.62706276
   0.37451488  0.62927218  0.62927218
   0.35779851  0.39523927  0.39523927
   0.76696513  0.75006720  0.75006720
   0.72280795  0.25006720  0.25006720
   0.24489798  0.75006720  0.25006720
   0.24489798  0.25006720  0.75006720
   0.00073568  0.95336688  0.95336688
   0.00073568  0.54676752  0.54676752
   0.48904505  0.04684799  0.45328642
   0.48904505  0.45328642  0.04684799
 
 position of ions in cartesian coordinates  (Angst):
   9.37819043  2.46573882  2.46573882
   0.00635738  7.39589118  7.39589118
   0.16241884  2.46573882  7.39589118
   0.16241884  7.39589118  2.46573882
   2.91631144  3.06046011  9.61049507
   1.91268897  7.99020448  0.25112725
   6.72721224  2.82165802  0.20695988
   7.96221105  7.75239728  9.65485347
   2.91631144  9.61049507  3.06046011
   1.91268897  0.25112725  7.99020448
   7.96221105  9.65485347  7.75239728
   6.72721224  0.20695988  2.82165802
   1.91268897  6.80157788  4.68035040
   2.91631144  1.87101754  5.18128730
   7.96221105  7.03938508  5.13692890
   6.72721224  2.10981963  4.72451777
   1.91268897  4.68035040  6.80157788
   2.91631144  5.18128730  1.87101754
   6.72721224  4.72451777  2.10981963
   7.96221105  5.13692890  7.03938508
   4.66725362  2.46573882  7.39589118
   4.66725362  7.39589118  2.46573882
   4.82275410  2.46573882  2.46573882
   5.31117733  7.39589118  7.39589118
   4.84411732  5.00923024  5.00923024
   4.84411732  9.78255212  9.78255212
   9.84345354  4.85219084  0.07928680
   9.84345354  0.07928680  4.85219084
   1.29968026  8.82758567  5.96419669
   1.13553181  1.27450101  3.65697664
   8.60694302  8.78059421  3.67819700
   8.60694302  1.25328064  6.01118816
   8.60694302  6.01118816  1.25328064
   8.60694302  3.67819700  8.78059421
   1.29968026  5.96419669  8.82758567
   1.13553181  3.65697664  1.27450101
   6.08157045  1.08079539  8.60875246
   6.08157045  8.60875246  1.08079539
   3.52800236  1.03429797  1.03429797
   3.69283080  8.58696688  8.58696688
   6.08157045  6.18302991  3.85068225
   6.08157045  3.85068225  6.18302991
   3.69283080  6.20481548  6.20481548
   3.52800236  3.89717967  3.89717967
   7.56250989  7.39589118  7.39589118
   7.12710662  2.46573882  2.46573882
   2.41476869  7.39589118  2.46573882
   2.41476869  2.46573882  7.39589118
   0.00725400  9.40048797  9.40048797
   0.00725400  5.39129440  5.39129440
   4.82213324  0.46193541  4.46954223
   4.82213324  4.46954223  0.46193541
 


--------------------------------------------------------------------------------------------------------


 k-point   1 :   0.2500 0.2500 0.2500  plane waves:   25767
 k-point   2 :  -0.2500-0.2500 0.2500  plane waves:   25767

 maximum and minimum number of plane-waves per node :       827      776

 maximum number of plane-waves:     25767
 maximum index in each direction: 
   IXMAX=   18   IYMAX=   18   IZMAX=   18
   IXMIN=  -18   IYMIN=  -18   IZMIN=  -18


 real space projection operators:
  total allocation   :      36561.08 KBytes
  max/ min on nodes  :       1397.69        895.45


 parallel 3D FFT for wavefunctions:
    minimum data exchange during FFTs selected (reduces bandwidth)
 parallel 3D FFT for charge:
    minimum data exchange during FFTs selected (reduces bandwidth)


 total amount of memory used by VASP MPI-rank0    49365. kBytes
=======================================================================

   base      :      30000. kBytes
   nonlr-proj:       8246. kBytes
   fftplans  :       2171. kBytes
   grid      :       6510. kBytes
   one-center:         62. kBytes
   wavefun   :       2376. kBytes
 
     INWAV:  cpu time      0.0000: real time      0.0000
 Broyden mixing: mesh for mixing (old mesh)
   NGX = 37   NGY = 37   NGZ = 37
  (NGX  =160   NGY  =160   NGZ  =160)
  gives a total of  50653 points

 initial charge density was supplied:
 charge density of overlapping atoms calculated
 number of electron     240.0000000 magnetization      52.0000000
 keeping initial charge density in first step


--------------------------------------------------------------------------------------------------------


 Maximum index for non-local projection operator          470
 Maximum index for augmentation-charges          944 (set IRDMAX)


--------------------------------------------------------------------------------------------------------


 First call to EWALD:  gamma=   0.180
 Maximum number of real-space cells 3x 3x 3
 Maximum number of reciprocal cells 3x 3x 3

    FEWALD:  cpu time      0.0028: real time      0.0036


--------------------------------------- Ionic step        1  -------------------------------------------




--------------------------------------- Iteration      1(   1)  ---------------------------------------


    POTLOK:  cpu time      0.0720: real time      0.0965
    SETDIJ:  cpu time      0.4315: real time      0.4391
     EDDAV:  cpu time      1.4811: real time      1.6323
       DOS:  cpu time      0.0027: real time      0.0040
    --------------------------------------------
      LOOP:  cpu time      1.9873: real time      2.1719

 eigenvalue-minimisations  :  1568
 total energy-change (2. order) : 0.1577800E+04  (-0.1128896E+05)
 number of electron     240.0000000 magnetization      52.0000000
 augmentation part      240.0000000 magnetization      52.0000000

 Free energy of the ion-electron system (eV)
  ---------------------------------------------------
  alpha Z        PSCENC =       283.15930749
  Ewald energy   TEWEN  =     -8374.16675083
  -Hartree energ DENC   =     -2390.34198410
  -exchange      EXHF   =         0.00000000
  -V(xc)+E(xc)   XCENC  =       532.01282180
  PAW double counting   =      8141.38806575    -8271.61346273
  entropy T*S    EENTRO =        -0.01348998
  eigenvalues    EBANDS =     -1045.76492550
  atomic energy  EATOM  =     12703.13999606
  Solvation  Ediel_sol  =         0.00000000
  ---------------------------------------------------
  free energy    TOTEN  =      1577.79957796 eV

  energy without entropy =     1577.81306794  energy(sigma->0) =     1577.80632295


--------------------------------------------------------------------------------------------------------




--------------------------------------- Iteration      1(   2)  ---------------------------------------


     EDDAV:  cpu time      1.6128: real time      1.6365
       DOS:  cpu time      0.0003: real time      0.0003
    --------------------------------------------
      LOOP:  cpu time      1.6131: real time      1.6367

 eigenvalue-minimisations  :  1912
 total energy-change (2. order) :-0.1635086E+04  (-0.1537120E+04)
 number of electron     240.0000000 magnetization      52.0000000
 augmentation part      240.0000000 magnetization      52.0000000

 Free energy of the ion-electron system (eV)
  ---------------------------------------------------
  alpha Z        PSCENC =       283.15930749
  Ewald energy   TEWEN  =     -8374.16675083
  -Hartree energ DENC   =     -2390.34198410
  -exchange      EXHF   =         0.00000000
  -V(xc)+E(xc)   XCENC  =       532.01282180
  PAW double counting   =      8141.38806575    -8271.61346273
  entropy T*S    EENTRO =        -0.00000000
  eigenvalues    EBANDS =     -2680.86471922
  atomic energy  EATOM  =     12703.13999606
  Solvation  Ediel_sol  =         0.00000000
  ---------------------------------------------------
  free energy    TOTEN  =       -57.28672578 eV

  energy without entropy =      -57.28672578  energy(sigma->0) =      -57.28672578


--------------------------------------------------------------------------------------------------------




--------------------------------------- Iteration      1(   3)  ---------------------------------------


     EDDAV:  cpu time      1.6040: real time      1.6254
       DOS:  cpu time      0.0004: real time      0.0004
    --------------------------------------------
      LOOP:  cpu time      1.6044: real time      1.6258

 eigenvalue-minimisations  :  1896
 total energy-change (2. order) :-0.1735494E+03  (-0.1714853E+03)
 number of electron     240.0000000 magnetization      52.0000000
 augmentation part      240.0000000 magnetization      52.0000000

 Free energy of the ion-electron system (eV)
  ---------------------------------------------------
  alpha Z        PSCENC =       283.15930749
  Ewald energy   TEWEN  =     -8374.16675083
  -Hartree energ DENC   =     -2390.34198410
  -exchange      EXHF   =         0.00000000
  -V(xc)+E(xc)   XCENC  =       532.01282180
  PAW double counting   =      8141.38806575    -8271.61346273
  entropy T*S    EENTRO =        -0.00000000
  eigenvalues    EBANDS =     -2854.41415153
  atomic energy  EATOM  =     12703.13999606
  Solvation  Ediel_sol  =         0.00000000
  ---------------------------------------------------
  free energy    TOTEN  =      -230.83615809 eV

  energy without entropy =     -230.83615809  energy(sigma->0) =     -230.83615809


--------------------------------------------------------------------------------------------------------




--------------------------------------- Iteration      1(   4)  ---------------------------------------


     EDDAV:  cpu time      1.8869: real time      1.9098
       DOS:  cpu time      0.0003: real time      0.0003
    --------------------------------------------
      LOOP:  cpu time      1.8871: real time      1.9101

 eigenvalue-minimisations  :  2304
 total energy-change (2. order) :-0.1271838E+02  (-0.1269280E+02)
 number of electron     240.0000000 magnetization      52.0000000
 augmentation part      240.0000000 magnetization      52.0000000

 Free energy of the ion-electron system (eV)
  ---------------------------------------------------
  alpha Z        PSCENC =       283.15930749
  Ewald energy   TEWEN  =     -8374.16675083
  -Hartree energ DENC   =     -2390.34198410
  -exchange      EXHF   =         0.00000000
  -V(xc)+E(xc)   XCENC  =       532.01282180
  PAW double counting   =      8141.38806575    -8271.61346273
  entropy T*S    EENTRO =        -0.00000000
  eigenvalues    EBANDS =     -2867.13252944
  atomic energy  EATOM  =     12703.13999606
  Solvation  Ediel_sol  =         0.00000000
  ---------------------------------------------------
  free energy    TOTEN  =      -243.55453600 eV

  energy without entropy =     -243.55453600  energy(sigma->0) =     -243.55453600


--------------------------------------------------------------------------------------------------------




--------------------------------------- Iteration      1(   5)  ---------------------------------------


     EDDAV:  cpu time      1.9432: real time      1.9864
       DOS:  cpu time      0.0003: real time      0.0003
    --------------------------------------------
      LOOP:  cpu time      1.9435: real time      1.9867

 eigenvalue-minimisations  :  2352
 total energy-change (2. order) :-0.3439568E+00  (-0.3438457E+00)
 number of electron     240.0000000 magnetization      52.0000000
 augmentation part      240.0000000 magnetization      52.0000000

 Free energy of the ion-electron system (eV)
  ---------------------------------------------------
  alpha Z        PSCENC =       283.15930749
  Ewald energy   TEWEN  =     -8374.16675083
  -Hartree energ DENC   =     -2390.34198410
  -exchange      EXHF   =         0.00000000
  -V(xc)+E(xc)   XCENC  =       532.01282180
  PAW double counting   =      8141.38806575    -8271.61346273
  entropy T*S    EENTRO =        -0.00000000
  eigenvalues    EBANDS =     -2867.47648624
  atomic energy  EATOM  =     12703.13999606
  Solvation  Ediel_sol  =         0.00000000
  ---------------------------------------------------
  free energy    TOTEN  =      -243.89849281 eV

  energy without entropy =     -243.89849281  energy(sigma->0) =     -243.89849281


--------------------------------------------------------------------------------------------------------




--------------------------------------- Iteration      1(   6)  ---------------------------------------


     EDDAV:  cpu time      1.8962: real time      1.9206
       DOS:  cpu time      0.0003: real time      0.0003
    --------------------------------------------
      LOOP:  cpu time      1.8965: real time      1.9210

 eigenvalue-minimisations  :  2288
 total energy-change (2. order) :-0.7431045E-02  (-0.7429835E-02)
 number of electron     240.0000000 magnetization      52.0000000
 augmentation part      240.0000000 magnetization      52.0000000

 Free energy of the ion-electron system (eV)
  ---------------------------------------------------
  alpha Z        PSCENC =       283.15930749
  Ewald energy   TEWEN  =     -8374.16675083
  -Hartree energ DENC   =     -2390.34198410
  -exchange      EXHF   =         0.00000000
  -V(xc)+E(xc)   XCENC  =       532.01282180
  PAW double counting   =      8141.38806575    -8271.61346273
  entropy T*S    EENTRO =        -0.00000000
  eigenvalues    EBANDS =     -2867.48391729
  atomic energy  EATOM  =     12703.13999606
  Solvation  Ediel_sol  =         0.00000000
  ---------------------------------------------------
  free energy    TOTEN  =      -243.90592385 eV

  energy without entropy =     -243.90592385  energy(sigma->0) =     -243.90592385


--------------------------------------------------------------------------------------------------------




--------------------------------------- Iteration      1(   7)  ---------------------------------------


     EDDAV:  cpu time      1.8830: real time      1.9085
       DOS:  cpu time      0.0003: real time      0.0003
    --------------------------------------------
      LOOP:  cpu time      1.8833: real time      1.9088

 eigenvalue-minimisations  :  2304
 total energy-change (2. order) :-0.3736408E-03  (-0.3736182E-03)
 number of electron     240.0000000 magnetization      52.0000000
 augmentation part      240.0000000 magnetization      52.0000000

 Free energy of the ion-electron system (eV)
  ---------------------------------------------------
  alpha Z        PSCENC =       283.15930749
  Ewald energy   TEWEN  =     -8374.16675083
  -Hartree energ DENC   =     -2390.34198410
  -exchange      EXHF   =         0.00000000
  -V(xc)+E(xc)   XCENC  =       532.01282180
  PAW double counting   =      8141.38806575    -8271.61346273
  entropy T*S    EENTRO =        -0.00000000
  eigenvalues    EBANDS =     -2867.48429093
  atomic energy  EATOM  =     12703.13999606
  Solvation  Ediel_sol  =         0.00000000
  ---------------------------------------------------
  free energy    TOTEN  =      -243.90629749 eV

  energy without entropy =     -243.90629749  energy(sigma->0) =     -243.90629749


--------------------------------------------------------------------------------------------------------




--------------------------------------- Iteration      1(   8)  ---------------------------------------


     EDDAV:  cpu time      1.8417: real time      1.8641
       DOS:  cpu time      0.0003: real time      0.0003
    --------------------------------------------
      LOOP:  cpu time      1.8419: real time      1.8643

 eigenvalue-minimisations  :  2240
 total energy-change (2. order) :-0.2255577E-04  (-0.2255459E-04)
 number of electron     240.0000000 magnetization      52.0000000
 augmentation part      240.0000000 magnetization      52.0000000

 Free energy of the ion-electron system (eV)
  ---------------------------------------------------
  alpha Z        PSCENC =       283.15930749
  Ewald energy   TEWEN  =     -8374.16675083
  -Hartree energ DENC   =     -2390.34198410
  -exchange      EXHF   =         0.00000000
  -V(xc)+E(xc)   XCENC  =       532.01282180
  PAW double counting   =      8141.38806575    -8271.61346273
  entropy T*S    EENTRO =        -0.00000000
  eigenvalues    EBANDS =     -2867.48431349
  atomic energy  EATOM  =     12703.13999606
  Solvation  Ediel_sol  =         0.00000000
  ---------------------------------------------------
  free energy    TOTEN  =      -243.90632005 eV

  energy without entropy =     -243.90632005  energy(sigma->0) =     -243.90632005


--------------------------------------------------------------------------------------------------------




--------------------------------------- Iteration      1(   9)  ---------------------------------------


     EDDAV:  cpu time      1.8340: real time      1.8620
       DOS:  cpu time      0.0004: real time      0.0003
    --------------------------------------------
      LOOP:  cpu time      1.8344: real time      1.8624

 eigenvalue-minimisations  :  2232
 total energy-change (2. order) :-0.1452938E-05  (-0.1453787E-05)
 number of electron     240.0000000 magnetization      52.0000000
 augmentation part      240.0000000 magnetization      52.0000000

 Free energy of the ion-electron system (eV)
  ---------------------------------------------------
  alpha Z        PSCENC =       283.15930749
  Ewald energy   TEWEN  =     -8374.16675083
  -Hartree energ DENC   =     -2390.34198410
  -exchange      EXHF   =         0.00000000
  -V(xc)+E(xc)   XCENC  =       532.01282180
  PAW double counting   =      8141.38806575    -8271.61346273
  entropy T*S    EENTRO =        -0.00000000
  eigenvalues    EBANDS =     -2867.48431494
  atomic energy  EATOM  =     12703.13999606
  Solvation  Ediel_sol  =         0.00000000
  ---------------------------------------------------
  free energy    TOTEN  =      -243.90632150 eV

  energy without entropy =     -243.90632150  energy(sigma->0) =     -243.90632150


--------------------------------------------------------------------------------------------------------




--------------------------------------- Iteration      1(  10)  ---------------------------------------


     EDDAV:  cpu time      1.2106: real time      1.2266
       DOS:  cpu time      0.0003: real time      0.0003
    CHARGE:  cpu time      0.1623: real time      0.2090
    MIXING:  cpu time      0.0020: real time      0.0035
    --------------------------------------------
      LOOP:  cpu time      1.3753: real time      1.4395

 eigenvalue-minimisations  :  1304
 total energy-change (2. order) :-0.6396476E-07  (-0.6375728E-07)
 number of electron     240.0000010 magnetization      27.9728779
 augmentation part        1.4699876 magnetization      28.4116405

 Broyden mixing:
  rms(total) = 0.65372E+01    rms(broyden)= 0.65369E+01
  rms(prec ) = 0.68043E+01
  weight for this iteration     100.00

 Free energy of the ion-electron system (eV)
  ---------------------------------------------------
  alpha Z        PSCENC =       283.15930749
  Ewald energy   TEWEN  =     -8374.16675083
  -Hartree energ DENC   =     -2390.34198410
  -exchange      EXHF   =         0.00000000
  -V(xc)+E(xc)   XCENC  =       532.01282180
  PAW double counting   =      8141.38806575    -8271.61346273
  entropy T*S    EENTRO =        -0.00000000
  eigenvalues    EBANDS =     -2867.48431500
  atomic energy  EATOM  =     12703.13999606
  Solvation  Ediel_sol  =         0.00000000
  ---------------------------------------------------
  free energy    TOTEN  =      -243.90632156 eV

  energy without entropy =     -243.90632156  energy(sigma->0) =     -243.90632156


--------------------------------------------------------------------------------------------------------




--------------------------------------- Iteration      1(  11)  ---------------------------------------


    POTLOK:  cpu time      0.0708: real time      0.0719
    SETDIJ:  cpu time      0.3964: real time      0.3997
    EDDIAG:  cpu time      0.2008: real time      0.2041
  RMM-DIIS:  cpu time      0.8067: real time      0.8170
    ORTHCH:  cpu time      0.0358: real time      0.0396
       DOS:  cpu time      0.0005: real time      0.0005
    CHARGE:  cpu time      0.1416: real time      0.1753
    MIXING:  cpu time      0.0013: real time      0.0074
    --------------------------------------------
      LOOP:  cpu time      1.6539: real time      1.7156

 eigenvalue-minimisations  :  1408
 total energy-change (2. order) : 0.1198693E+02  (-0.5535328E+01)
 number of electron     240.0000010 magnetization      16.9267318
 augmentation part        1.6635044 magnetization      17.1331287

 Broyden mixing:
  rms(total) = 0.33315E+01    rms(broyden)= 0.33314E+01
  rms(prec ) = 0.34707E+01
  weight for this iteration     100.00

 eigenvalues of (default mixing * dielectric matrix)
  average eigenvalue GAMMA=   0.7281
  0.7281

 Free energy of the ion-electron system (eV)
  ---------------------------------------------------
  alpha Z        PSCENC =       283.15930749
  Ewald energy   TEWEN  =     -8374.16675083
  -Hartree energ DENC   =     -2451.91465475
  -exchange      EXHF   =         0.00000000
  -V(xc)+E(xc)   XCENC  =       541.95374358
  PAW double counting   =      8952.63423036    -9089.11065125
  entropy T*S    EENTRO =        -0.00000000
  eigenvalues    EBANDS =     -2797.61461707
  atomic energy  EATOM  =     12703.13999606
  Solvation  Ediel_sol  =         0.00000000
  ---------------------------------------------------
  free energy    TOTEN  =      -231.91939640 eV

  energy without entropy =     -231.91939640  energy(sigma->0) =     -231.91939640


--------------------------------------------------------------------------------------------------------




--------------------------------------- Iteration      1(  12)  ---------------------------------------


    POTLOK:  cpu time      0.0680: real time      0.0692
    SETDIJ:  cpu time      0.4081: real time      0.4102
    EDDIAG:  cpu time      0.1944: real time      0.1965
  RMM-DIIS:  cpu time      0.8350: real time      0.8466
    ORTHCH:  cpu time      0.0433: real time      0.0489
       DOS:  cpu time      0.0003: real time      0.0003
    CHARGE:  cpu time      0.1360: real time      0.1909
    MIXING:  cpu time      0.0014: real time      0.0014
    --------------------------------------------
      LOOP:  cpu time      1.6864: real time      1.7641

 eigenvalue-minimisations  :  1492
 total energy-change (2. order) :-0.2382689E+02  (-0.2961821E+01)
 number of electron     240.0000010 magnetization       1.7474529
 augmentation part        1.8050026 magnetization       2.1060004

 Broyden mixing:
  rms(total) = 0.20999E+01    rms(broyden)= 0.20999E+01
  rms(prec ) = 0.21673E+01
  weight for this iteration     100.00

 eigenvalues of (default mixing * dielectric matrix)
  average eigenvalue GAMMA=   1.0964
  1.5269  0.6659

 Free energy of the ion-electron system (eV)
  ---------------------------------------------------
  alpha Z        PSCENC =       283.15930749
  Ewald energy   TEWEN  =     -8374.16675083
  -Hartree energ DENC   =     -2486.79652150
  -exchange      EXHF   =         0.00000000
  -V(xc)+E(xc)   XCENC  =       535.42564369
  PAW double counting   =      9328.00328911    -9468.23205146
  entropy T*S    EENTRO =        -0.00000000
  eigenvalues    EBANDS =     -2776.27920325
  atomic energy  EATOM  =     12703.13999606
  Solvation  Ediel_sol  =         0.00000000
  ---------------------------------------------------
  free energy    TOTEN  =      -255.74629069 eV

  energy without entropy =     -255.74629069  energy(sigma->0) =     -255.74629069


--------------------------------------------------------------------------------------------------------




--------------------------------------- Iteration      1(  13)  ---------------------------------------


    POTLOK:  cpu time      0.0682: real time      0.0696
    SETDIJ:  cpu time      0.4090: real time      0.4109
    EDDIAG:  cpu time      0.1926: real time      0.1945
  RMM-DIIS:  cpu time      0.8261: real time      0.8370
    ORTHCH:  cpu time      0.0362: real time      0.0370
       DOS:  cpu time      0.0003: real time      0.0003
    CHARGE:  cpu time      0.1251: real time      0.1720
    MIXING:  cpu time      0.0014: real time      0.0014
    --------------------------------------------
      LOOP:  cpu time      1.6589: real time      1.7227

 eigenvalue-minimisations  :  1454
 total energy-change (2. order) :-0.2575361E+01  (-0.1020404E+01)
 number of electron     240.0000010 magnetization      -1.6122605
 augmentation part        1.9177970 magnetization      -1.4866474

 Broyden mixing:
  rms(total) = 0.76258E+00    rms(broyden)= 0.76258E+00
  rms(prec ) = 0.79921E+00
  weight for this iteration     100.00

 eigenvalues of (default mixing * dielectric matrix)
  average eigenvalue GAMMA=   1.3065
  2.5199  0.7463  0.6534

 Free energy of the ion-electron system (eV)
  ---------------------------------------------------
  alpha Z        PSCENC =       283.15930749
  Ewald energy   TEWEN  =     -8374.16675083
  -Hartree energ DENC   =     -2523.44207466
  -exchange      EXHF   =         0.00000000
  -V(xc)+E(xc)   XCENC  =       536.73214109
  PAW double counting   =      9804.74826926    -9948.75951642
  entropy T*S    EENTRO =        -0.00000000
  eigenvalues    EBANDS =     -2739.73302357
  atomic energy  EATOM  =     12703.13999606
  Solvation  Ediel_sol  =         0.00000000
  ---------------------------------------------------
  free energy    TOTEN  =      -258.32165158 eV

  energy without entropy =     -258.32165158  energy(sigma->0) =     -258.32165158


--------------------------------------------------------------------------------------------------------




--------------------------------------- Iteration      1(  14)  ---------------------------------------


    POTLOK:  cpu time      0.0668: real time      0.0691
    SETDIJ:  cpu time      0.4077: real time      0.4097
    EDDIAG:  cpu time      0.1952: real time      0.1974
  RMM-DIIS:  cpu time      1.0434: real time      1.0585
    ORTHCH:  cpu time      0.0357: real time      0.0363
       DOS:  cpu time      0.0004: real time      0.0004
    CHARGE:  cpu time      0.1298: real time      0.1533
    MIXING:  cpu time      0.0014: real time      0.0014
    --------------------------------------------
      LOOP:  cpu time      1.8803: real time      1.9261

 eigenvalue-minimisations  :  1831
 total energy-change (2. order) :-0.2746768E+00  (-0.2531245E+00)
 number of electron     240.0000010 magnetization      -0.8212202
 augmentation part        1.9008383 magnetization      -0.7893294

 Broyden mixing:
  rms(total) = 0.34676E+00    rms(broyden)= 0.34675E+00
  rms(prec ) = 0.38764E+00
  weight for this iteration     100.00

 eigenvalues of (default mixing * dielectric matrix)
  average eigenvalue GAMMA=   1.2789
  2.6403  1.1826  0.6924  0.6002

 Free energy of the ion-electron system (eV)
  ---------------------------------------------------
  alpha Z        PSCENC =       283.15930749
  Ewald energy   TEWEN  =     -8374.16675083
  -Hartree energ DENC   =     -2529.12044029
  -exchange      EXHF   =         0.00000000
  -V(xc)+E(xc)   XCENC  =       537.40147771
  PAW double counting   =      9897.19335761   -10042.15684183
  entropy T*S    EENTRO =        -0.00000000
  eigenvalues    EBANDS =     -2734.04643429
  atomic energy  EATOM  =     12703.13999606
  Solvation  Ediel_sol  =         0.00000000
  ---------------------------------------------------
  free energy    TOTEN  =      -258.59632836 eV

  energy without entropy =     -258.59632836  energy(sigma->0) =     -258.59632836


--------------------------------------------------------------------------------------------------------




--------------------------------------- Iteration      1(  15)  ---------------------------------------


    POTLOK:  cpu time      0.0661: real time      0.0685
    SETDIJ:  cpu time      0.4063: real time      0.4082
    EDDIAG:  cpu time      0.1919: real time      0.1932
  RMM-DIIS:  cpu time      0.8446: real time      0.8563
    ORTHCH:  cpu time      0.0349: real time      0.0362
       DOS:  cpu time      0.0004: real time      0.0004
    CHARGE:  cpu time      0.1247: real time      0.1521
    MIXING:  cpu time      0.0015: real time      0.0015
    --------------------------------------------
      LOOP:  cpu time      1.6703: real time      1.7165

 eigenvalue-minimisations  :  1492
 total energy-change (2. order) : 0.4578404E-01  (-0.4328357E-01)
 number of electron     240.0000010 magnetization      -0.2078828
 augmentation part        1.8492492 magnetization      -0.1778566

 Broyden mixing:
  rms(total) = 0.76782E-01    rms(broyden)= 0.76779E-01
  rms(prec ) = 0.92455E-01
  weight for this iteration     100.00

 eigenvalues of (default mixing * dielectric matrix)
  average eigenvalue GAMMA=   1.2766
  2.5359  1.5968  0.9580  0.6869  0.6054

 Free energy of the ion-electron system (eV)
  ---------------------------------------------------
  alpha Z        PSCENC =       283.15930749
  Ewald energy   TEWEN  =     -8374.16675083
  -Hartree energ DENC   =     -2524.16300271
  -exchange      EXHF   =         0.00000000
  -V(xc)+E(xc)   XCENC  =       537.02579149
  PAW double counting   =      9858.44135428   -10003.17427396
  entropy T*S    EENTRO =        -0.00000000
  eigenvalues    EBANDS =     -2738.81296615
  atomic energy  EATOM  =     12703.13999606
  Solvation  Ediel_sol  =         0.00000000
  ---------------------------------------------------
  free energy    TOTEN  =      -258.55054432 eV

  energy without entropy =     -258.55054432  energy(sigma->0) =     -258.55054432


--------------------------------------------------------------------------------------------------------




--------------------------------------- Iteration      1(  16)  ---------------------------------------


    POTLOK:  cpu time      0.0662: real time      0.0681
    SETDIJ:  cpu time      0.4077: real time      0.4091
    EDDIAG:  cpu time      0.1921: real time      0.1949
  RMM-DIIS:  cpu time      0.8937: real time      0.9051
    ORTHCH:  cpu time      0.0347: real time      0.0350
       DOS:  cpu time      0.0003: real time      0.0003
    CHARGE:  cpu time      0.1121: real time      0.1149
    MIXING:  cpu time      0.0016: real time      0.0016
    --------------------------------------------
      LOOP:  cpu time      1.7084: real time      1.7291

 eigenvalue-minimisations  :  1578
 total energy-change (2. order) :-0.2602311E-01  (-0.1589062E-01)
 number of electron     240.0000010 magnetization      -0.1066329
 augmentation part        1.8232594 magnetization      -0.0901504

 Broyden mixing:
  rms(total) = 0.34987E-01    rms(broyden)= 0.34985E-01
  rms(prec ) = 0.43684E-01
  weight for this iteration     100.00

 eigenvalues of (default mixing * dielectric matrix)
  average eigenvalue GAMMA=   1.2459
  2.4100  1.9746  1.0438  0.6242  0.7113  0.7113

 Free energy of the ion-electron system (eV)
  ---------------------------------------------------
  alpha Z        PSCENC =       283.15930749
  Ewald energy   TEWEN  =     -8374.16675083
  -Hartree energ DENC   =     -2523.47981759
  -exchange      EXHF   =         0.00000000
  -V(xc)+E(xc)   XCENC  =       536.93932440
  PAW double counting   =      9843.03858763    -9987.50364195
  entropy T*S    EENTRO =        -0.00000000
  eigenvalues    EBANDS =     -2739.70357263
  atomic energy  EATOM  =     12703.13999606
  Solvation  Ediel_sol  =         0.00000000
  ---------------------------------------------------
  free energy    TOTEN  =      -258.57656742 eV

  energy without entropy =     -258.57656742  energy(sigma->0) =     -258.57656742


--------------------------------------------------------------------------------------------------------




[...]
 -0.000   0.000  -0.000  -0.002   0.003  -0.000  -0.000   0.000   0.000  -0.000  -0.000   0.000   0.000  -0.000
 -0.001   0.001   0.000   0.000   0.000   0.008   0.000   0.000   0.000   0.000  -0.000   0.000   0.000  -0.000
  0.000   0.000   0.000   0.006  -0.007  -0.000   0.000  -0.000   0.000   0.000   0.000   0.000  -0.000   0.000
 -0.028   0.028   0.000   0.000   0.000  -0.006  -0.000  -0.000  -0.000   0.000   0.000   0.000   0.000  -0.000
 -0.027   0.027   0.000   0.000   0.000   0.005   0.000   0.000   0.000   0.000   0.000   0.000  -0.000  -0.000
  0.000  -0.000   0.000  -0.007   0.006   0.000  -0.000   0.000   0.000  -0.000   0.000  -0.000   0.000   0.000
  0.047  -0.047  -0.000   0.000  -0.000  -0.009   0.000  -0.000  -0.000   0.000  -0.000  -0.000   0.000   0.000
 total augmentation occupancy for first ion, spin component:           2
 -0.000   0.000  -0.000   0.000  -0.000  -0.000   0.000   0.000  -0.000   0.000   0.000   0.000  -0.000  -0.000
  0.000  -0.000   0.000   0.000   0.000   0.000   0.000   0.000   0.000   0.000  -0.000  -0.000  -0.000   0.000
 -0.000   0.000   0.000   0.000   0.000  -0.000  -0.000   0.000  -0.000   0.000   0.000   0.000   0.000  -0.000
  0.000   0.000   0.000   0.000  -0.000   0.000   0.000  -0.000   0.000   0.000  -0.000   0.000  -0.000   0.000
 -0.000   0.000   0.000  -0.000   0.000   0.000  -0.000   0.000   0.000  -0.000  -0.000   0.000   0.000   0.000
 -0.000   0.000  -0.000   0.000   0.000   0.000   0.000   0.000   0.000  -0.000   0.000   0.000  -0.000  -0.000
  0.000   0.000  -0.000   0.000  -0.000   0.000  -0.000   0.000   0.000  -0.000   0.000   0.000   0.000   0.000
  0.000   0.000   0.000  -0.000   0.000   0.000   0.000  -0.000   0.000   0.000   0.000   0.000  -0.000   0.000
 -0.000   0.000  -0.000   0.000   0.000   0.000   0.000   0.000  -0.000   0.000   0.000  -0.000   0.000   0.000
  0.000   0.000   0.000   0.000  -0.000  -0.000  -0.000   0.000   0.000  -0.000  -0.000   0.000   0.000   0.000
  0.000  -0.000   0.000  -0.000  -0.000   0.000   0.000   0.000   0.000  -0.000  -0.000  -0.000   0.000   0.000
  0.000  -0.000   0.000   0.000   0.000   0.000   0.000   0.000  -0.000   0.000  -0.000  -0.000  -0.000   0.000
 -0.000  -0.000   0.000  -0.000   0.000  -0.000   0.000  -0.000   0.000   0.000   0.000   0.000  -0.000   0.000
 -0.000   0.000  -0.000   0.000   0.000  -0.000   0.000   0.000   0.000   0.000   0.000   0.000   0.000  -0.000


------------------------ aborting loop because EDIFF is reached ----------------------------------------


    CHARGE:  cpu time      0.1137: real time      0.1184
    FORLOC:  cpu time      0.0050: real time      0.0050
    FORNL :  cpu time      0.2617: real time      0.2640
    STRESS:  cpu time      0.9368: real time      0.9469
    FORCOR:  cpu time      0.0656: real time      0.0663
    FORHAR:  cpu time      0.0113: real time      0.0113
    MIXING:  cpu time      0.0010: real time      0.0010
    OFIELD:  cpu time      0.0000: real time      0.0000

 ---------------------------------------------------------------------------------------------

         DFTD3 V3.0 Rev 1        
 Edisp (eV)  -12.69655

 E6    (eV) :    -7.8314
 E8    (eV) :    -4.8651
 % E8        : 38.32
    FORVDW:  cpu time      0.2888: real time      0.2911

  FORCE on cell =-STRESS in cart. coord.  units (eV):
  Direction    XX          YY          ZZ          XY          YZ          ZX
  --------------------------------------------------------------------------------------
  Alpha Z   283.15931   283.15931   283.15931
  Ewald   -2523.44528 -2925.63252 -2925.63252     0.00000     0.00455     0.00000
  Hartree   958.77152   783.99573   783.99573     0.00000    -0.06961     0.00000
  E(xc)    -946.86248  -947.88961  -947.88961    -0.00000     0.00008    -0.00000
  Local   -2106.65180 -1557.66626 -1557.66626    -0.00000     0.10800    -0.00000
  n-local  1482.86572  1479.52481  1479.52482    -0.84151     0.00067     0.00106
  augment  -355.21180  -357.11471  -357.11471    -0.00001     0.00352    -0.00001
  Kinetic  3216.33023  3257.15491  3257.15491    -1.32630    -0.06813    -0.00011
  Fock        0.00000     0.00000     0.00000     0.00000     0.00000     0.00000
  vdW       -13.39725   -13.48295   -13.48295    -0.00000     0.00004     0.00000
  -------------------------------------------------------------------------------------
  Total      -4.44184     2.04871     2.04871     0.00000    -0.02088    -0.00000
  in kB      -7.42339     3.42390     3.42390     0.00000    -0.03489    -0.00000
  external pressure =       -0.19 kB  Pullay stress =        0.00 kB


 VOLUME and BASIS-vectors are now :
 -----------------------------------------------------------------------------
  energy-cutoff  :      520.00
  volume of cell :      958.67
      direct lattice vectors                 reciprocal lattice vectors
     9.860304721  0.000000000  0.000000000     0.101416744  0.000000000  0.000000000
     0.000000000  9.860304721  0.000000000     0.000000000  0.101416744  0.000000000
     0.000000000  0.000000000  9.860304721     0.000000000  0.000000000  0.101416744

  length of vectors
     9.860304721  9.860304721  9.860304721     0.101416744  0.101416744  0.101416744


 FORCES acting on ions
    electron-ion (+dipol)            ewald-force                    non-local-force                 convergence-correction
 -----------------------------------------------------------------------------------------------
   0.725E+00 -.118E-05 -.354E-05   -.137E+01 0.683E-11 -.602E-11   0.635E+00 0.424E-21 0.000E+00   0.420E-04 0.425E-09 0.422E-09
   -.789E+01 -.105E-05 -.276E-05   0.675E+01 0.327E-11 -.993E-12   0.113E+01 0.271E-19 0.136E-19   -.130E-03 -.434E-09 -.435E-09
   0.829E+01 -.127E-05 -.184E-05   -.764E+01 0.417E-11 0.396E-11   -.649E+00 0.000E+00 0.000E+00   -.332E-04 0.616E-09 -.722E-09
   0.829E+01 -.113E-05 -.198E-05   -.764E+01 0.160E-11 -.608E-11   -.649E+00 0.000E+00 0.424E-21   -.332E-04 -.723E-09 0.616E-09
   0.188E+01 -.441E+01 0.749E+01   -.268E+01 0.361E+01 -.814E+01   0.798E+00 0.806E+00 0.642E+00   -.538E-04 0.100E-03 -.130E-03
   -.187E+01 -.436E+01 -.747E+01   0.267E+01 0.356E+01 0.811E+01   -.798E+00 0.805E+00 -.640E+00   0.116E-03 -.250E-04 -.161E-03
   -.137E+02 -.211E+01 0.153E+02   0.142E+02 0.102E+01 -.144E+02   -.510E+00 0.110E+01 -.932E+00   -.174E-04 -.480E-04 -.405E-04
   0.137E+02 -.212E+01 -.153E+02   -.142E+02 0.103E+01 0.143E+02   0.510E+00 0.110E+01 0.933E+00   0.836E-04 -.999E-04 -.823E-04
   0.188E+01 0.749E+01 -.441E+01   -.268E+01 -.814E+01 0.361E+01   0.798E+00 0.642E+00 0.806E+00   -.538E-04 -.130E-03 0.100E-03
   -.187E+01 -.747E+01 -.436E+01   0.267E+01 0.811E+01 0.356E+01   -.798E+00 -.640E+00 0.805E+00   0.116E-03 -.161E-03 -.250E-04
   0.137E+02 -.153E+02 -.212E+01   -.142E+02 0.143E+02 0.103E+01   0.510E+00 0.933E+00 0.110E+01   0.836E-04 -.823E-04 -.999E-04
   -.137E+02 0.153E+02 -.211E+01   0.142E+02 -.144E+02 0.102E+01   -.510E+00 -.932E+00 0.110E+01   -.174E-04 -.405E-04 -.480E-04
   -.187E+01 0.436E+01 0.747E+01   0.267E+01 -.356E+01 -.811E+01   -.798E+00 -.805E+00 0.640E+00   0.116E-03 0.250E-04 0.161E-03
   0.188E+01 0.441E+01 -.749E+01   -.268E+01 -.361E+01 0.814E+01   0.798E+00 -.806E+00 -.642E+00   -.538E-04 -.100E-03 0.130E-03
   0.137E+02 0.212E+01 0.153E+02   -.142E+02 -.103E+01 -.143E+02   0.510E+00 -.110E+01 -.933E+00   0.836E-04 0.999E-04 0.823E-04
   -.137E+02 0.211E+01 -.153E+02   0.142E+02 -.102E+01 0.144E+02   -.510E+00 -.110E+01 0.932E+00   -.174E-04 0.480E-04 0.405E-04
   -.187E+01 0.747E+01 0.436E+01   0.267E+01 -.811E+01 -.356E+01   -.798E+00 0.640E+00 -.805E+00   0.116E-03 0.161E-03 0.250E-04
   0.188E+01 -.749E+01 0.441E+01   -.268E+01 0.814E+01 -.361E+01   0.798E+00 -.642E+00 -.806E+00   -.538E-04 0.130E-03 -.100E-03
   -.137E+02 -.153E+02 0.211E+01   0.142E+02 0.144E+02 -.102E+01   -.510E+00 0.932E+00 -.110E+01   -.174E-04 0.405E-04 0.480E-04
   0.137E+02 0.153E+02 0.212E+01   -.142E+02 -.143E+02 -.103E+01   0.510E+00 -.933E+00 -.110E+01   0.836E-04 0.823E-04 0.999E-04
   -.828E+01 -.119E-05 -.625E-06   0.763E+01 -.239E-11 0.712E-12   0.647E+00 0.000E+00 0.000E+00   -.572E-05 0.851E-09 -.848E-09
   -.828E+01 -.105E-05 -.767E-06   0.763E+01 0.206E-11 0.170E-11   0.647E+00 0.000E+00 0.000E+00   -.572E-05 -.848E-09 0.851E-09
   0.789E+01 -.122E-05 -.446E-05   -.675E+01 0.177E-10 -.119E-10   -.113E+01 0.000E+00 0.000E+00   0.277E-03 0.739E-09 0.740E-09
   -.734E+00 -.111E-05 -.399E-05   0.138E+01 0.698E-11 -.752E-11   -.638E+00 0.000E+00 0.000E+00   -.266E-03 -.401E-09 -.401E-09
   -.103E+02 -.899E+01 -.899E+01   0.969E+01 0.920E+01 0.920E+01   0.578E+00 -.200E+00 -.200E+00   -.102E-04 0.272E-04 0.272E-04
   -.103E+02 0.899E+01 0.899E+01   0.969E+01 -.920E+01 -.920E+01   0.578E+00 0.200E+00 0.200E+00   -.102E-04 -.272E-04 -.272E-04
   0.103E+02 0.896E+01 -.896E+01   -.972E+01 -.917E+01 0.917E+01   -.587E+00 0.200E+00 -.200E+00   -.972E-04 0.317E-03 -.317E-03
   0.103E+02 -.896E+01 0.896E+01   -.972E+01 0.917E+01 -.917E+01   -.587E+00 -.200E+00 0.200E+00   -.972E-04 -.317E-03 0.317E-03
   -.708E+02 0.239E+02 -.239E+02   0.756E+02 -.262E+02 0.262E+02   -.483E+01 0.232E+01 -.232E+01   -.297E-03 0.140E-03 -.140E-03
   -.114E+02 -.569E+02 0.569E+02   0.136E+02 0.602E+02 -.602E+02   -.222E+01 -.327E+01 0.327E+01   -.187E-03 0.233E-03 -.233E-03
   0.517E+02 0.229E+02 0.557E+02   -.552E+02 -.256E+02 -.591E+02   0.347E+01 0.276E+01 0.336E+01   0.145E-03 -.913E-04 0.242E-03
   0.517E+02 -.557E+02 -.229E+02   -.552E+02 0.591E+02 0.256E+02   0.347E+01 -.336E+01 -.276E+01   0.145E-03 -.242E-03 0.913E-04
   0.517E+02 -.229E+02 -.557E+02   -.552E+02 0.256E+02 0.591E+02   0.347E+01 -.276E+01 -.336E+01   0.145E-03 0.913E-04 -.242E-03
   0.517E+02 0.557E+02 0.229E+02   -.552E+02 -.591E+02 -.256E+02   0.347E+01 0.336E+01 0.276E+01   0.145E-03 0.242E-03 -.913E-04
   -.708E+02 -.239E+02 0.239E+02   0.756E+02 0.262E+02 -.262E+02   -.483E+01 -.232E+01 0.232E+01   -.297E-03 -.140E-03 0.140E-03
   -.114E+02 0.569E+02 -.569E+02   0.136E+02 -.602E+02 0.602E+02   -.222E+01 0.327E+01 -.327E+01   -.187E-03 -.233E-03 0.233E-03
   -.517E+02 -.228E+02 0.558E+02   0.552E+02 0.255E+02 -.591E+02   -.347E+01 -.276E+01 0.336E+01   -.102E-03 -.148E-03 0.563E-04
   -.517E+02 0.558E+02 -.228E+02   0.552E+02 -.591E+02 0.255E+02   -.347E+01 0.336E+01 -.276E+01   -.102E-03 0.563E-04 -.148E-03
   0.708E+02 -.239E+02 -.239E+02   -.757E+02 0.262E+02 0.262E+02   0.483E+01 -.232E+01 -.232E+01   0.531E-03 -.555E-03 -.555E-03
   0.113E+02 0.570E+02 0.570E+02   -.135E+02 -.603E+02 -.603E+02   0.222E+01 0.327E+01 0.327E+01   -.192E-04 -.712E-03 -.712E-03
   -.517E+02 -.558E+02 0.228E+02   0.552E+02 0.591E+02 -.255E+02   -.347E+01 -.336E+01 0.276E+01   -.102E-03 -.563E-04 0.148E-03
   -.517E+02 0.228E+02 -.558E+02   0.552E+02 -.255E+02 0.591E+02   -.347E+01 0.276E+01 -.336E+01   -.102E-03 0.148E-03 -.563E-04
   0.113E+02 -.570E+02 -.570E+02   -.135E+02 0.603E+02 0.603E+02   0.222E+01 -.327E+01 -.327E+01   -.192E-04 0.712E-03 0.712E-03
   0.708E+02 0.239E+02 0.239E+02   -.757E+02 -.262E+02 -.262E+02   0.483E+01 0.232E+01 0.232E+01   0.531E-03 0.555E-03 0.555E-03
   0.546E+02 -.164E-08 0.859E-06   -.551E+02 0.169E-10 -.140E-10   0.521E+00 0.108E-18 0.000E+00   0.421E-04 -.965E-09 -.967E-09
   -.545E+02 -.257E-06 -.112E-05   0.551E+02 0.189E-10 -.135E-10   -.521E+00 0.000E+00 0.000E+00   -.746E-04 0.146E-08 0.145E-08
   -.796E-02 0.452E-06 0.187E-06   0.834E-02 -.951E-11 0.237E-10   -.703E-03 0.000E+00 0.000E+00   -.332E-04 -.190E-08 0.212E-08
   -.796E-02 0.293E-06 0.351E-06   0.834E-02 -.255E-10 0.106E-10   -.703E-03 0.000E+00 0.000E+00   -.332E-04 0.212E-08 -.190E-08
   0.154E+02 -.639E+02 -.639E+02   -.156E+02 0.651E+02 0.651E+02   0.235E+00 -.118E+01 -.118E+01   -.656E-04 -.258E-03 -.258E-03
   0.154E+02 0.639E+02 0.639E+02   -.156E+02 -.651E+02 -.651E+02   0.235E+00 0.118E+01 0.118E+01   -.656E-04 0.258E-03 0.258E-03
   -.153E+02 0.640E+02 -.640E+02   0.155E+02 -.652E+02 0.652E+02   -.238E+00 0.118E+01 -.118E+01   0.992E-04 -.155E-03 0.155E-03
   -.153E+02 -.640E+02 0.640E+02   0.155E+02 0.652E+02 -.652E+02   -.238E+00 -.118E+01 0.118E+01   0.992E-04 0.155E-03 -.155E-03
 -----------------------------------------------------------------------------------------------
   0.348E-01 -.738E-05 -.334E-04   0.131E-12 -.711E-13 0.568E-13   -.567E-01 -.888E-15 0.444E-15   0.339E-03 0.640E-08 0.640E-08
 
 
 POSITION                                       TOTAL-FORCE (eV/Angst)
 -----------------------------------------------------------------------------------
      9.37798      2.46574      2.46574        -0.000658      0.000000      0.000000
      0.00646      7.39589      7.39589         0.000467      0.000000      0.000000
      0.16244      2.46574      7.39589         0.000066      0.000000      0.000000
      0.16244      7.39589      2.46574         0.000066      0.000000      0.000000
      2.91632      3.06049      9.61049         0.000023      0.000257     -0.000032
      1.91269      7.99025      0.25113        -0.000007      0.000364      0.000098
      6.72714      2.82173      0.20693        -0.000536      0.000387     -0.000166
      7.96229      7.75247      9.65488         0.000595      0.000382      0.000158
      2.91632      9.61049      3.06049         0.000023     -0.000032      0.000257
      1.91269      0.25113      7.99025        -0.000007      0.000098      0.000364
      7.96229      9.65488      7.75247         0.000595      0.000158      0.000382
      6.72714      0.20693      2.82173        -0.000536     -0.000166      0.000387
      1.91269      6.80153      4.68034        -0.000007     -0.000364     -0.000098
      2.91632      1.87099      5.18129         0.000023     -0.000257      0.000032
      7.96229      7.03931      5.13690         0.000595     -0.000382     -0.000158
      6.72714      2.10974      4.72455        -0.000536     -0.000387      0.000166
      1.91269      4.68034      6.80153        -0.000007     -0.000098     -0.000364
      2.91632      5.18129      1.87099         0.000023      0.000032     -0.000257
      6.72714      4.72455      2.10974        -0.000536      0.000166     -0.000387
      7.96229      5.13690      7.03931         0.000595     -0.000158     -0.000382
      4.66724      2.46574      7.39589         0.000045      0.000000      0.000000
      4.66724      7.39589      2.46574         0.000045      0.000000     -0.000000
      4.82266      2.46574      2.46574        -0.000420      0.000000      0.000000
      5.31141      7.39589      7.39589         0.000841      0.000000      0.000000
      4.84409      5.00913      5.00913         0.000035     -0.000223     -0.000223
      4.84409      9.78266      9.78266         0.000035      0.000223      0.000223
      9.84346      4.85227      0.07921        -0.000210      0.000208     -0.000208
      9.84346      0.07921      4.85227        -0.000210     -0.000208      0.000208
      1.29998      8.82742      5.96437         0.000287      0.000260     -0.000260
      1.13565      1.27464      3.65684        -0.000334     -0.000319      0.000319
      8.60670      8.78051      3.67795        -0.000089      0.000418     -0.000133
      8.60670      1.25352      6.01127        -0.000089      0.000133     -0.000418
      8.60670      6.01127      1.25352        -0.000089     -0.000418      0.000133
      8.60670      3.67795      8.78051        -0.000089     -0.000133      0.000418
      1.29998      5.96437      8.82742         0.000287     -0.000260      0.000260
      1.13565      3.65684      1.27464        -0.000334      0.000319     -0.000319
      6.08180      1.08086      8.60853         0.000020     -0.000477     -0.000019
      6.08180      8.60853      1.08086         0.000020     -0.000019     -0.000477
      3.52770      1.03447      1.03447        -0.000267     -0.000274     -0.000274
      3.69269      8.58680      8.58680         0.000077      0.000074      0.000074
      6.08180      6.18326      3.85061         0.000020      0.000019      0.000477
      6.08180      3.85061      6.18326         0.000020      0.000477      0.000019
      3.69269      6.20498      6.20498         0.000077     -0.000074     -0.000074
      3.52770      3.89700      3.89700        -0.000267      0.000274      0.000274
      7.56244      7.39589      7.39589         0.000513      0.000000      0.000000
      7.12718      2.46574      2.46574        -0.000417      0.000000      0.000000
      2.41477      7.39589      2.46574         0.000050      0.000000      0.000000
      2.41477      2.46574      7.39589         0.000050      0.000000      0.000000
      0.00730      9.40062      9.40062         0.000209      0.000536      0.000536
      0.00730      5.39116      5.39116         0.000209     -0.000536     -0.000536
      4.82210      0.46181      4.46967        -0.000132     -0.000482      0.000482
      4.82210      4.46967      0.46181        -0.000132      0.000482     -0.000482
 -----------------------------------------------------------------------------------
    total drift:                               -0.021556     -0.000007     -0.000033


--------------------------------------------------------------------------------------------------------



  FREE ENERGIE OF THE ION-ELECTRON SYSTEM (eV)
  ---------------------------------------------------
  free  energy   TOTEN  =      -271.28372679 eV

  energy  without entropy=     -271.28372679  energy(sigma->0) =     -271.28372679
 
 d Force = 0.1354651E-05[ 0.619E-06, 0.209E-05]  d Energy = 0.1737997E-05-0.383E-06
 d Force = 0.2815247E-01[ 0.281E-01, 0.282E-01]  d Ewald  = 0.2815247E-01 0.164E-10


--------------------------------------------------------------------------------------------------------


    POTLOK:  cpu time      0.4758: real time      0.4778


--------------------------------------------------------------------------------------------------------


 stress matrix after NEB project (eV)
     -4.44184      0.00000     -0.00000
      0.00000      2.04871     -0.02088
      0.00000     -0.02088      2.04871
  FORCES: max atom, RMS     0.000841    0.000494
  FORCE total and by dimension    0.003565    0.000841
  Stress total and by dimension    5.303323    4.441837
 Conjugate gradient step on ions:
 trial-energy change:   -0.000002  1 .order   -0.000001   -0.000002   -0.000001
  (g-gl).g = 0.162E-05      g.g   = 0.158E-05  gl.gl    = 0.145E-04
 g(Force)  = 0.158E-05   g(Stress)= 0.000E+00 ortho     =-0.441E-07
 gamma     =   0.11158
 trial     =   1.32890
 opt step  =   1.88736  (harmonic =   1.88736) maximal distance =0.00008350
 next E    =  -271.283727   (d E  =  -0.00000)


--------------------------------------------------------------------------------------------------------


  
 reached required accuracy - stopping structural energy minimisation
     LOOP+:  cpu time      5.9355: real time      6.0150
    4ORBIT:  cpu time      0.0000: real time      0.0000

 total amount of memory used by VASP MPI-rank0    49365. kBytes
=======================================================================

   base      :      30000. kBytes
   nonlr-proj:       8246. kBytes
   fftplans  :       2171. kBytes
   grid      :       6510. kBytes
   one-center:         62. kBytes
   wavefun   :       2376. kBytes
 
  
  
 General timing and accounting informations for this job:
 ========================================================
  
                  Total CPU time used (sec):       91.685
                            User time (sec):       90.055
                          System time (sec):        1.631
                         Elapsed time (sec):       96.726
  
                   Maximum memory used (kb):      409388.
                   Average memory used (kb):          N/A
  
                          Minor page faults:        74267
                          Major page faults:          142
                 Voluntary context switches:        12890
