<?xml version="1.0" encoding="ISO-8859-1"?>
<modeling>
 <generator>
  <i name="program" type="string">vasp </i>
  <i name="version" type="string">6.4.1  </i>
  <i name="subversion" type="string">05Apr23 (build Jun 07 2023 15:38:11) complex                          parallel </i>
  <i name="platform" type="string">LinuxIFC </i>
  <i name="date" type="string">2023 10 19 </i>
  <i name="time" type="string">05:11:46 </i>
 </generator>
 <incar>
  <i type="string" name="PREC">Accu</i>
  <i type="string" name="ALGO">F</i>
  <i type="logical" name="LDIAG"> T  </i>
  <i type="int" name="ISPIN">     2</i>
  <i type="int" name="NELM">   100</i>
  <i type="int" name="NELMDL">   -10</i>
  <i type="int" name="IBRION">     2</i>
  <i name="EDIFF">      0.00000100</i>
  <i name="EDIFFG">     -0.00100000</i>
  <i type="int" name="NSW">  1000</i>
  <i type="int" name="ISIF">     2</i>
  <i name="ENCUT">    520.00000000</i>
  <i name="POTIM">      0.20000000</i>
  <i type="string" name="LREAL">Auto</i>
  <i type="logical" name="LPLANE"> T  </i>
  <i type="int" name="ISMEAR">     0</i>
  <i name="SIGMA">      0.03000000</i>
  <i type="int" name="LMAXMIX">     4</i>
  <i type="logical" name="LWAVE"> F  </i>
  <i type="logical" name="LCHARG"> F  </i>
  <i type="logical" name="LASPH"> T  </i>
  <i type="string" name="GGA">PE</i>
  <i type="int" name="IVDW">    12</i>
 </incar>
 <primitive_cell>
  <structure name="primitive_cell" >
   <crystal>
    <varray name="basis" >
     <v>       9.86030472       0.00000000       0.00000000 </v>
     <v>       0.00000000       9.86030472       0.00000000 </v>
     <v>       0.00000000       0.00000000       9.86030472 </v>
    </varray>
    <i name="volume">    958.67413326 </i>
    <varray name="rec_basis" >
     <v>       0.10141674       0.00000000       0.00000000 </v>
     <v>       0.00000000       0.10141674       0.00000000 </v>
     <v>       0.00000000       0.00000000       0.10141674 </v>
    </varray>
   </crystal>
   <varray name="positions" >
    <v>       0.95110554       0.25006720       0.25006720 </v>
    <v>       0.00064475       0.75006720       0.75006720 </v>
    <v>       0.01647199       0.25006720       0.75006720 </v>
    <v>       0.01647199       0.75006720       0.25006720 </v>
    <v>       0.29576281       0.31038190       0.97466512 </v>
    <v>       0.19397869       0.81034052       0.02546851 </v>
    <v>       0.68225196       0.28616337       0.02098920 </v>
    <v>       0.80750152       0.78622289       0.97916380 </v>
    <v>       0.29576281       0.97466512       0.31038190 </v>
    <v>       0.19397869       0.02546851       0.81034052 </v>
    <v>       0.80750152       0.97916380       0.78622289 </v>
    <v>       0.68225196       0.02098920       0.28616337 </v>
    <v>       0.19397869       0.68979388       0.47466590 </v>
    <v>       0.29576281       0.18975251       0.52546929 </v>
    <v>       0.80750152       0.71391151       0.52097060 </v>
    <v>       0.68225196       0.21397104       0.47914521 </v>
    <v>       0.19397869       0.47466590       0.68979388 </v>
    <v>       0.29576281       0.52546929       0.18975251 </v>
    <v>       0.68225196       0.47914521       0.21397104 </v>
    <v>       0.80750152       0.52097060       0.71391151 </v>
    <v>       0.47333767       0.25006720       0.75006720 </v>
    <v>       0.47333767       0.75006720       0.25006720 </v>
    <v>       0.48910802       0.25006720       0.25006720 </v>
    <v>       0.53864231       0.75006720       0.75006720 </v>
    <v>       0.49127461       0.50801982       0.50801982 </v>
    <v>       0.49127461       0.99211458       0.99211458 </v>
    <v>       0.99829101       0.49209340       0.00804101 </v>
    <v>       0.99829101       0.00804101       0.49209340 </v>
    <v>       0.13180934       0.89526500       0.60486941 </v>
    <v>       0.11516194       0.12925574       0.37087866 </v>
    <v>       0.87288814       0.89049928       0.37303076 </v>
    <v>       0.87288814       0.12710364       0.60963513 </v>
    <v>       0.87288814       0.60963513       0.12710364 </v>
    <v>       0.87288814       0.37303076       0.89049928 </v>
    <v>       0.13180934       0.60486941       0.89526500 </v>
    <v>       0.11516194       0.37087866       0.12925574 </v>
    <v>       0.61677307       0.10961075       0.87307164 </v>
    <v>       0.61677307       0.87307164       0.10961075 </v>
    <v>       0.35779851       0.10489513       0.10489513 </v>
    <v>       0.37451488       0.87086222       0.87086222 </v>
    <v>       0.61677307       0.62706276       0.39052366 </v>
    <v>       0.61677307       0.39052366       0.62706276 </v>
    <v>       0.37451488       0.62927218       0.62927218 </v>
    <v>       0.35779851       0.39523927       0.39523927 </v>
    <v>       0.76696513       0.75006720       0.75006720 </v>
    <v>       0.72280795       0.25006720       0.25006720 </v>
    <v>       0.24489798       0.75006720       0.25006720 </v>
    <v>       0.24489798       0.25006720       0.75006720 </v>
    <v>       0.00073568       0.95336688       0.95336688 </v>
    <v>       0.00073568       0.54676752       0.54676752 </v>
    <v>       0.48904505       0.04684799       0.45328642 </v>
    <v>       0.48904505       0.45328642       0.04684799 </v>
   </varray>
  </structure>
  <varray name="primitive_index" >
   <v type="int" >        1 </v>
   <v type="int" >        2 </v>
   <v type="int" >        3 </v>
   <v type="int" >        4 </v>
   <v type="int" >        5 </v>
   <v type="int" >        6 </v>
   <v type="int" >        7 </v>
   <v type="int" >        8 </v>
   <v type="int" >        9 </v>
   <v type="int" >       10 </v>
   <v type="int" >       11 </v>
   <v type="int" >       12 </v>
   <v type="int" >       13 </v>
   <v type="int" >       14 </v>
   <v type="int" >       15 </v>
   <v type="int" >       16 </v>
   <v type="int" >       17 </v>
   <v type="int" >       18 </v>
   <v type="int" >       19 </v>
   <v type="int" >       20 </v>
   <v type="int" >       21 </v>
   <v type="int" >       22 </v>
   <v type="int" >       23 </v>
   <v type="int" >       24 </v>
   <v type="int" >       25 </v>
   <v type="int" >       26 </v>
   <v type="int" >       27 </v>
   <v type="int" >       28 </v>
   <v type="int" >       29 </v>
   <v type="int" >       30 </v>
   <v type="int" >       31 </v>
   <v type="int" >       32 </v>
   <v type="int" >       33 </v>
   <v type="int" >       34 </v>
   <v type="int" >       35 </v>
   <v type="int" >       36 </v>
   <v type="int" >       37 </v>
   <v type="int" >       38 </v>
   <v type="int" >       39 </v>
   <v type="int" >       40 </v>
   <v type="int" >       41 </v>
   <v type="int" >       42 </v>
   <v type="int" >       43 </v>
   <v type="int" >       44 </v>
   <v type="int" >       45 </v>
   <v type="int" >       46 </v>
   <v type="int" >       47 </v>
   <v type="int" >       48 </v>
   <v type="int" >       49 </v>
   <v type="int" >       50 </v>
   <v type="int" >       51 </v>
   <v type="int" >       52 </v>
  </varray>
 </primitive_cell>
 <kpoints>
  <generation param="Monkhorst-Pack">
   <v type="int" name="divisions">       2        2        2 </v>
   <v name="usershift">      0.00000000       0.00000000       0.00000000 </v>
   <v name="genvec1">      0.50000000       0.00000000       0.00000000 </v>
   <v name="genvec2">      0.00000000       0.50000000       0.00000000 </v>
   <v name="genvec3">      0.00000000       0.00000000       0.50000000 </v>
   <v name="shift">      0.50000000       0.50000000       0.50000000 </v>
  </generation>
  <varray name="kpointlist" >
   <v>       0.25000000       0.25000000       0.25000000 </v>
   <v>      -0.25000000      -0.25000000       0.25000000 </v>
  </varray>
  <varray name="weights" >
   <v>       0.50000000 </v>
   <v>       0.50000000 </v>
  </varray>
 </kpoints>
 <parameters>
  <separator name="general" >
   <i type="string" name="SYSTEM">unknown system</i>
   <i type="logical" name="LCOMPAT"> F  </i>
  </separator>
  <separator name="electronic" >
   <i type="string" name="PREC">accu</i>
   <i name="ENMAX">    520.00000000</i>
   <i name="ENAUG">   1041.69900000</i>
   <i name="EDIFF">      0.00000100</i>
   <i type="int" name="IALGO">    68</i>
   <i type="int" name="IWAVPR">    11</i>
   <i type="int" name="NBANDS">   176</i>
   <i type="int" name="NBANDSLOW">    -1</i>
   <i type="int" name="NBANDSHIGH">    -1</i>
   <i name="NELECT">    240.00000000</i>
   <i type="int" name="TURBO">     0</i>
   <i type="int" name="IRESTART">     0</i>
   <i type="int" name="NREBOOT">     0</i>
   <i type="int" name="NMIN">     0</i>
   <i name="EREF">      0.00000000</i>
   <separator name="electronic smearing" >
    <i type="int" name="ISMEAR">     0</i>
    <i name="SIGMA">      0.03000000</i>
    <i name="KSPACING">      0.50000000</i>
    <i type="logical" name="KGAMMA"> T  </i>
    <i type="logical" name="KBLOWUP"> T  </i>
   </separator>
   <separator name="electronic projectors" >
    <i type="logical" name="LREAL"> T  </i>
    <v name="ROPT">     -0.00025000     -0.00025000     -0.00025000     -0.00025000</v>
    <i type="int" name="LMAXPAW">  -100</i>
    <i type="int" name="LMAXMIX">     4</i>
    <i type="logical" name="NLSPLINE"> F  </i>
   </separator>
   <separator name="electronic startup" >
    <i type="int" name="ISTART">     0</i>
    <i type="int" name="ICHARG">     2</i>
    <i type="int" name="INIWAV">     1</i>
   </separator>
   <separator name="electronic spin" >
    <i type="int" name="ISPIN">     2</i>
    <i type="logical" name="LNONCOLLINEAR"> F  </i>
    <v name="MAGMOM">      1.00000000      1.00000000      1.00000000      1.00000000      1.00000000      1.00000000      1.00000000      1.00000000      1.00000000      1.00000000      1.00000000      1.00000000      1.00000000      1.00000000      1.00000000      1.00000000      1.00000000      1.00000000      1.00000000      1.00000000
      1.00000000      1.00000000      1.00000000      1.00000000      1.00000000      1.00000000      1.00000000      1.00000000      1.00000000      1.00000000      1.00000000      1.00000000      1.00000000      1.00000000      1.00000000      1.00000000      1.00000000      1.00000000      1.00000000      1.00000000
      1.00000000      1.00000000      1.00000000      1.00000000      1.00000000      1.00000000      1.00000000      1.00000000      1.00000000      1.00000000      1.00000000      1.00000000</v>
    <i name="NUPDOWN">     -1.00000000</i>
    <i type="logical" name="LSORBIT"> F  </i>
    <v name="SAXIS">      0.00000000      0.00000000      1.00000000</v>
    <i type="logical" name="LSPIRAL"> F  </i>
    <v name="QSPIRAL">      0.00000000      0.00000000      0.00000000</v>
    <i type="logical" name="LZEROZ"> F  </i>
   </separator>
   <separator name="electronic exchange-correlation" >
    <i type="logical" name="LASPH"> T  </i>
    <i type="logical" name="LMETAGGA"> F  </i>
   </separator>
   <separator name="electronic convergence" >
    <i type="int" name="NELM">   100</i>
    <i type="int" name="NELMDL">   -10</i>
    <i type="int" name="NELMIN">     2</i>
    <i name="ENINI">    520.00000000</i>
    <separator name="electronic convergence detail" >
     <i type="logical" name="LDIAG"> T  </i>
     <i type="logical" name="LSUBROT"> F  </i>
     <i name="WEIMIN">      0.00100000</i>
     <i name="EBREAK">      0.00000000</i>
     <i name="DEPER">      0.30000000</i>
     <i type="int" name="NRMM">     4</i>
     <i name="TIME">      0.40000000</i>
    </separator>
   </separator>
   <separator name="electronic mixer" >
    <i name="AMIX">      0.40000000</i>
    <i name="BMIX">      1.00000000</i>
    <i name="AMIN">      0.10000000</i>
    <i name="AMIX_MAG">      1.60000000</i>
    <i name="BMIX_MAG">      1.00000000</i>
    <separator name="electronic mixer details" >
     <i type="int" name="IMIX">     4</i>
     <i type="logical" name="MIXFIRST"> F  </i>
     <i type="int" name="MAXMIX">   -45</i>
     <i name="WC">    100.00000000</i>
     <i type="int" name="INIMIX">     1</i>
     <i type="int" name="MIXPRE">     1</i>
     <i type="int" name="MREMOVE">     5</i>
    </separator>
   </separator>
   <separator name="electronic dipolcorrection" >
    <i type="logical" name="LDIPOL"> F  </i>
    <i type="logical" name="LMONO"> F  </i>
    <i type="int" name="IDIPOL">     0</i>
    <i name="EPSILON">      1.00000000</i>
    <v name="DIPOL">   -100.00000000   -100.00000000   -100.00000000</v>
    <i name="EFIELD">      0.00000000</i>
   </separator>
  </separator>
  <separator name="grids" >
   <i type="int" name="NGX">    80</i>
   <i type="int" name="NGY">    80</i>
   <i type="int" name="NGZ">    80</i>
   <i type="int" name="NGXF">   160</i>
   <i type="int" name="NGYF">   160</i>
   <i type="int" name="NGZF">   160</i>
   <i type="logical" name="ADDGRID"> F  </i>
  </separator>
  <separator name="ionic" >
   <i type="int" name="NSW">  1000</i>
   <i type="int" name="IBRION">     2</i>
   <i type="int" name="MDALGO">     0</i>
   <i type="int" name="ISIF">     2</i>
   <i name="PSTRESS">      0.00000000</i>
   <i name="EDIFFG">     -0.00100000</i>
   <i type="int" name="NFREE">     1</i>
   <i name="POTIM">      0.20000000</i>
   <i name="SMASS">     -3.00000000</i>
   <i name="SCALEE">      1.00000000</i>
  </separator>
  <separator name="ionic md" >
   <i name="TEBEG">      0.00010000</i>
   <i name="TEEND">      0.00010000</i>
   <i type="int" name="NBLOCK">     1</i>
   <i type="int" name="KBLOCK">  1000</i>
   <i type="int" name="NPACO">   256</i>
   <i name="APACO">     10.00000000</i>
  </separator>
  <separator name="symmetry" >
   <i type="int" name="ISYM">     2</i>
   <i name="SYMPREC">      0.00001000</i>
  </separator>
  <separator name="dos" >
   <i type="int" name="LORBIT">     0</i>
   <v name="RWIGS">     -1.00000000     -1.00000000     -1.00000000     -1.00000000</v>
   <i type="int" name="NEDOS">   301</i>
   <i name="EMIN">     10.00000000</i>
   <i name="EMAX">    -10.00000000</i>
   <i name="EFERMI">      0.00000000</i>
  </separator>
  <separator name="writing" >
   <i type="int" name="NWRITE">     2</i>
   <i type="logical" name="LWAVE"> F  </i>
   <i type="logical" name="LDOWNSAMPLE"> F  </i>
   <i type="logical" name="LCHARG"> F  </i>
   <i type="logical" name="LPARD"> F  </i>
   <i type="logical" name="LVTOT"> F  </i>
   <i type="logical" name="LVHAR"> F  </i>
   <i type="logical" name="LELF"> F  </i>
   <i type="logical" name="LOPTICS"> F  </i>
   <v name="STM">      0.00000000      0.00000000      0.00000000      0.00000000      0.00000000      0.00000000      0.00000000</v>
  </separator>
  <separator name="performance" >
   <i type="int" name="NPAR">     4</i>
   <i type="int" name="NSIM">     4</i>
   <i type="int" name="NBLK">    -1</i>
   <i type="logical" name="LPLANE"> T  </i>
   <i type="logical" name="LSCALAPACK"> T  </i>
   <i type="logical" name="LSCAAWARE"> F  </i>
   <i type="logical" name="LSCALU"> F  </i>
   <i type="logical" name="LASYNC"> F  </i>
   <i type="logical" name="LORBITALREAL"> F  </i>
  </separator>
  <separator name="miscellaneous" >
   <i type="int" name="IDIOT">     3</i>
   <i type="int" name="PHON_NSTRUCT">    -1</i>
   <i type="logical" name="LMUSIC"> F  </i>
   <v name="POMASS">      7.01000000     30.97400000     32.06600000     35.45300000</v>
   <v name="DARWINR">      0.00000000      0.00000000      0.00000000      0.00000000</v>
   <v name="DARWINV">      1.00000000      1.00000000      1.00000000      1.00000000</v>
   <i type="logical" name="LCORR"> T  </i>
  </separator>
  <i type="logical" name="GGA_COMPAT"> T  </i>
  <i type="logical" name="LBERRY"> F  </i>
  <i type="int" name="ICORELEVEL">     0</i>
  <i type="logical" name="LDAU"> F  </i>
  <i type="int" name="I_CONSTRAINED_M">     0</i>
  <separator name="electronic exchange-correlation" >
   <i type="string" name="GGA">PE</i>
   <i type="int" name="VOSKOWN">     0</i>
   <i type="logical" name="LHFCALC"> F  </i>
   <i type="string" name="PRECFOCK"></i>
   <i type="logical" name="LSYMGRAD"> F  </i>
   <i type="logical" name="LHFONE"> F  </i>
   <i type="logical" name="LRHFCALC"> F  </i>
   <i type="logical" name="LTHOMAS"> F  </i>
   <i type="logical" name="LMODELHF"> F  </i>
   <i type="logical" name="LFOCKACE"> F  </i>
   <i name="ENCUT4O">     -1.00000000</i>
   <i type="int" name="EXXOEP">     0</i>
   <i type="int" name="FOURORBIT">     0</i>
   <i name="AEXX">      0.00000000</i>
   <i name="HFALPHA">      0.00000000</i>
   <i name="MCALPHA">      0.00000000</i>
   <i name="ALDAX">      1.00000000</i>
   <i name="AGGAX">      1.00000000</i>
   <i name="ALDAC">      1.00000000</i>
   <i name="AGGAC">      1.00000000</i>
   <i type="int" name="NKREDX">     1</i>
   <i type="int" name="NKREDY">     1</i>
   <i type="int" name="NKREDZ">     1</i>
   <i type="logical" name="SHIFTRED"> F  </i>
   <i type="logical" name="ODDONLY"> F  </i>
   <i type="logical" name="EVENONLY"> F  </i>
   <i type="int" name="LMAXFOCK">     0</i>
   <i type="int" name="NMAXFOCKAE">     0</i>
   <i type="logical" name="LFOCKAEDFT"> F  </i>
   <i name="HFSCREEN">      0.00000000</i>
   <i name="HFSCREENC">      0.00000000</i>
   <i type="int" name="NBANDSGWLOW">     0</i>
  </separator>
  <separator name="vdW DFT" >
   <i type="logical" name="LUSE_VDW"> F  </i>
   <i type="int" name="IVDW_NL">     1</i>
   <i type="logical" name="LSPIN_VDW"> F  </i>
   <i name="Zab_VDW">     -0.84910000</i>
   <i name="PARAM1">      0.12340000</i>
   <i name="PARAM2">      1.00000000</i>
   <i name="PARAM3">      0.00000000</i>
  </separator>
  <separator name="model GW" >
   <i type="int" name="MODEL_GW">     0</i>
   <i name="MODEL_EPS0">     11.06162461</i>
   <i name="MODEL_ALPHA">      1.00000000</i>
  </separator>
  <separator name="linear response parameters" >
   <i type="logical" name="LEPSILON"> F  </i>
   <i type="logical" name="LRPA"> F  </i>
   <i type="logical" name="LNABLA"> F  </i>
   <i type="logical" name="LVEL"> F  </i>
   <i name="CSHIFT">      0.10000000</i>
   <i name="OMEGAMAX">     -1.00000000</i>
   <i name="DEG_THRESHOLD">      0.00200000</i>
   <i name="RTIME">     -0.10000000</i>
   <i name="WPLASMAI">      0.00000000</i>
   <v name="DFIELD">      0.00000000      0.00000000      0.00000000</v>
   <v name="WPLASMA">      0.00000000      0.00000000      0.00000000      0.00000000      0.00000000      0.00000000      0.00000000      0.00000000      0.00000000</v>
  </separator>
  <separator name="orbital magnetization" >
   <i type="logical" name="NUCIND"> F  </i>
   <v name="MAGPOS">      0.00000000      0.00000000      0.00000000</v>
   <i type="logical" name="LNICSALL"> T  </i>
   <i type="logical" name="ORBITALMAG"> F  </i>
   <i type="logical" name="LMAGBLOCH"> F  </i>
   <i type="logical" name="LCHIMAG"> F  </i>
   <i type="logical" name="LGAUGE"> T  </i>
   <i type="int" name="MAGATOM">     0</i>
   <v name="MAGDIPOL">      0.00000000      0.00000000      0.00000000</v>
   <v name="AVECCONST">      0.00000000      0.00000000      0.00000000</v>
  </separator>
  <separator name="response functions" >
   <i type="logical" name="LALL_IN_ONE"> F  </i>
   <i type="int" name="IALL_IN_ONE">    -1</i>
   <i type="int" name="NBANDS_WAVE">    -1</i>
   <i type="logical" name="LFINITE_TEMPERATURE"> F  </i>
   <i type="logical" name="LADDER"> F  </i>
   <i type="logical" name="LRPAFORCE"> F  </i>
   <i type="logical" name="LFXC"> F  </i>
   <i type="logical" name="LHARTREE"> T  </i>
   <i type="int" name="IBSE">     0</i>
   <v type="int" name="KPOINT">    -1     0     0     0</v>
   <i type="logical" name="LTCTC"> F  </i>
   <i type="logical" name="LTCTE"> F  </i>
   <i type="logical" name="LTETE"> F  </i>
   <i type="logical" name="LTRIPLET"> F  </i>
   <i type="logical" name="LFXCEPS"> F  </i>
   <i type="logical" name="LFXHEG"> F  </i>
   <i type="int" name="NATURALO">     2</i>
   <i type="logical" name="LHOLEGF"> F  </i>
   <i type="logical" name="L2ORDER"> F  </i>
   <i type="logical" name="LDMP1"> F  </i>
   <i type="logical" name="LMP2LT"> F  </i>
   <i type="logical" name="LSMP2LT"> F  </i>
   <i type="logical" name="LGWLF"> F  </i>
   <i name="ENCUTGW">     -1.60000002</i>
   <i name="ENCUTGWSOFT">     -1.60000002</i>
   <i name="ENCUTLF">     -1.00000000</i>
   <i type="logical" name="LESF_SPLINES"> F  </i>
   <i type="int" name="LMAXMP2">    -1</i>
   <i name="SCISSOR">      0.00000000</i>
   <i type="int" name="NOMEGA">     0</i>
   <i type="int" name="NOMEGAR">     0</i>
   <i type="int" name="NBANDSGW">    -1</i>
   <i type="int" name="NBANDSO">    -1</i>
   <i type="int" name="NBANDSV">    -1</i>
   <i type="int" name="NELMGW">     1</i>
   <i type="int" name="NELMHF">     1</i>
   <i type="int" name="DIM">     3</i>
   <i type="int" name="IESPILON">     4</i>
   <i type="int" name="ANTIRES">     0</i>
   <i name="OMEGAMAX">    -30.00000000</i>
   <i name="OMEGAMIN">    -30.00000000</i>
   <i name="OMEGATL">   -200.00000000</i>
   <i type="int" name="OMEGAGRID">     0</i>
   <i name="CSHIFT">     -0.10000000</i>
   <i type="logical" name="LSELFENERGY"> F  </i>
   <i type="logical" name="LSPECTRAL"> F  </i>
   <i type="logical" name="LSPECTRALGW"> F  </i>
   <i type="logical" name="LSINGLES"> F  </i>
   <i type="logical" name="LFERMIGW"> F  </i>
   <i type="logical" name="ODDONLYGW"> F  </i>
   <i type="logical" name="EVENONLYGW"> F  </i>
   <i type="int" name="NKREDLFX">     1</i>
   <i type="int" name="NKREDLFY">     1</i>
   <i type="int" name="NKREDLFZ">     1</i>
   <i type="int" name="MAXMEM">  2800</i>
   <i type="int" name="TELESCOPE">     0</i>
   <i type="int" name="NTAUPAR">    -1</i>
   <i type="int" name="NOMEGAPAR">    -1</i>
   <i name="DAMP_NEWTON">      0.80000001</i>
   <i name="LAMBDA">      1.00000000</i>
  </separator>
  <separator name="External order field" >
   <i name="OFIELD_KAPPA">      0.00000000</i>
   <v name="OFIELD_K">      0.00000000      0.00000000      0.00000000</v>
   <i name="OFIELD_Q6_NEAR">      0.00000000</i>
   <i name="OFIELD_Q6_FAR">      0.00000000</i>
   <i name="OFIELD_A">      0.00000000</i>
  </separator>
  <separator name="optional k-points parameters" >
   <i type="int" name="KPOINTS_OPT_MODE">     1</i>
   <i type="logical" name="LKPOINTS_OPT"> F  </i>
  </separator>
 </parameters>
 <atominfo>
  <atoms>      52 </atoms>
  <types>       4 </types>
  <array name="atoms" >
   <dimension dim="1">ion</dimension>
   <field type="string">element</field>
   <field type="int">atomtype</field>
   <set>
    <rc><c>Li</c><c>   1</c></rc>
    <rc><c>Li</c><c>   1</c></rc>
    <rc><c>Li</c><c>   1</c></rc>
    <rc><c>Li</c><c>   1</c></rc>
    <rc><c>Li</c><c>   1</c></rc>
    <rc><c>Li</c><c>   1</c></rc>
    <rc><c>Li</c><c>   1</c></rc>
    <rc><c>Li</c><c>   1</c></rc>
    <rc><c>Li</c><c>   1</c></rc>
    <rc><c>Li</c><c>   1</c></rc>
    <rc><c>Li</c><c>   1</c></rc>
    <rc><c>Li</c><c>   1</c></rc>
    <rc><c>Li</c><c>   1</c></rc>
    <rc><c>Li</c><c>   1</c></rc>
    <rc><c>Li</c><c>   1</c></rc>
    <rc><c>Li</c><c>   1</c></rc>
    <rc><c>Li</c><c>   1</c></rc>
    <rc><c>Li</c><c>   1</c></rc>
    <rc><c>Li</c><c>   1</c></rc>
    <rc><c>Li</c><c>   1</c></rc>
    <rc><c>Li</c><c>   1</c></rc>
    <rc><c>Li</c><c>   1</c></rc>
    <rc><c>Li</c><c>   1</c></rc>
    <rc><c>Li</c><c>   1</c></rc>
    <rc><c>P </c><c>   2</c></rc>
    <rc><c>P </c><c>   2</c></rc>
    <rc><c>P </c><c>   2</c></rc>
    <rc><c>P </c><c>   2</c></rc>
    <rc><c>S </c><c>   3</c></rc>
    <rc><c>S </c><c>   3</c></rc>
    <rc><c>S </c><c>   3</c></rc>
    <rc><c>S </c><c>   3</c></rc>
    <rc><c>S </c><c>   3</c></rc>
    <rc><c>S </c><c>   3</c></rc>
    <rc><c>S </c><c>   3</c></rc>
    <rc><c>S </c><c>   3</c></rc>
    <rc><c>S </c><c>   3</c></rc>
    <rc><c>S </c><c>   3</c></rc>
    <rc><c>S </c><c>   3</c></rc>
    <rc><c>S </c><c>   3</c></rc>
    <rc><c>S </c><c>   3</c></rc>
    <rc><c>S </c><c>   3</c></rc>
    <rc><c>S </c><c>   3</c></rc>
    <rc><c>S </c><c>   3</c></rc>
    <rc><c>S </c><c>   3</c></rc>
    <rc><c>S </c><c>   3</c></rc>
    <rc><c>S </c><c>   3</c></rc>
    <rc><c>S </c><c>   3</c></rc>
    <rc><c>Cl</c><c>   4</c></rc>
    <rc><c>Cl</c><c>   4</c></rc>
    <rc><c>Cl</c><c>   4</c></rc>
    <rc><c>Cl</c><c>   4</c></rc>
   </set>
  </array>
  <array name="atomtypes" >
   <dimension dim="1">type</dimension>
   <field type="int">atomspertype</field>
   <field type="string">element</field>
   <field>mass</field>
   <field>valence</field>
   <field type="string">pseudopotential</field>
   <set>
    <rc><c>  24</c><c>Li</c><c>      7.01000000</c><c>      3.00000000</c><c>  PAW_PBE Li_sv_GW 25Mar2010            </c></rc>
    <rc><c>   4</c><c>P </c><c>     30.97400000</c><c>      5.00000000</c><c>  PAW_PBE P_GW 19Mar2012                </c></rc>
    <rc><c>  20</c><c>S </c><c>     32.06600000</c><c>      6.00000000</c><c>  PAW_PBE S_GW 19Mar2012                </c></rc>
    <rc><c>   4</c><c>Cl</c><c>     35.45300000</c><c>      7.00000000</c><c>  PAW_PBE Cl_GW 19Mar2012               </c></rc>
   </set>
  </array>
 </atominfo>
 <structure name="initialpos" >
  <crystal>
   <varray name="basis" >
    <v>       9.86030472       0.00000000       0.00000000 </v>
    <v>       0.00000000       9.86030472       0.00000000 </v>
    <v>       0.00000000       0.00000000       9.86030472 </v>
   </varray>
   <i name="volume">    958.67413326 </i>
   <varray name="rec_basis" >
    <v>       0.10141674       0.00000000       0.00000000 </v>
    <v>       0.00000000       0.10141674       0.00000000 </v>
    <v>       0.00000000       0.00000000       0.10141674 </v>
   </varray>
  </crystal>
  <varray name="positions" >
   <v>       0.95110554       0.25006720       0.25006720 </v>
   <v>       0.00064475       0.75006720       0.75006720 </v>
   <v>       0.01647199       0.25006720       0.75006720 </v>
   <v>       0.01647199       0.75006720       0.25006720 </v>
   <v>       0.29576281       0.31038190       0.97466512 </v>
   <v>       0.19397869       0.81034052       0.02546851 </v>
   <v>       0.68225196       0.28616337       0.02098920 </v>
   <v>       0.80750152       0.78622289       0.97916380 </v>
   <v>       0.29576281       0.97466512       0.31038190 </v>
   <v>       0.19397869       0.02546851       0.81034052 </v>
   <v>       0.80750152       0.97916380       0.78622289 </v>
   <v>       0.68225196       0.02098920       0.28616337 </v>
   <v>       0.19397869       0.68979388       0.47466590 </v>
   <v>       0.29576281       0.18975251       0.52546929 </v>
   <v>       0.80750152       0.71391151       0.52097060 </v>
   <v>       0.68225196       0.21397104       0.47914521 </v>
   <v>       0.19397869       0.47466590       0.68979388 </v>
   <v>       0.29576281       0.52546929       0.18975251 </v>
   <v>       0.68225196       0.47914521       0.21397104 </v>
   <v>       0.80750152       0.52097060       0.71391151 </v>
   <v>       0.47333767       0.25006720       0.75006720 </v>
   <v>       0.47333767       0.75006720       0.25006720 </v>
   <v>       0.48910802       0.25006720       0.25006720 </v>
   <v>       0.53864231       0.75006720       0.75006720 </v>
   <v>       0.49127461       0.50801982       0.50801982 </v>
   <v>       0.49127461       0.99211458       0.99211458 </v>
   <v>       0.99829101       0.49209340       0.00804101 </v>
   <v>       0.99829101       0.00804101       0.49209340 </v>
   <v>       0.13180934       0.89526500       0.60486941 </v>
   <v>       0.11516194       0.12925574       0.37087866 </v>
   <v>       0.87288814       0.89049928       0.37303076 </v>
   <v>       0.87288814       0.12710364       0.60963513 </v>
   <v>       0.87288814       0.60963513       0.12710364 </v>
   <v>       0.87288814       0.37303076       0.89049928 </v>
   <v>       0.13180934       0.60486941       0.89526500 </v>
   <v>       0.11516194       0.37087866       0.12925574 </v>
   <v>       0.61677307       0.10961075       0.87307164 </v>
   <v>       0.61677307       0.87307164       0.10961075 </v>
   <v>       0.35779851       0.10489513       0.10489513 </v>
   <v>       0.37451488       0.87086222       0.87086222 </v>
   <v>       0.61677307       0.62706276       0.39052366 </v>
   <v>       0.61677307       0.39052366       0.62706276 </v>
   <v>       0.37451488       0.62927218       0.62927218 </v>
   <v>       0.35779851       0.39523927       0.39523927 </v>
   <v>       0.76696513       0.75006720       0.75006720 </v>
   <v>       0.72280795       0.25006720       0.25006720 </v>
   <v>       0.24489798       0.75006720       0.25006720 </v>
   <v>       0.24489798       0.25006720       0.75006720 </v>
   <v>       0.00073568       0.95336688       0.95336688 </v>
   <v>       0.00073568       0.54676752       0.54676752 </v>
   <v>       0.48904505       0.04684799       0.45328642 </v>
   <v>       0.48904505       0.45328642       0.04684799 </v>
  </varray>
 </structure>
 <calculation>
  <scstep>
   <time name="dav">    1.48    1.63</time>
   <time name="total">    1.99    2.17</time>
   <energy>
    <i name="alphaZ">    283.15930749 </i>
    <i name="ewald">  -8374.16675083 </i>
    <i name="hartreedc">  -2390.34198410 </i>
    <i name="XCdc">    532.01282180 </i>
    <i name="pawpsdc">   8141.38806575 </i>
    <i name="pawaedc">  -8271.61346273 </i>
    <i name="eentropy">     -0.01348998 </i>
    <i name="bandstr">  -1045.76492550 </i>
    <i name="atom">  12703.13999606 </i>
    <i name="e_fr_energy">   1577.79957796 </i>
    <i name="e_wo_entrp">   1577.81306794 </i>
    <i name="e_0_energy">   1577.80632295 </i>
   </energy>
  </scstep>
  <scstep>
   <time name="dav">    1.61    1.64</time>
   <time name="total">    1.61    1.64</time>
   <energy>
    <i name="e_fr_energy">    -57.28672578 </i>
    <i name="e_wo_entrp">    -57.28672578 </i>
    <i name="e_0_energy">    -57.28672578 </i>
   </energy>
  </scstep>
  <scstep>
   <time name="dav">    1.60    1.63</time>
   <time name="total">    1.60    1.63</time>
   <energy>
    <i name="e_fr_energy">   -230.83615809 </i>
    <i name="e_wo_entrp">   -230.83615809 </i>
    <i name="e_0_energy">   -230.83615809 </i>
   </energy>
  </scstep>
  <scstep>
   <time name="dav">    1.89    1.91</time>
   <time name="total">    1.89    1.91</time>
   <energy>
    <i name="e_fr_energy">   -243.55453600 </i>
    <i name="e_wo_entrp">   -243.55453600 </i>
    <i name="e_0_energy">   -243.55453600 </i>
   </energy>
  </scstep>
  <scstep>
   <time name="dav">    1.94    1.99</time>
   <time name="total">    1.94    1.99</time>
   <energy>
    <i name="e_fr_energy">   -243.89849281 </i>
    <i name="e_wo_entrp">   -243.89849281 </i>
    <i name="e_0_energy">   -243.89849281 </i>
   </energy>
  </scstep>
  <scstep>
   <time name="dav">    1.90    1.92</time>
   <time name="total">    1.90    1.92</time>
   <energy>
    <i name="e_fr_energy">   -243.90592385 </i>
    <i name="e_wo_entrp">   -243.90592385 </i>
    <i name="e_0_energy">   -243.90592385 </i>
   </energy>
  </scstep>
  <scstep>
   <time name="dav">    1.88    1.91</time>
   <time name="total">    1.88    1.91</time>
   <energy>
    <i name="e_fr_energy">   -243.90629749 </i>
    <i name="e_wo_entrp">   -243.90629749 </i>
    <i name="e_0_energy">   -243.90629749 </i>
   </energy>
  </scstep>
  <scstep>
   <time name="dav">    1.84    1.86</time>
   <time name="total">    1.84    1.86</time>
   <energy>
    <i name="e_fr_energy">   -243.90632005 </i>
    <i name="e_wo_entrp">   -243.90632005 </i>
    <i name="e_0_energy">   -243.90632005 </i>
   </energy>
  </scstep>
  <scstep>
   <time name="dav">    1.83    1.86</time>
   <time name="total">    1.83    1.86</time>
   <energy>
    <i name="e_fr_energy">   -243.90632150 </i>
    <i name="e_wo_entrp">   -243.90632150 </i>
    <i name="e_0_energy">   -243.90632150 </i>
   </energy>
  </scstep>
  <scstep>
   <time name="dav">    1.21    1.23</time>
   <time name="total">    1.38    1.44</time>
   <energy>
    <i name="e_fr_energy">   -243.90632156 </i>
    <i name="e_wo_entrp">   -243.90632156 </i>
    <i name="e_0_energy">   -243.90632156 </i>
   </energy>
  </scstep>
  <scstep>
   <time name="diag">    0.20    0.20</time>
   <time name="diis">    0.81    0.82</time>
   <time name="orth">    0.04    0.04</time>
   <time name="total">    1.65    1.72</time>
   <energy>
    <i name="e_fr_energy">   -231.91939640 </i>
    <i name="e_wo_entrp">   -231.91939640 </i>
    <i name="e_0_energy">   -231.91939640 </i>
   </energy>
  </scstep>
  <scstep>
   <time name="diag">    0.19    0.20</time>
   <time name="diis">    0.83    0.85</time>
   <time name="orth">    0.04    0.05</time>
   <time name="total">    1.69    1.76</time>
   <energy>
    <i name="e_fr_energy">   -255.74629069 </i>
    <i name="e_wo_entrp">   -255.74629069 </i>
    <i name="e_0_energy">   -255.74629069 </i>
   </energy>
  </scstep>
  <scstep>
   <time name="diag">    0.19    0.19</time>
   <time name="diis">    0.83    0.84</time>
   <time name="orth">    0.04    0.04</time>
   <time name="total">    1.66    1.72</time>
   <energy>
    <i name="e_fr_energy">   -258.32165158 </i>
    <i name="e_wo_entrp">   -258.32165158 </i>
    <i name="e_0_energy">   -258.32165158 </i>
   </energy>
  </scstep>
  <scstep>
   <time name="diag">    0.20    0.20</time>
   <time name="diis">    1.04    1.06</time>
   <time name="orth">    0.04    0.04</time>
   <time name="total">    1.88    1.93</time>
   <energy>
    <i name="e_fr_energy">   -258.59632836 </i>
    <i name="e_wo_entrp">   -258.59632836 </i>
    <i name="e_0_energy">   -258.59632836 </i>
   </energy>
  </scstep>
  <scstep>
   <time name="diag">    0.19    0.19</time>
   <time name="diis">    0.84    0.86</time>
   <time name="orth">    0.03    0.04</time>
   <time name="total">    1.67    1.72</time>
   <energy>
    <i name="e_fr_energy">   -258.55054432 </i>
    <i name="e_wo_entrp">   -258.55054432 </i>
    <i name="e_0_energy">   -258.55054432 </i>
   </energy>
  </scstep>
  <scstep>
   <time name="diag">    0.19    0.19</time>
   <time name="diis">    0.89    0.91</time>
   <time name="orth">    0.03    0.04</time>
   <time name="total">    1.71    1.73</time>
   <energy>
    <i name="e_fr_energy">   -258.57656742 </i>
    <i name="e_wo_entrp">   -258.57656742 </i>
    <i name="e_0_energy">   -258.57656742 </i>
   </energy>
  </scstep>
  <scstep>
   <time name="diag">    0.19    0.19</time>
   <time name="diis">    0.97    0.98</time>
   <time name="orth">    0.03    0.04</time>
   <time name="total">    1.79    1.82</time>
   <energy>
    <i name="e_fr_energy">   -258.58401630 </i>
    <i name="e_wo_entrp">   -258.58401630 </i>
    <i name="e_0_energy">   -258.58401630 </i>
   </energy>
  </scstep>
  <scstep>
   <time name="diag">    0.19    0.19</time>
   <time name="diis">    0.97    0.98</time>
   <time name="orth">    0.04    0.04</time>
   <time name="total">    1.79    1.84</time>
   <energy>
    <i name="e_fr_energy">   -258.58601186 </i>
    <i name="e_wo_entrp">   -258.58601186 </i>
    <i name="e_0_energy">   -258.58601186 </i>
   </energy>
  </scstep>
  <scstep>
   <time name="diag">    0.19    0.19</time>
   <time name="diis">    1.01    1.03</time>
   <time name="orth">    0.03    0.03</time>
   <time name="total">    1.83    1.86</time>
   <energy>
    <i name="e_fr_energy">   -258.58693708 </i>
    <i name="e_wo_entrp">   -258.58693708 </i>
    <i name="e_0_energy">   -258.58693708 </i>
   </energy>
  </scstep>
  <scstep>
   <time name="diag">    0.19    0.19</time>
   <time name="diis">    1.09    1.11</time>
   <time name="orth">    0.03    0.04</time>
   <time name="total">    1.91    1.94</time>
   <energy>
    <i name="e_fr_energy">   -258.58711975 </i>
    <i name="e_wo_entrp">   -258.58711975 </i>
    <i name="e_0_energy">   -258.58711975 </i>
   </energy>
  </scstep>
  <scstep>
   <time name="diag">    0.19    0.19</time>
   <time name="diis">    0.94    0.95</time>
   <time name="orth">    0.03    0.03</time>
   <time name="total">    1.76    1.81</time>
   <energy>
    <i name="e_fr_energy">   -258.58716095 </i>
    <i name="e_wo_entrp">   -258.58716095 </i>
    <i name="e_0_energy">   -258.58716095 </i>
   </energy>
  </scstep>
  <scstep>
   <time name="diag">    0.19    0.19</time>
   <time name="diis">    1.10    1.11</time>
   <time name="orth">    0.04    0.04</time>
   <time name="total">    1.92    1.95</time>
   <energy>
    <i name="e_fr_energy">   -258.58717293 </i>
    <i name="e_wo_entrp">   -258.58717293 </i>
    <i name="e_0_energy">   -258.58717293 </i>
   </energy>
  </scstep>
  <scstep>
   <time name="diag">    0.19    0.19</time>
   <time name="diis">    0.99    1.00</time>
   <time name="orth">    0.04    0.04</time>
   <time name="total">    1.81    1.83</time>
   <energy>
    <i name="e_fr_energy">   -258.58717325 </i>
    <i name="e_wo_entrp">   -258.58717325 </i>
    <i name="e_0_energy">   -258.58717325 </i>
   </energy>
  </scstep>
  <scstep>
   <time name="diag">    0.19    0.19</time>
   <time name="diis">    0.78    0.79</time>
   <time name="orth">    0.04    0.04</time>
   <time name="total">    1.48    1.50</time>
   <energy>
    <i name="alphaZ">    283.15930749 </i>
    <i name="ewald">  -8374.16675083 </i>
    <i name="hartreedc">  -2527.20423205 </i>
    <i name="XCdc">    537.09349310 </i>
    <i name="pawpsdc">   9840.63674559 </i>
    <i name="pawaedc">  -9984.86538652 </i>
    <i name="eentropy">     -0.00000000 </i>
    <i name="bandstr">  -2736.38034577 </i>
    <i name="atom">  12703.13999606 </i>
    <i name="e_fr_energy">   -258.58717292 </i>
    <i name="e_wo_entrp">   -258.58717292 </i>
    <i name="e_0_energy">   -258.58717292 </i>
   </energy>
  </scstep>
  <structure>
   <crystal>
    <varray name="basis" >
     <v>       9.86030472       0.00000000       0.00000000 </v>
     <v>       0.00000000       9.86030472       0.00000000 </v>
     <v>       0.00000000       0.00000000       9.86030472 </v>
    </varray>
    <i name="volume">    958.67413326 </i>
    <varray name="rec_basis" >
     <v>       0.10141674       0.00000000       0.00000000 </v>
     <v>       0.00000000       0.10141674       0.00000000 </v>
     <v>       0.00000000       0.00000000       0.10141674 </v>
    </varray>
   </crystal>
   <varray name="positions" >
    <v>       0.95110554       0.25006720       0.25006720 </v>
    <v>       0.00064475       0.75006720       0.75006720 </v>
    <v>       0.01647199       0.25006720       0.75006720 </v>
    <v>       0.01647199       0.75006720       0.25006720 </v>
    <v>       0.29576281       0.31038190       0.97466512 </v>
    <v>       0.19397869       0.81034052       0.02546851 </v>
    <v>       0.68225196       0.28616337       0.02098920 </v>
    <v>       0.80750152       0.78622289       0.97916380 </v>
    <v>       0.29576281       0.97466512       0.31038190 </v>
    <v>       0.19397869       0.02546851       0.81034052 </v>
    <v>       0.80750152       0.97916380       0.78622289 </v>
    <v>       0.68225196       0.02098920       0.28616337 </v>
    <v>       0.19397869       0.68979388       0.47466590 </v>
    <v>       0.29576281       0.18975251       0.52546929 </v>
    <v>       0.80750152       0.71391151       0.52097060 </v>
    <v>       0.68225196       0.21397104       0.47914521 </v>
    <v>       0.19397869       0.47466590       0.68979388 </v>
    <v>       0.29576281       0.52546929       0.18975251 </v>
    <v>       0.68225196       0.47914521       0.21397104 </v>
    <v>       0.80750152       0.52097060       0.71391151 </v>
    <v>       0.47333767       0.25006720       0.75006720 </v>
    <v>       0.47333767       0.75006720       0.25006720 </v>
    <v>       0.48910802       0.25006720       0.25006720 </v>
    <v>       0.53864231       0.75006720       0.75006720 </v>
    <v>       0.49127461       0.50801982       0.50801982 </v>
    <v>       0.49127461       0.99211458       0.99211458 </v>
    <v>       0.99829101       0.49209340       0.00804101 </v>
    <v>       0.99829101       0.00804101       0.49209340 </v>
    <v>       0.13180934       0.89526500       0.60486941 </v>
    <v>       0.11516194       0.12925574       0.37087866 </v>
    <v>       0.87288814       0.89049928       0.37303076 </v>
    <v>       0.87288814       0.12710364       0.60963513 </v>
    <v>       0.87288814       0.60963513       0.12710364 </v>
    <v>       0.87288814       0.37303076       0.89049928 </v>
    <v>       0.13180934       0.60486941       0.89526500 </v>
    <v>       0.11516194       0.37087866       0.12925574 </v>
    <v>       0.61677307       0.10961075       0.87307164 </v>
    <v>       0.61677307       0.87307164       0.10961075 </v>
    <v>       0.35779851       0.10489513       0.10489513 </v>
    <v>       0.37451488       0.87086222       0.87086222 </v>
    <v>       0.61677307       0.62706276       0.39052366 </v>
    <v>       0.61677307       0.39052366       0.62706276 </v>
    <v>       0.37451488       0.62927218       0.62927218 </v>
    <v>       0.35779851       0.39523927       0.39523927 </v>
    <v>       0.76696513       0.75006720       0.75006720 </v>
    <v>       0.72280795       0.25006720       0.25006720 </v>
    <v>       0.24489798       0.75006720       0.25006720 </v>
    <v>       0.24489798       0.25006720       0.75006720 </v>
    <v>       0.00073568       0.95336688       0.95336688 </v>
    <v>       0.00073568       0.54676752       0.54676752 </v>
    <v>       0.48904505       0.04684799       0.45328642 </v>
    <v>       0.48904505       0.45328642       0.04684799 </v>
   </varray>
  </structure>
  <varray name="forces" >
   <v>      -0.00304105      -0.00000000      -0.00000000 </v>
   <v>       0.00148545      -0.00000000      -0.00000000 </v>
   <v>       0.00037354      -0.00000000      -0.00000000 </v>
   <v>       0.00037354      -0.00000000      -0.00000000 </v>
   <v>       0.00006769       0.00031918      -0.00005022 </v>
   <v>      -0.00004889       0.00056050       0.00010942 </v>
   <v>      -0.00090626       0.00101277      -0.00039912 </v>
   <v>       0.00103355       0.00094498       0.00036049 </v>
   <v>       0.00006769      -0.00005022       0.00031918 </v>
   <v>      -0.00004889       0.00010942       0.00056050 </v>
   <v>       0.00103355       0.00036049       0.00094498 </v>
   <v>      -0.00090626      -0.00039912       0.00101277 </v>
   <v>      -0.00004889      -0.00056050      -0.00010942 </v>
   <v>       0.00006769      -0.00031918       0.00005022 </v>
   <v>       0.00103355      -0.00094498      -0.00036049 </v>
   <v>      -0.00090626      -0.00101277       0.00039912 </v>
   <v>      -0.00004889      -0.00010942      -0.00056050 </v>
   <v>       0.00006769       0.00005022      -0.00031918 </v>
   <v>      -0.00090626       0.00039912      -0.00101277 </v>
   <v>       0.00103355      -0.00036049      -0.00094498 </v>
   <v>      -0.00019401      -0.00000000      -0.00000000 </v>
   <v>      -0.00019401      -0.00000000      -0.00000000 </v>
   <v>      -0.00136332      -0.00000000      -0.00000000 </v>
   <v>       0.00331747      -0.00000000      -0.00000000 </v>
   <v>      -0.00038672      -0.00266022      -0.00266022 </v>
   <v>      -0.00038672       0.00266022       0.00266022 </v>
   <v>       0.00045352       0.00165763      -0.00165763 </v>
   <v>       0.00045352      -0.00165763       0.00165763 </v>
   <v>       0.00492302      -0.00313096       0.00313096 </v>
   <v>       0.00268066       0.00300536      -0.00300536 </v>
   <v>      -0.00449614      -0.00210532      -0.00440293 </v>
   <v>      -0.00449614       0.00440293       0.00210532 </v>
   <v>      -0.00449614       0.00210532       0.00440293 </v>
   <v>      -0.00449614      -0.00440293      -0.00210532 </v>
   <v>       0.00492302       0.00313096      -0.00313096 </v>
   <v>       0.00268066      -0.00300536       0.00300536 </v>
   <v>       0.00429808       0.00176053      -0.00416056 </v>
   <v>       0.00429808      -0.00416056       0.00176053 </v>
   <v>      -0.00481953       0.00303950       0.00303950 </v>
   <v>      -0.00330806      -0.00378761      -0.00378761 </v>
   <v>       0.00429808       0.00416056      -0.00176053 </v>
   <v>       0.00429808      -0.00176053       0.00416056 </v>
   <v>      -0.00330806       0.00378761       0.00378761 </v>
   <v>      -0.00481953      -0.00303950      -0.00303950 </v>
   <v>      -0.00159902      -0.00000000      -0.00000000 </v>
   <v>       0.00167162      -0.00000000      -0.00000000 </v>
   <v>       0.00003364      -0.00000000      -0.00000000 </v>
   <v>       0.00003364      -0.00000000      -0.00000000 </v>
   <v>       0.00057018       0.00203600       0.00203600 </v>
   <v>       0.00057018      -0.00203600      -0.00203600 </v>
   <v>      -0.00045789      -0.00194297       0.00194297 </v>
   <v>      -0.00045789       0.00194297      -0.00194297 </v>
  </varray>
  <varray name="stress" >
   <v>      -7.30886702       0.00000000       0.00000000 </v>
   <v>       0.00000000       3.53422385      -0.03193908 </v>
   <v>       0.00000000      -0.03193908       3.53422385 </v>
  </varray>
  <energy>
   <i name="e_fr_energy">   -271.28370667 </i>
   <i name="e_wo_entrp">   -271.28370667 </i>
   <i name="e_0_energy">   -271.28370667 </i>
  </energy>
  <time name="totalsc">   44.96   46.08</time>
 </calculation>
 <calculation>
  <scstep>
   <time name="dav">    1.40    1.42</time>
   <time name="total">    2.03    2.08</time>
   <energy>
    <i name="alphaZ">    283.15930749 </i>
    <i name="ewald">  -8374.34575659 </i>
    <i name="hartreedc">  -2527.06607789 </i>
    <i name="XCdc">    537.09003131 </i>
    <i name="pawpsdc">   9840.63643210 </i>
    <i name="pawaedc">  -9984.86506494 </i>
    <i name="eentropy">     -0.00000000 </i>
    <i name="bandstr">  -2736.33604376 </i>
    <i name="atom">  12703.13999606 </i>
    <i name="e_fr_energy">   -258.58717622 </i>
    <i name="e_wo_entrp">   -258.58717622 </i>
    <i name="e_0_energy">   -258.58717622 </i>
   </energy>
  </scstep>
  <scstep>
   <time name="diag">    0.19    0.20</time>
   <time name="diis">    0.82    0.83</time>
   <time name="orth">    0.04    0.04</time>
   <time name="total">    1.67    1.72</time>
   <energy>
    <i name="e_fr_energy">   -258.58717697 </i>
    <i name="e_wo_entrp">   -258.58717697 </i>
    <i name="e_0_energy">   -258.58717697 </i>
   </energy>
  </scstep>
  <scstep>
   <time name="diag">    0.19    0.19</time>
   <time name="diis">    0.75    0.76</time>
   <time name="orth">    0.04    0.04</time>
   <time name="total">    1.45    1.47</time>
   <energy>
    <i name="alphaZ">    283.15930749 </i>
    <i name="ewald">  -8374.34575659 </i>
    <i name="hartreedc">  -2527.05371950 </i>
    <i name="XCdc">    537.08918933 </i>
    <i name="pawpsdc">   9840.41671135 </i>
    <i name="pawaedc">  -9984.64415785 </i>
    <i name="eentropy">     -0.00000000 </i>
    <i name="bandstr">  -2736.34874768 </i>
    <i name="atom">  12703.13999606 </i>
    <i name="e_fr_energy">   -258.58717738 </i>
    <i name="e_wo_entrp">   -258.58717738 </i>
    <i name="e_0_energy">   -258.58717738 </i>
   </energy>
  </scstep>
  <structure>
   <crystal>
    <varray name="basis" >
     <v>       9.86030472       0.00000000       0.00000000 </v>
     <v>       0.00000000       9.86030472       0.00000000 </v>
     <v>       0.00000000       0.00000000       9.86030472 </v>
    </varray>
    <i name="volume">    958.67413326 </i>
    <varray name="rec_basis" >
     <v>       0.10141674       0.00000000       0.00000000 </v>
     <v>       0.00000000       0.10141674       0.00000000 </v>
     <v>       0.00000000       0.00000000       0.10141674 </v>
    </varray>
   </crystal>
   <varray name="positions" >
    <v>       0.95109959       0.25006720       0.25006720 </v>
    <v>       0.00064765       0.75006720       0.75006720 </v>
    <v>       0.01647272       0.25006720       0.75006720 </v>
    <v>       0.01647272       0.75006720       0.25006720 </v>
    <v>       0.29576294       0.31038252       0.97466502 </v>
    <v>       0.19397859       0.81034162       0.02546872 </v>
    <v>       0.68225019       0.28616535       0.02098842 </v>
    <v>       0.80750354       0.78622474       0.97916451 </v>
    <v>       0.29576294       0.97466502       0.31038252 </v>
    <v>       0.19397859       0.02546872       0.81034162 </v>
    <v>       0.80750354       0.97916451       0.78622474 </v>
    <v>       0.68225019       0.02098842       0.28616535 </v>
    <v>       0.19397859       0.68979279       0.47466568 </v>
    <v>       0.29576294       0.18975188       0.52546939 </v>
    <v>       0.80750354       0.71390967       0.52096990 </v>
    <v>       0.68225019       0.21396905       0.47914599 </v>
    <v>       0.19397859       0.47466568       0.68979279 </v>
    <v>       0.29576294       0.52546939       0.18975188 </v>
    <v>       0.68225019       0.47914599       0.21396905 </v>
    <v>       0.80750354       0.52096990       0.71390967 </v>
    <v>       0.47333729       0.25006720       0.75006720 </v>
    <v>       0.47333729       0.75006720       0.25006720 </v>
    <v>       0.48910535       0.25006720       0.25006720 </v>
    <v>       0.53864880       0.75006720       0.75006720 </v>
    <v>       0.49127385       0.50801462       0.50801462 </v>
    <v>       0.49127385       0.99211979       0.99211979 </v>
    <v>       0.99829190       0.49209664       0.00803777 </v>
    <v>       0.99829190       0.00803777       0.49209664 </v>
    <v>       0.13181897       0.89525887       0.60487554 </v>
    <v>       0.11516719       0.12926162       0.37087278 </v>
    <v>       0.87287934       0.89049515       0.37302215 </v>
    <v>       0.87287934       0.12711226       0.60963925 </v>
    <v>       0.87287934       0.60963925       0.12711226 </v>
    <v>       0.87287934       0.37302215       0.89049515 </v>
    <v>       0.13181897       0.60487554       0.89525887 </v>
    <v>       0.11516719       0.37087278       0.12926162 </v>
    <v>       0.61678149       0.10961420       0.87306350 </v>
    <v>       0.61678149       0.87306350       0.10961420 </v>
    <v>       0.35778908       0.10490108       0.10490108 </v>
    <v>       0.37450840       0.87085481       0.87085481 </v>
    <v>       0.61678149       0.62707090       0.39052021 </v>
    <v>       0.61678149       0.39052021       0.62707090 </v>
    <v>       0.37450840       0.62927960       0.62927960 </v>
    <v>       0.35778908       0.39523333       0.39523333 </v>
    <v>       0.76696200       0.75006720       0.75006720 </v>
    <v>       0.72281122       0.25006720       0.25006720 </v>
    <v>       0.24489804       0.75006720       0.25006720 </v>
    <v>       0.24489804       0.25006720       0.75006720 </v>
    <v>       0.00073679       0.95337087       0.95337087 </v>
    <v>       0.00073679       0.54676354       0.54676354 </v>
    <v>       0.48904416       0.04684418       0.45329022 </v>
    <v>       0.48904416       0.45329022       0.04684418 </v>
   </varray>
  </structure>
  <varray name="forces" >
   <v>      -0.00217675      -0.00000000      -0.00000000 </v>
   <v>       0.00073906       0.00000000      -0.00000000 </v>
   <v>       0.00014189       0.00000000      -0.00000000 </v>
   <v>       0.00014189       0.00000000      -0.00000000 </v>
   <v>       0.00002364       0.00030440      -0.00004768 </v>
   <v>       0.00000673       0.00042107       0.00001963 </v>
   <v>      -0.00059152       0.00063246      -0.00025703 </v>
   <v>       0.00068477       0.00059314       0.00021218 </v>
   <v>       0.00002364      -0.00004768       0.00030440 </v>
   <v>       0.00000673       0.00001963       0.00042107 </v>
   <v>       0.00068477       0.00021218       0.00059314 </v>
   <v>      -0.00059152      -0.00025703       0.00063246 </v>
   <v>       0.00000673      -0.00042107      -0.00001963 </v>
   <v>       0.00002364      -0.00030440       0.00004768 </v>
   <v>       0.00068477      -0.00059314      -0.00021218 </v>
   <v>      -0.00059152      -0.00063246       0.00025703 </v>
   <v>       0.00000673      -0.00001963      -0.00042107 </v>
   <v>       0.00002364       0.00004768      -0.00030440 </v>
   <v>      -0.00059152       0.00025703      -0.00063246 </v>
   <v>       0.00068477      -0.00021218      -0.00059314 </v>
   <v>      -0.00004358      -0.00000000      -0.00000000 </v>
   <v>      -0.00004358       0.00000000      -0.00000000 </v>
   <v>      -0.00065945       0.00000000      -0.00000000 </v>
   <v>       0.00238024       0.00000000      -0.00000000 </v>
   <v>      -0.00032869      -0.00110221      -0.00110221 </v>
   <v>      -0.00032869       0.00110221       0.00110221 </v>
   <v>       0.00011390       0.00088298      -0.00088298 </v>
   <v>       0.00011390      -0.00088298       0.00088298 </v>
   <v>       0.00315656      -0.00178682       0.00178682 </v>
   <v>       0.00109273       0.00126442      -0.00126442 </v>
   <v>      -0.00254141      -0.00087263      -0.00251464 </v>
   <v>      -0.00254141       0.00251464       0.00087263 </v>
   <v>      -0.00254141       0.00087263       0.00251464 </v>
   <v>      -0.00254141      -0.00251464      -0.00087263 </v>
   <v>       0.00315656       0.00178682      -0.00178682 </v>
   <v>       0.00109273      -0.00126442       0.00126442 </v>
   <v>       0.00241699       0.00069555      -0.00233393 </v>
   <v>       0.00241699      -0.00233393       0.00069555 </v>
   <v>      -0.00324043       0.00188338       0.00188338 </v>
   <v>      -0.00125994      -0.00149049      -0.00149049 </v>
   <v>       0.00241699       0.00233393      -0.00069555 </v>
   <v>       0.00241699      -0.00069555       0.00233393 </v>
   <v>      -0.00125994       0.00149049       0.00149049 </v>
   <v>      -0.00324043      -0.00188338      -0.00188338 </v>
   <v>      -0.00052548       0.00000000      -0.00000000 </v>
   <v>       0.00062748      -0.00000000      -0.00000000 </v>
   <v>       0.00003259      -0.00000000      -0.00000000 </v>
   <v>       0.00003259       0.00000000      -0.00000000 </v>
   <v>       0.00055013       0.00069738       0.00069738 </v>
   <v>       0.00055013      -0.00069738      -0.00069738 </v>
   <v>      -0.00040609      -0.00069916       0.00069916 </v>
   <v>      -0.00040609       0.00069916      -0.00069916 </v>
  </varray>
  <varray name="stress" >
   <v>      -7.35911177       0.00000000      -0.00000000 </v>
   <v>       0.00000000       3.48619112      -0.03352161 </v>
   <v>       0.00000000      -0.03352161       3.48619112 </v>
  </varray>
  <energy>
   <i name="e_fr_energy">   -271.28371804 </i>
   <i name="e_wo_entrp">   -271.28371804 </i>
   <i name="e_0_energy">   -271.28371804 </i>
  </energy>
  <time name="totalsc">    7.71    7.89</time>
 </calculation>
 <calculation>
  <scstep>
   <time name="dav">    1.49    1.51</time>
   <time name="total">    2.10    2.14</time>
   <energy>
    <i name="alphaZ">    283.15930749 </i>
    <i name="ewald">  -8374.55112075 </i>
    <i name="hartreedc">  -2526.88815603 </i>
    <i name="XCdc">    537.08497529 </i>
    <i name="pawpsdc">   9840.40093217 </i>
    <i name="pawaedc">  -9984.62817304 </i>
    <i name="eentropy">     -0.00000000 </i>
    <i name="bandstr">  -2736.30493531 </i>
    <i name="atom">  12703.13999606 </i>
    <i name="e_fr_energy">   -258.58717411 </i>
    <i name="e_wo_entrp">   -258.58717411 </i>
    <i name="e_0_energy">   -258.58717411 </i>
   </energy>
  </scstep>
  <scstep>
   <time name="diag">    0.19    0.20</time>
   <time name="diis">    0.81    0.82</time>
   <time name="orth">    0.04    0.04</time>
   <time name="total">    1.62    1.66</time>
   <energy>
    <i name="e_fr_energy">   -258.58717507 </i>
    <i name="e_wo_entrp">   -258.58717507 </i>
    <i name="e_0_energy">   -258.58717507 </i>
   </energy>
  </scstep>
  <scstep>
   <time name="diag">    0.19    0.19</time>
   <time name="diis">    0.80    0.81</time>
   <time name="orth">    0.04    0.04</time>
   <time name="total">    1.64    1.69</time>
   <energy>
    <i name="e_fr_energy">   -258.58717558 </i>
    <i name="e_wo_entrp">   -258.58717558 </i>
    <i name="e_0_energy">   -258.58717558 </i>
   </energy>
  </scstep>
  <scstep>
   <time name="diag">    0.19    0.19</time>
   <time name="diis">    0.55    0.56</time>
   <time name="orth">    0.03    0.04</time>
   <time name="total">    1.25    1.26</time>
   <energy>
    <i name="alphaZ">    283.15930749 </i>
    <i name="ewald">  -8374.55112075 </i>
    <i name="hartreedc">  -2526.87053654 </i>
    <i name="XCdc">    537.08411359 </i>
    <i name="pawpsdc">   9840.10928472 </i>
    <i name="pawaedc">  -9984.33519827 </i>
    <i name="eentropy">     -0.00000000 </i>
    <i name="bandstr">  -2736.32302211 </i>
    <i name="atom">  12703.13999606 </i>
    <i name="e_fr_energy">   -258.58717581 </i>
    <i name="e_wo_entrp">   -258.58717581 </i>
    <i name="e_0_energy">   -258.58717581 </i>
   </energy>
  </scstep>
  <structure>
   <crystal>
    <varray name="basis" >
     <v>       9.86030472       0.00000000       0.00000000 </v>
     <v>       0.00000000       9.86030472       0.00000000 </v>
     <v>       0.00000000       0.00000000       9.86030472 </v>
    </varray>
    <i name="volume">    958.67413326 </i>
    <varray name="rec_basis" >
     <v>       0.10141674       0.00000000       0.00000000 </v>
     <v>       0.00000000       0.10141674       0.00000000 </v>
     <v>       0.00000000       0.00000000       0.10141674 </v>
    </varray>
   </crystal>
   <varray name="positions" >
    <v>       0.95109276       0.25006720       0.25006720 </v>
    <v>       0.00065099       0.75006720       0.75006720 </v>
    <v>       0.01647356       0.25006720       0.75006720 </v>
    <v>       0.01647356       0.75006720       0.25006720 </v>
    <v>       0.29576310       0.31038324       0.97466491 </v>
    <v>       0.19397848       0.81034288       0.02546897 </v>
    <v>       0.68224815       0.28616763       0.02098752 </v>
    <v>       0.80750586       0.78622686       0.97916532 </v>
    <v>       0.29576310       0.97466491       0.31038324 </v>
    <v>       0.19397848       0.02546897       0.81034288 </v>
    <v>       0.80750586       0.97916532       0.78622686 </v>
    <v>       0.68224815       0.02098752       0.28616763 </v>
    <v>       0.19397848       0.68979153       0.47466544 </v>
    <v>       0.29576310       0.18975117       0.52546950 </v>
    <v>       0.80750586       0.71390754       0.52096909 </v>
    <v>       0.68224815       0.21396678       0.47914689 </v>
    <v>       0.19397848       0.47466544       0.68979153 </v>
    <v>       0.29576310       0.52546950       0.18975117 </v>
    <v>       0.68224815       0.47914689       0.21396678 </v>
    <v>       0.80750586       0.52096909       0.71390754 </v>
    <v>       0.47333685       0.25006720       0.75006720 </v>
    <v>       0.47333685       0.75006720       0.25006720 </v>
    <v>       0.48910229       0.25006720       0.25006720 </v>
    <v>       0.53865626       0.75006720       0.75006720 </v>
    <v>       0.49127298       0.50800864       0.50800864 </v>
    <v>       0.49127298       0.99212577       0.99212577 </v>
    <v>       0.99829291       0.49210036       0.00803404 </v>
    <v>       0.99829291       0.00803404       0.49210036 </v>
    <v>       0.13183003       0.89525184       0.60488257 </v>
    <v>       0.11517321       0.12926837       0.37086603 </v>
    <v>       0.87286924       0.89049043       0.37301226 </v>
    <v>       0.87286924       0.12712215       0.60964398 </v>
    <v>       0.87286924       0.60964398       0.12712215 </v>
    <v>       0.87286924       0.37301226       0.89049043 </v>
    <v>       0.13183003       0.60488257       0.89525184 </v>
    <v>       0.11517321       0.37086603       0.12926837 </v>
    <v>       0.61679114       0.10961815       0.87305416 </v>
    <v>       0.61679114       0.87305416       0.10961815 </v>
    <v>       0.35777826       0.10490791       0.10490791 </v>
    <v>       0.37450097       0.87084630       0.87084630 </v>
    <v>       0.61679114       0.62708025       0.39051626 </v>
    <v>       0.61679114       0.39051626       0.62708025 </v>
    <v>       0.37450097       0.62928810       0.62928810 </v>
    <v>       0.35777826       0.39522650       0.39522650 </v>
    <v>       0.76695841       0.75006720       0.75006720 </v>
    <v>       0.72281497       0.25006720       0.25006720 </v>
    <v>       0.24489812       0.75006720       0.25006720 </v>
    <v>       0.24489812       0.25006720       0.75006720 </v>
    <v>       0.00073807       0.95337544       0.95337544 </v>
    <v>       0.00073807       0.54675897       0.54675897 </v>
    <v>       0.48904313       0.04683982       0.45329459 </v>
    <v>       0.48904313       0.45329459       0.04683982 </v>
   </varray>
  </structure>
  <varray name="forces" >
   <v>      -0.00155245       0.00000000      -0.00000000 </v>
   <v>       0.00049825       0.00000000      -0.00000000 </v>
   <v>       0.00009760       0.00000000      -0.00000000 </v>
   <v>       0.00009760       0.00000000      -0.00000000 </v>
   <v>       0.00000672       0.00043473      -0.00008535 </v>
   <v>       0.00001956       0.00053139       0.00001106 </v>
   <v>      -0.00069250       0.00064181      -0.00024632 </v>
   <v>       0.00078470       0.00060592       0.00017742 </v>
   <v>       0.00000672      -0.00008535       0.00043473 </v>
   <v>       0.00001956       0.00001106       0.00053139 </v>
   <v>       0.00078470       0.00017742       0.00060592 </v>
   <v>      -0.00069250      -0.00024632       0.00064181 </v>
   <v>       0.00001956      -0.00053139      -0.00001106 </v>
   <v>       0.00000672      -0.00043473       0.00008535 </v>
   <v>       0.00078470      -0.00060592      -0.00017742 </v>
   <v>      -0.00069250      -0.00064181       0.00024632 </v>
   <v>       0.00001956      -0.00001106      -0.00053139 </v>
   <v>       0.00000672       0.00008535      -0.00043473 </v>
   <v>      -0.00069250       0.00024632      -0.00064181 </v>
   <v>       0.00078470      -0.00017742      -0.00060592 </v>
   <v>      -0.00000560       0.00000000      -0.00000000 </v>
   <v>      -0.00000560       0.00000000      -0.00000000 </v>
   <v>      -0.00042814       0.00000000      -0.00000000 </v>
   <v>       0.00217957       0.00000000      -0.00000000 </v>
   <v>      -0.00018635       0.00074337       0.00074337 </v>
   <v>      -0.00018635      -0.00074337      -0.00074337 </v>
   <v>      -0.00037397      -0.00008165       0.00008165 </v>
   <v>      -0.00037397       0.00008165      -0.00008165 </v>
   <v>       0.00183912      -0.00062991       0.00062991 </v>
   <v>      -0.00039854      -0.00031705       0.00031705 </v>
   <v>      -0.00092567       0.00041338      -0.00095865 </v>
   <v>      -0.00092567       0.00095865      -0.00041338 </v>
   <v>      -0.00092567      -0.00041338       0.00095865 </v>
   <v>      -0.00092567      -0.00095865       0.00041338 </v>
   <v>       0.00183912       0.00062991      -0.00062991 </v>
   <v>      -0.00039854       0.00031705      -0.00031705 </v>
   <v>       0.00083881      -0.00046201      -0.00081045 </v>
   <v>       0.00083881      -0.00081045      -0.00046201 </v>
   <v>      -0.00218918       0.00094722       0.00094722 </v>
   <v>       0.00060163       0.00058047       0.00058047 </v>
   <v>       0.00083881       0.00081045       0.00046201 </v>
   <v>       0.00083881       0.00046201       0.00081045 </v>
   <v>       0.00060163      -0.00058047      -0.00058047 </v>
   <v>      -0.00218918      -0.00094722      -0.00094722 </v>
   <v>       0.00014646       0.00000000      -0.00000000 </v>
   <v>      -0.00005138       0.00000000      -0.00000000 </v>
   <v>       0.00004481       0.00000000      -0.00000000 </v>
   <v>       0.00004481       0.00000000      -0.00000000 </v>
   <v>       0.00050126       0.00092118       0.00092118 </v>
   <v>       0.00050126      -0.00092118      -0.00092118 </v>
   <v>      -0.00039016      -0.00089002       0.00089002 </v>
   <v>      -0.00039016       0.00089002      -0.00089002 </v>
  </varray>
  <varray name="stress" >
   <v>      -7.40286279       0.00000000      -0.00000000 </v>
   <v>       0.00000000       3.44364615      -0.03550454 </v>
   <v>       0.00000000      -0.03550454       3.44364615 </v>
  </varray>
  <energy>
   <i name="e_fr_energy">   -271.28372435 </i>
   <i name="e_wo_entrp">   -271.28372435 </i>
   <i name="e_0_energy">   -271.28372435 </i>
  </energy>
  <time name="totalsc">    9.15    9.36</time>
 </calculation>
 <calculation>
  <scstep>
   <time name="dav">    1.49    1.50</time>
   <time name="total">    2.08    2.10</time>
   <energy>
    <i name="alphaZ">    283.15930749 </i>
    <i name="ewald">  -8374.64614318 </i>
    <i name="hartreedc">  -2526.79310873 </i>
    <i name="XCdc">    537.08209757 </i>
    <i name="pawpsdc">   9840.06697816 </i>
    <i name="pawaedc">  -9984.29242957 </i>
    <i name="eentropy">     -0.00000000 </i>
    <i name="bandstr">  -2736.30387054 </i>
    <i name="atom">  12703.13999606 </i>
    <i name="e_fr_energy">   -258.58717274 </i>
    <i name="e_wo_entrp">   -258.58717274 </i>
    <i name="e_0_energy">   -258.58717274 </i>
   </energy>
  </scstep>
  <scstep>
   <time name="diag">    0.19    0.19</time>
   <time name="diis">    0.72    0.73</time>
   <time name="orth">    0.04    0.04</time>
   <time name="total">    1.41    1.43</time>
   <energy>
    <i name="alphaZ">    283.15930749 </i>
    <i name="ewald">  -8374.64614318 </i>
    <i name="hartreedc">  -2526.78730138 </i>
    <i name="XCdc">    537.08184971 </i>
    <i name="pawpsdc">   9839.99714897 </i>
    <i name="pawaedc">  -9984.22248373 </i>
    <i name="eentropy">     -0.00000000 </i>
    <i name="bandstr">  -2736.30954666 </i>
    <i name="atom">  12703.13999606 </i>
    <i name="e_fr_energy">   -258.58717272 </i>
    <i name="e_wo_entrp">   -258.58717272 </i>
    <i name="e_0_energy">   -258.58717272 </i>
   </energy>
  </scstep>
  <structure>
   <crystal>
    <varray name="basis" >
     <v>       9.86030472       0.00000000       0.00000000 </v>
     <v>       0.00000000       9.86030472       0.00000000 </v>
     <v>       0.00000000       0.00000000       9.86030472 </v>
    </varray>
    <i name="volume">    958.67413326 </i>
    <varray name="rec_basis" >
     <v>       0.10141674       0.00000000       0.00000000 </v>
     <v>       0.00000000       0.10141674       0.00000000 </v>
     <v>       0.00000000       0.00000000       0.10141674 </v>
    </varray>
   </crystal>
   <varray name="positions" >
    <v>       0.95108960       0.25006720       0.25006720 </v>
    <v>       0.00065253       0.75006720       0.75006720 </v>
    <v>       0.01647395       0.25006720       0.75006720 </v>
    <v>       0.01647395       0.75006720       0.25006720 </v>
    <v>       0.29576317       0.31038357       0.97466486 </v>
    <v>       0.19397843       0.81034346       0.02546908 </v>
    <v>       0.68224721       0.28616868       0.02098710 </v>
    <v>       0.80750694       0.78622785       0.97916569 </v>
    <v>       0.29576317       0.97466486       0.31038357 </v>
    <v>       0.19397843       0.02546908       0.81034346 </v>
    <v>       0.80750694       0.97916569       0.78622785 </v>
    <v>       0.68224721       0.02098710       0.28616868 </v>
    <v>       0.19397843       0.68979094       0.47466532 </v>
    <v>       0.29576317       0.18975083       0.52546955 </v>
    <v>       0.80750694       0.71390656       0.52096871 </v>
    <v>       0.68224721       0.21396573       0.47914730 </v>
    <v>       0.19397843       0.47466532       0.68979094 </v>
    <v>       0.29576317       0.52546955       0.18975083 </v>
    <v>       0.68224721       0.47914730       0.21396573 </v>
    <v>       0.80750694       0.52096871       0.71390656 </v>
    <v>       0.47333665       0.25006720       0.75006720 </v>
    <v>       0.47333665       0.75006720       0.25006720 </v>
    <v>       0.48910087       0.25006720       0.25006720 </v>
    <v>       0.53865970       0.75006720       0.75006720 </v>
    <v>       0.49127258       0.50800587       0.50800587 </v>
    <v>       0.49127258       0.99212853       0.99212853 </v>
    <v>       0.99829339       0.49210209       0.00803232 </v>
    <v>       0.99829339       0.00803232       0.49210209 </v>
    <v>       0.13183515       0.89524858       0.60488582 </v>
    <v>       0.11517599       0.12927150       0.37086291 </v>
    <v>       0.87286457       0.89048824       0.37300768 </v>
    <v>       0.87286457       0.12712673       0.60964617 </v>
    <v>       0.87286457       0.60964617       0.12712673 </v>
    <v>       0.87286457       0.37300768       0.89048824 </v>
    <v>       0.13183515       0.60488582       0.89524858 </v>
    <v>       0.11517599       0.37086291       0.12927150 </v>
    <v>       0.61679561       0.10961998       0.87304983 </v>
    <v>       0.61679561       0.87304983       0.10961998 </v>
    <v>       0.35777324       0.10491107       0.10491107 </v>
    <v>       0.37449753       0.87084237       0.87084237 </v>
    <v>       0.61679561       0.62708457       0.39051443 </v>
    <v>       0.61679561       0.39051443       0.62708457 </v>
    <v>       0.37449753       0.62929204       0.62929204 </v>
    <v>       0.35777324       0.39522334       0.39522334 </v>
    <v>       0.76695675       0.75006720       0.75006720 </v>
    <v>       0.72281671       0.25006720       0.25006720 </v>
    <v>       0.24489815       0.75006720       0.25006720 </v>
    <v>       0.24489815       0.25006720       0.75006720 </v>
    <v>       0.00073867       0.95337756       0.95337756 </v>
    <v>       0.00073867       0.54675685       0.54675685 </v>
    <v>       0.48904265       0.04683780       0.45329661 </v>
    <v>       0.48904265       0.45329661       0.04683780 </v>
   </varray>
  </structure>
  <varray name="forces" >
   <v>      -0.00136915      -0.00000000      -0.00000000 </v>
   <v>       0.00062093      -0.00000000      -0.00000000 </v>
   <v>       0.00008878      -0.00000000      -0.00000000 </v>
   <v>       0.00008878      -0.00000000      -0.00000000 </v>
   <v>       0.00000951       0.00050735      -0.00008607 </v>
   <v>       0.00003375       0.00060977      -0.00000536 </v>
   <v>      -0.00081188       0.00075789      -0.00030996 </v>
   <v>       0.00093033       0.00071594       0.00023042 </v>
   <v>       0.00000951      -0.00008607       0.00050735 </v>
   <v>       0.00003375      -0.00000536       0.00060977 </v>
   <v>       0.00093033       0.00023042       0.00071594 </v>
   <v>      -0.00081188      -0.00030996       0.00075789 </v>
   <v>       0.00003375      -0.00060977       0.00000536 </v>
   <v>       0.00000951      -0.00050735       0.00008607 </v>
   <v>       0.00093033      -0.00071594      -0.00023042 </v>
   <v>      -0.00081188      -0.00075789       0.00030996 </v>
   <v>       0.00003375       0.00000536      -0.00060977 </v>
   <v>       0.00000951       0.00008607      -0.00050735 </v>
   <v>      -0.00081188       0.00030996      -0.00075789 </v>
   <v>       0.00093033      -0.00023042      -0.00071594 </v>
   <v>       0.00002235      -0.00000000      -0.00000000 </v>
   <v>       0.00002235      -0.00000000      -0.00000000 </v>
   <v>      -0.00051003      -0.00000000      -0.00000000 </v>
   <v>       0.00145197      -0.00000000      -0.00000000 </v>
   <v>      -0.00014645       0.00164618       0.00164618 </v>
   <v>      -0.00014645      -0.00164618      -0.00164618 </v>
   <v>      -0.00057612      -0.00053269       0.00053269 </v>
   <v>      -0.00057612       0.00053269      -0.00053269 </v>
   <v>       0.00103387       0.00008519      -0.00008519 </v>
   <v>      -0.00124561      -0.00123203       0.00123203 </v>
   <v>       0.00006784       0.00115826      -0.00003901 </v>
   <v>       0.00006784       0.00003901      -0.00115826 </v>
   <v>       0.00006784      -0.00115826       0.00003901 </v>
   <v>       0.00006784      -0.00003901       0.00115826 </v>
   <v>       0.00103387      -0.00008519       0.00008519 </v>
   <v>      -0.00124561       0.00123203      -0.00123203 </v>
   <v>      -0.00012260      -0.00112760       0.00009082 </v>
   <v>      -0.00012260       0.00009082      -0.00112760 </v>
   <v>      -0.00146320       0.00033598       0.00033598 </v>
   <v>       0.00174511       0.00182583       0.00182583 </v>
   <v>      -0.00012260      -0.00009082       0.00112760 </v>
   <v>      -0.00012260       0.00112760      -0.00009082 </v>
   <v>       0.00174511      -0.00182583      -0.00182583 </v>
   <v>      -0.00146320      -0.00033598      -0.00033598 </v>
   <v>       0.00049140      -0.00000000      -0.00000000 </v>
   <v>      -0.00036539      -0.00000000      -0.00000000 </v>
   <v>       0.00005443      -0.00000000      -0.00000000 </v>
   <v>       0.00005443      -0.00000000      -0.00000000 </v>
   <v>       0.00048081       0.00086826       0.00086826 </v>
   <v>       0.00048081      -0.00086826      -0.00086826 </v>
   <v>      -0.00036772      -0.00083290       0.00083290 </v>
   <v>      -0.00036772       0.00083290      -0.00083290 </v>
  </varray>
  <varray name="stress" >
   <v>      -7.42992937       0.00000000       0.00000000 </v>
   <v>       0.00000000       3.41777504      -0.03652889 </v>
   <v>      -0.00000000      -0.03652889       3.41777504 </v>
  </varray>
  <energy>
   <i name="e_fr_energy">   -271.28372491 </i>
   <i name="e_wo_entrp">   -271.28372491 </i>
   <i name="e_0_energy">   -271.28372491 </i>
  </energy>
  <time name="totalsc">    6.02    6.10</time>
 </calculation>
 <calculation>
  <scstep>
   <time name="dav">    1.41    1.42</time>
   <time name="total">    2.01    2.07</time>
   <energy>
    <i name="alphaZ">    283.15930749 </i>
    <i name="ewald">  -8374.62449462 </i>
    <i name="hartreedc">  -2526.80166736 </i>
    <i name="XCdc">    537.08211527 </i>
    <i name="pawpsdc">   9839.94724567 </i>
    <i name="pawaedc">  -9984.17235999 </i>
    <i name="eentropy">     -0.00000000 </i>
    <i name="bandstr">  -2736.31731597 </i>
    <i name="atom">  12703.13999606 </i>
    <i name="e_fr_energy">   -258.58717345 </i>
    <i name="e_wo_entrp">   -258.58717345 </i>
    <i name="e_0_energy">   -258.58717345 </i>
   </energy>
  </scstep>
  <scstep>
   <time name="diag">    0.19    0.19</time>
   <time name="diis">    0.48    0.49</time>
   <time name="orth">    0.04    0.04</time>
   <time name="total">    1.18    1.19</time>
   <energy>
    <i name="alphaZ">    283.15930749 </i>
    <i name="ewald">  -8374.62449462 </i>
    <i name="hartreedc">  -2526.80250248 </i>
    <i name="XCdc">    537.08216242 </i>
    <i name="pawpsdc">   9839.95212699 </i>
    <i name="pawaedc">  -9984.17716939 </i>
    <i name="eentropy">     -0.00000000 </i>
    <i name="bandstr">  -2736.31660005 </i>
    <i name="atom">  12703.13999606 </i>
    <i name="e_fr_energy">   -258.58717358 </i>
    <i name="e_wo_entrp">   -258.58717358 </i>
    <i name="e_0_energy">   -258.58717358 </i>
   </energy>
  </scstep>
  <structure>
   <crystal>
    <varray name="basis" >
     <v>       9.86030472       0.00000000       0.00000000 </v>
     <v>       0.00000000       9.86030472       0.00000000 </v>
     <v>       0.00000000       0.00000000       9.86030472 </v>
    </varray>
    <i name="volume">    958.67413326 </i>
    <varray name="rec_basis" >
     <v>       0.10141674       0.00000000       0.00000000 </v>
     <v>       0.00000000       0.10141674       0.00000000 </v>
     <v>       0.00000000       0.00000000       0.10141674 </v>
    </varray>
   </crystal>
   <varray name="positions" >
    <v>       0.95109032       0.25006720       0.25006720 </v>
    <v>       0.00065218       0.75006720       0.75006720 </v>
    <v>       0.01647386       0.25006720       0.75006720 </v>
    <v>       0.01647386       0.75006720       0.25006720 </v>
    <v>       0.29576315       0.31038350       0.97466487 </v>
    <v>       0.19397844       0.81034333       0.02546906 </v>
    <v>       0.68224743       0.28616844       0.02098720 </v>
    <v>       0.80750669       0.78622762       0.97916561 </v>
    <v>       0.29576315       0.97466487       0.31038350 </v>
    <v>       0.19397844       0.02546906       0.81034333 </v>
    <v>       0.80750669       0.97916561       0.78622762 </v>
    <v>       0.68224743       0.02098720       0.28616844 </v>
    <v>       0.19397844       0.68979108       0.47466535 </v>
    <v>       0.29576315       0.18975091       0.52546954 </v>
    <v>       0.80750669       0.71390678       0.52096880 </v>
    <v>       0.68224743       0.21396597       0.47914721 </v>
    <v>       0.19397844       0.47466535       0.68979108 </v>
    <v>       0.29576315       0.52546954       0.18975091 </v>
    <v>       0.68224743       0.47914721       0.21396597 </v>
    <v>       0.80750669       0.52096880       0.71390678 </v>
    <v>       0.47333669       0.25006720       0.75006720 </v>
    <v>       0.47333669       0.75006720       0.25006720 </v>
    <v>       0.48910119       0.25006720       0.25006720 </v>
    <v>       0.53865892       0.75006720       0.75006720 </v>
    <v>       0.49127267       0.50800650       0.50800650 </v>
    <v>       0.49127267       0.99212790       0.99212790 </v>
    <v>       0.99829328       0.49210169       0.00803271 </v>
    <v>       0.99829328       0.00803271       0.49210169 </v>
    <v>       0.13183398       0.89524932       0.60488508 </v>
    <v>       0.11517536       0.12927079       0.37086362 </v>
    <v>       0.87286563       0.89048874       0.37300872 </v>
    <v>       0.87286563       0.12712568       0.60964567 </v>
    <v>       0.87286563       0.60964567       0.12712568 </v>
    <v>       0.87286563       0.37300872       0.89048874 </v>
    <v>       0.13183398       0.60488508       0.89524932 </v>
    <v>       0.11517536       0.37086362       0.12927079 </v>
    <v>       0.61679459       0.10961956       0.87305082 </v>
    <v>       0.61679459       0.87305082       0.10961956 </v>
    <v>       0.35777439       0.10491035       0.10491035 </v>
    <v>       0.37449832       0.87084326       0.87084326 </v>
    <v>       0.61679459       0.62708359       0.39051484 </v>
    <v>       0.61679459       0.39051484       0.62708359 </v>
    <v>       0.37449832       0.62929114       0.62929114 </v>
    <v>       0.35777439       0.39522406       0.39522406 </v>
    <v>       0.76695713       0.75006720       0.75006720 </v>
    <v>       0.72281632       0.25006720       0.25006720 </v>
    <v>       0.24489815       0.75006720       0.25006720 </v>
    <v>       0.24489815       0.25006720       0.75006720 </v>
    <v>       0.00073853       0.95337707       0.95337707 </v>
    <v>       0.00073853       0.54675733       0.54675733 </v>
    <v>       0.48904276       0.04683826       0.45329615 </v>
    <v>       0.48904276       0.45329615       0.04683826 </v>
   </varray>
  </structure>
  <varray name="forces" >
   <v>      -0.00222982       0.00000000      -0.00000000 </v>
   <v>       0.00100528       0.00000000      -0.00000000 </v>
   <v>       0.00028322       0.00000000      -0.00000000 </v>
   <v>       0.00028322       0.00000000      -0.00000000 </v>
   <v>       0.00005196       0.00065607      -0.00014163 </v>
[...]
       <r>     7.3612    11.9466   143.3744 </r>
       <r>     7.5527     9.4463   145.1833 </r>
       <r>     7.7442    14.7204   148.0021 </r>
       <r>     7.9357    13.2956   150.5487 </r>
       <r>     8.1272    13.0044   153.0389 </r>
       <r>     8.3187    13.7140   155.6650 </r>
       <r>     8.5102    21.1875   159.7223 </r>
       <r>     8.7017    18.0316   163.1752 </r>
       <r>     8.8932    23.3744   167.6512 </r>
       <r>     9.0846    19.2936   171.3458 </r>
       <r>     9.2761    18.1263   174.8203 </r>
       <r>     9.4676     6.1600   176.0000 </r>
       <r>     9.6591     0.0000   176.0000 </r>
       <r>     9.8506     0.0000   176.0000 </r>
       <r>    10.0421     0.0000   176.0000 </r>
       <r>    10.2336     0.0000   176.0000 </r>
       <r>    10.4251     0.0000   176.0000 </r>
       <r>    10.6166     0.0000   176.0000 </r>
       <r>    10.8081     0.0000   176.0000 </r>
       <r>    10.9996     0.0000   176.0000 </r>
       <r>    11.1911     0.0000   176.0000 </r>
       <r>    11.3825     0.0000   176.0000 </r>
       <r>    11.5740     0.0000   176.0000 </r>
       <r>    11.7655     0.0000   176.0000 </r>
       <r>    11.9570     0.0000   176.0000 </r>
      </set>
      <set comment="spin 2">
       <r>   -45.4904     0.0000     0.0000 </r>
       <r>   -45.2990     0.0000     0.0000 </r>
       <r>   -45.1075     0.0000     0.0000 </r>
       <r>   -44.9160     0.0000     0.0000 </r>
       <r>   -44.7245     0.0000     0.0000 </r>
       <r>   -44.5330     0.0000     0.0000 </r>
       <r>   -44.3415     0.0000     0.0000 </r>
       <r>   -44.1500     0.0000     0.0000 </r>
       <r>   -43.9585     0.0000     0.0000 </r>
       <r>   -43.7670     0.0000     0.0000 </r>
       <r>   -43.5755     0.0000     0.0000 </r>
       <r>   -43.3840     0.0000     0.0000 </r>
       <r>   -43.1925     0.0000     0.0000 </r>
       <r>   -43.0011     0.0000     0.0000 </r>
       <r>   -42.8096    72.2126    13.8281 </r>
       <r>   -42.6181    53.0795    24.0000 </r>
       <r>   -42.4266     0.0000    24.0000 </r>
       <r>   -42.2351     0.0000    24.0000 </r>
       <r>   -42.0436     0.0000    24.0000 </r>
       <r>   -41.8521     0.0000    24.0000 </r>
       <r>   -41.6606     0.0000    24.0000 </r>
       <r>   -41.4691     0.0000    24.0000 </r>
       <r>   -41.2776     0.0000    24.0000 </r>
       <r>   -41.0861     0.0000    24.0000 </r>
       <r>   -40.8946     0.0000    24.0000 </r>
       <r>   -40.7032     0.0000    24.0000 </r>
       <r>   -40.5117     0.0000    24.0000 </r>
       <r>   -40.3202     0.0000    24.0000 </r>
       <r>   -40.1287     0.0000    24.0000 </r>
       <r>   -39.9372     0.0000    24.0000 </r>
       <r>   -39.7457     0.0000    24.0000 </r>
       <r>   -39.5542     0.0000    24.0000 </r>
       <r>   -39.3627     0.0000    24.0000 </r>
       <r>   -39.1712     0.0000    24.0000 </r>
       <r>   -38.9797     0.0000    24.0000 </r>
       <r>   -38.7882     0.0000    24.0000 </r>
       <r>   -38.5967     0.0000    24.0000 </r>
       <r>   -38.4053     0.0000    24.0000 </r>
       <r>   -38.2138     0.0000    24.0000 </r>
       <r>   -38.0223     0.0000    24.0000 </r>
       <r>   -37.8308     0.0000    24.0000 </r>
       <r>   -37.6393     0.0000    24.0000 </r>
       <r>   -37.4478     0.0000    24.0000 </r>
       <r>   -37.2563     0.0000    24.0000 </r>
       <r>   -37.0648     0.0000    24.0000 </r>
       <r>   -36.8733     0.0000    24.0000 </r>
       <r>   -36.6818     0.0000    24.0000 </r>
       <r>   -36.4903     0.0000    24.0000 </r>
       <r>   -36.2988     0.0000    24.0000 </r>
       <r>   -36.1074     0.0000    24.0000 </r>
       <r>   -35.9159     0.0000    24.0000 </r>
       <r>   -35.7244     0.0000    24.0000 </r>
       <r>   -35.5329     0.0000    24.0000 </r>
       <r>   -35.3414     0.0000    24.0000 </r>
       <r>   -35.1499     0.0000    24.0000 </r>
       <r>   -34.9584     0.0000    24.0000 </r>
       <r>   -34.7669     0.0000    24.0000 </r>
       <r>   -34.5754     0.0000    24.0000 </r>
       <r>   -34.3839     0.0000    24.0000 </r>
       <r>   -34.1924     0.0000    24.0000 </r>
       <r>   -34.0010     0.0000    24.0000 </r>
       <r>   -33.8095     0.0000    24.0000 </r>
       <r>   -33.6180     0.0000    24.0000 </r>
       <r>   -33.4265     0.0000    24.0000 </r>
       <r>   -33.2350     0.0000    24.0000 </r>
       <r>   -33.0435     0.0000    24.0000 </r>
       <r>   -32.8520     0.0000    24.0000 </r>
       <r>   -32.6605     0.0000    24.0000 </r>
       <r>   -32.4690     0.0000    24.0000 </r>
       <r>   -32.2775     0.0000    24.0000 </r>
       <r>   -32.0860     0.0000    24.0000 </r>
       <r>   -31.8945     0.0000    24.0000 </r>
       <r>   -31.7031     0.0000    24.0000 </r>
       <r>   -31.5116     0.0000    24.0000 </r>
       <r>   -31.3201     0.0000    24.0000 </r>
       <r>   -31.1286     0.0000    24.0000 </r>
       <r>   -30.9371     0.0000    24.0000 </r>
       <r>   -30.7456     0.0000    24.0000 </r>
       <r>   -30.5541     0.0000    24.0000 </r>
       <r>   -30.3626     0.0000    24.0000 </r>
       <r>   -30.1711     0.0000    24.0000 </r>
       <r>   -29.9796     0.0000    24.0000 </r>
       <r>   -29.7881     0.0000    24.0000 </r>
       <r>   -29.5966     0.0000    24.0000 </r>
       <r>   -29.4052     0.0000    24.0000 </r>
       <r>   -29.2137     0.0000    24.0000 </r>
       <r>   -29.0222     0.0000    24.0000 </r>
       <r>   -28.8307     0.0000    24.0000 </r>
       <r>   -28.6392     0.0000    24.0000 </r>
       <r>   -28.4477     0.0000    24.0000 </r>
       <r>   -28.2562     0.0000    24.0000 </r>
       <r>   -28.0647     0.0000    24.0000 </r>
       <r>   -27.8732     0.0000    24.0000 </r>
       <r>   -27.6817     0.0000    24.0000 </r>
       <r>   -27.4902     0.0000    24.0000 </r>
       <r>   -27.2987     0.0000    24.0000 </r>
       <r>   -27.1073     0.0000    24.0000 </r>
       <r>   -26.9158     0.0000    24.0000 </r>
       <r>   -26.7243     0.0000    24.0000 </r>
       <r>   -26.5328     0.0000    24.0000 </r>
       <r>   -26.3413     0.0000    24.0000 </r>
       <r>   -26.1498     0.0000    24.0000 </r>
       <r>   -25.9583     0.0000    24.0000 </r>
       <r>   -25.7668     0.0000    24.0000 </r>
       <r>   -25.5753     0.0000    24.0000 </r>
       <r>   -25.3838     0.0000    24.0000 </r>
       <r>   -25.1923     0.0000    24.0000 </r>
       <r>   -25.0008     0.0000    24.0000 </r>
       <r>   -24.8094     0.0000    24.0000 </r>
       <r>   -24.6179     0.0000    24.0000 </r>
       <r>   -24.4264     0.0000    24.0000 </r>
       <r>   -24.2349     0.0000    24.0000 </r>
       <r>   -24.0434     0.0000    24.0000 </r>
       <r>   -23.8519     0.0000    24.0000 </r>
       <r>   -23.6604     0.0000    24.0000 </r>
       <r>   -23.4689     0.0000    24.0000 </r>
       <r>   -23.2774     0.0000    24.0000 </r>
       <r>   -23.0859     0.0000    24.0000 </r>
       <r>   -22.8944     0.0000    24.0000 </r>
       <r>   -22.7030     0.0000    24.0000 </r>
       <r>   -22.5115     0.0000    24.0000 </r>
       <r>   -22.3200     0.0000    24.0000 </r>
       <r>   -22.1285     0.0000    24.0000 </r>
       <r>   -21.9370     0.0000    24.0000 </r>
       <r>   -21.7455     0.0000    24.0000 </r>
       <r>   -21.5540     0.0000    24.0000 </r>
       <r>   -21.3625     0.0000    24.0000 </r>
       <r>   -21.1710     0.0000    24.0000 </r>
       <r>   -20.9795     0.0000    24.0000 </r>
       <r>   -20.7880     0.0000    24.0000 </r>
       <r>   -20.5965     0.0000    24.0000 </r>
       <r>   -20.4051     0.0000    24.0000 </r>
       <r>   -20.2136     0.0000    24.0000 </r>
       <r>   -20.0221     0.0000    24.0000 </r>
       <r>   -19.8306     0.0000    24.0000 </r>
       <r>   -19.6391     0.0000    24.0000 </r>
       <r>   -19.4476     0.0000    24.0000 </r>
       <r>   -19.2561     0.0000    24.0000 </r>
       <r>   -19.0646     0.0000    24.0000 </r>
       <r>   -18.8731     0.0000    24.0000 </r>
       <r>   -18.6816     0.0000    24.0000 </r>
       <r>   -18.4901     0.0000    24.0000 </r>
       <r>   -18.2986     0.0000    24.0000 </r>
       <r>   -18.1072     0.0000    24.0000 </r>
       <r>   -17.9157     0.0000    24.0000 </r>
       <r>   -17.7242     0.0000    24.0000 </r>
       <r>   -17.5327     0.0000    24.0000 </r>
       <r>   -17.3412     0.0000    24.0000 </r>
       <r>   -17.1497     0.0000    24.0000 </r>
       <r>   -16.9582     0.0000    24.0000 </r>
       <r>   -16.7667     0.0000    24.0000 </r>
       <r>   -16.5752     0.0000    24.0000 </r>
       <r>   -16.3837     0.0000    24.0000 </r>
       <r>   -16.1922     0.0000    24.0000 </r>
       <r>   -16.0007     0.0000    24.0000 </r>
       <r>   -15.8093     0.0000    24.0000 </r>
       <r>   -15.6178     0.0000    24.0000 </r>
       <r>   -15.4263     0.0000    24.0000 </r>
       <r>   -15.2348     0.0000    24.0000 </r>
       <r>   -15.0433     0.0000    24.0000 </r>
       <r>   -14.8518     0.0000    24.0000 </r>
       <r>   -14.6603     0.0000    24.0000 </r>
       <r>   -14.4688     0.0000    24.0000 </r>
       <r>   -14.2773     0.0000    24.0000 </r>
       <r>   -14.0858     0.0000    24.0000 </r>
       <r>   -13.8943     0.0000    24.0000 </r>
       <r>   -13.7028     0.0000    24.0000 </r>
       <r>   -13.5114     7.7068    25.4758 </r>
       <r>   -13.3199    13.1819    28.0000 </r>
       <r>   -13.1284     0.0000    28.0000 </r>
       <r>   -12.9369     0.0000    28.0000 </r>
       <r>   -12.7454     0.0000    28.0000 </r>
       <r>   -12.5539    20.4623    31.9184 </r>
       <r>   -12.3624     0.4264    32.0000 </r>
       <r>   -12.1709     0.0000    32.0000 </r>
       <r>   -11.9794     0.0000    32.0000 </r>
       <r>   -11.7879     0.0000    32.0000 </r>
       <r>   -11.5964     0.0000    32.0000 </r>
       <r>   -11.4049     0.0000    32.0000 </r>
       <r>   -11.2135     0.0000    32.0000 </r>
       <r>   -11.0220     0.0000    32.0000 </r>
       <r>   -10.8305     0.0200    32.0038 </r>
       <r>   -10.6390    18.7587    35.5960 </r>
       <r>   -10.4475    33.2897    41.9729 </r>
       <r>   -10.2560    10.5585    44.0000 </r>
       <r>   -10.0645     0.0000    44.0000 </r>
       <r>    -9.8730     0.0000    44.0000 </r>
       <r>    -9.6815     0.0000    44.0000 </r>
       <r>    -9.4900     0.0000    44.0000 </r>
       <r>    -9.2985     0.0000    44.0000 </r>
       <r>    -9.1071     0.0000    44.0000 </r>
       <r>    -8.9156    10.4323    45.9977 </r>
       <r>    -8.7241    10.4433    48.0000 </r>
       <r>    -8.5326     0.0000    48.0000 </r>
       <r>    -8.3411     0.0000    48.0000 </r>
       <r>    -8.1496     0.0000    48.0000 </r>
       <r>    -7.9581     0.0000    48.0000 </r>
       <r>    -7.7666     0.0000    48.0000 </r>
       <r>    -7.5751     0.0000    48.0000 </r>
       <r>    -7.3836     0.0000    48.0000 </r>
       <r>    -7.1921     0.0000    48.0000 </r>
       <r>    -7.0006     0.0000    48.0000 </r>
       <r>    -6.8092     0.0000    48.0000 </r>
       <r>    -6.6177     0.9144    48.1751 </r>
       <r>    -6.4262     4.3077    49.0000 </r>
       <r>    -6.2347     6.6571    50.2748 </r>
       <r>    -6.0432     9.0094    52.0000 </r>
       <r>    -5.8517     0.0000    52.0000 </r>
       <r>    -5.6602     0.0000    52.0000 </r>
       <r>    -5.4687     0.0000    52.0000 </r>
       <r>    -5.2772     0.0000    52.0000 </r>
       <r>    -5.0857     0.0000    52.0000 </r>
       <r>    -4.8942     0.0000    52.0000 </r>
       <r>    -4.7027     0.0000    52.0000 </r>
       <r>    -4.5113     0.0000    52.0000 </r>
       <r>    -4.3198     0.0000    52.0000 </r>
       <r>    -4.1283     0.0000    52.0000 </r>
       <r>    -3.9368     0.0000    52.0000 </r>
       <r>    -3.7453     0.1389    52.0266 </r>
       <r>    -3.5538    15.5264    54.9998 </r>
       <r>    -3.3623     1.4698    55.2815 </r>
       <r>    -3.1708    11.6359    57.5096 </r>
       <r>    -2.9793    14.7597    60.3360 </r>
       <r>    -2.7878    19.1229    63.9981 </r>
       <r>    -2.5963     0.0000    64.0000 </r>
       <r>    -2.4048     0.0000    64.0000 </r>
       <r>    -2.2134     0.0000    64.0000 </r>
       <r>    -2.0219     0.0000    64.0000 </r>
       <r>    -1.8304     0.0000    64.0000 </r>
       <r>    -1.6389     8.7838    65.6820 </r>
       <r>    -1.4474    22.5023    69.9910 </r>
       <r>    -1.2559    18.1421    73.4748 </r>
       <r>    -1.0644    13.1873    76.0000 </r>
       <r>    -0.8729     7.0225    77.3448 </r>
       <r>    -0.6814    13.4197    79.9145 </r>
       <r>    -0.4899    24.2320    84.5547 </r>
       <r>    -0.2984    27.5615    89.8481 </r>
       <r>    -0.1069    22.2747    94.1140 </r>
       <r>     0.0845     9.8451    96.0000 </r>
       <r>     0.2760     2.5080    96.4803 </r>
       <r>     0.4675    29.6768   102.1631 </r>
       <r>     0.6590    25.9977   107.1503 </r>
       <r>     0.8505    28.0231   112.5247 </r>
       <r>     1.0420    31.3973   118.5376 </r>
       <r>     1.2335     7.6368   120.0000 </r>
       <r>     1.4250     0.0000   120.0000 </r>
       <r>     1.6165     0.0000   120.0000 </r>
       <r>     1.8080     0.0000   120.0000 </r>
       <r>     1.9995     0.0000   120.0000 </r>
       <r>     2.1909     0.0000   120.0000 </r>
       <r>     2.3824     0.0000   120.0000 </r>
       <r>     2.5739     0.0000   120.0000 </r>
       <r>     2.7654     0.0000   120.0000 </r>
       <r>     2.9569     0.0000   120.0000 </r>
       <r>     3.1484     0.0000   120.0000 </r>
       <r>     3.3399     0.0000   120.0000 </r>
       <r>     3.5314     0.0000   120.0000 </r>
       <r>     3.7229     0.0000   120.0000 </r>
       <r>     3.9144     5.2024   120.9962 </r>
       <r>     4.1059     0.0000   121.0000 </r>
       <r>     4.2974     0.0000   121.0000 </r>
       <r>     4.4888     0.0000   121.0000 </r>
       <r>     4.6803     6.9169   122.3245 </r>
       <r>     4.8718     8.7496   124.0000 </r>
       <r>     5.0633     0.0000   124.0000 </r>
       <r>     5.2548     0.0018   124.0003 </r>
       <r>     5.4463    11.6012   126.2219 </r>
       <r>     5.6378    13.9692   128.8969 </r>
       <r>     5.8293     5.7510   130.0000 </r>
       <r>     6.0208     6.0766   131.1636 </r>
       <r>     6.2123    13.4271   133.7348 </r>
       <r>     6.4038    11.8289   135.9999 </r>
       <r>     6.5953     5.2045   136.9966 </r>
       <r>     6.7867     0.1387   137.0266 </r>
       <r>     6.9782    11.1030   139.1527 </r>
       <r>     7.1697    10.0970   141.0862 </r>
       <r>     7.3612    11.9466   143.3744 </r>
       <r>     7.5527     9.4463   145.1833 </r>
       <r>     7.7442    14.7204   148.0021 </r>
       <r>     7.9357    13.2956   150.5487 </r>
       <r>     8.1272    13.0044   153.0389 </r>
       <r>     8.3187    13.7140   155.6650 </r>
       <r>     8.5102    21.1875   159.7223 </r>
       <r>     8.7017    18.0316   163.1752 </r>
       <r>     8.8932    23.3733   167.6510 </r>
       <r>     9.0846    19.2774   171.3425 </r>
       <r>     9.2761    17.7565   174.7462 </r>
       <r>     9.4676     6.5468   176.0000 </r>
       <r>     9.6591     0.0000   176.0000 </r>
       <r>     9.8506     0.0000   176.0000 </r>
       <r>    10.0421     0.0000   176.0000 </r>
       <r>    10.2336     0.0000   176.0000 </r>
       <r>    10.4251     0.0000   176.0000 </r>
       <r>    10.6166     0.0000   176.0000 </r>
       <r>    10.8081     0.0000   176.0000 </r>
       <r>    10.9996     0.0000   176.0000 </r>
       <r>    11.1911     0.0000   176.0000 </r>
       <r>    11.3825     0.0000   176.0000 </r>
       <r>    11.5740     0.0000   176.0000 </r>
       <r>    11.7655     0.0000   176.0000 </r>
       <r>    11.9570     0.0000   176.0000 </r>
      </set>
     </set>
    </array>
   </total>
  </dos>
 </calculation>
 <structure name="finalpos" >
  <crystal>
   <varray name="basis" >
    <v>       9.86030472       0.00000000       0.00000000 </v>
    <v>       0.00000000       9.86030472       0.00000000 </v>
    <v>       0.00000000       0.00000000       9.86030472 </v>
   </varray>
   <i name="volume">    958.67413326 </i>
   <varray name="rec_basis" >
    <v>       0.10141674       0.00000000       0.00000000 </v>
    <v>       0.00000000       0.10141674       0.00000000 </v>
    <v>       0.00000000       0.00000000       0.10141674 </v>
   </varray>
  </crystal>
  <varray name="positions" >
   <v>       0.95108428       0.25006720       0.25006720 </v>
   <v>       0.00065476       0.75006720       0.75006720 </v>
   <v>       0.01647448       0.25006720       0.75006720 </v>
   <v>       0.01647448       0.75006720       0.25006720 </v>
   <v>       0.29576324       0.31038498       0.97466452 </v>
   <v>       0.19397847       0.81034520       0.02546924 </v>
   <v>       0.68224460       0.28617101       0.02098632 </v>
   <v>       0.80750991       0.78623004       0.97916626 </v>
   <v>       0.29576324       0.97466452       0.31038498 </v>
   <v>       0.19397847       0.02546924       0.81034520 </v>
   <v>       0.80750991       0.97916626       0.78623004 </v>
   <v>       0.68224460       0.02098632       0.28617101 </v>
   <v>       0.19397847       0.68978920       0.47466517 </v>
   <v>       0.29576324       0.18974942       0.52546989 </v>
   <v>       0.80750991       0.71390436       0.52096815 </v>
   <v>       0.68224460       0.21396339       0.47914809 </v>
   <v>       0.19397847       0.47466517       0.68978920 </v>
   <v>       0.29576324       0.52546989       0.18974942 </v>
   <v>       0.68224460       0.47914809       0.21396339 </v>
   <v>       0.80750991       0.52096815       0.71390436 </v>
   <v>       0.47333650       0.25006720       0.75006720 </v>
   <v>       0.47333650       0.75006720       0.25006720 </v>
   <v>       0.48909897       0.25006720       0.25006720 </v>
   <v>       0.53866544       0.75006720       0.75006720 </v>
   <v>       0.49127212       0.50800929       0.50800929 </v>
   <v>       0.49127212       0.99212512       0.99212512 </v>
   <v>       0.99829197       0.49210128       0.00803312 </v>
   <v>       0.99829197       0.00803312       0.49210128 </v>
   <v>       0.13183938       0.89524770       0.60488671 </v>
   <v>       0.11517377       0.12926943       0.37086497 </v>
   <v>       0.87286322       0.89049048       0.37300615 </v>
   <v>       0.87286322       0.12712825       0.60964393 </v>
   <v>       0.87286322       0.60964393       0.12712825 </v>
   <v>       0.87286322       0.37300615       0.89049048 </v>
   <v>       0.13183938       0.60488671       0.89524770 </v>
   <v>       0.11517377       0.37086497       0.12926943 </v>
   <v>       0.61679678       0.10961772       0.87304870 </v>
   <v>       0.61679678       0.87304870       0.10961772 </v>
   <v>       0.35776791       0.10491305       0.10491305 </v>
   <v>       0.37450078       0.87084568       0.87084568 </v>
   <v>       0.61679678       0.62708570       0.39051668 </v>
   <v>       0.61679678       0.39051668       0.62708570 </v>
   <v>       0.37450078       0.62928873       0.62928873 </v>
   <v>       0.35776791       0.39522136       0.39522136 </v>
   <v>       0.76695813       0.75006720       0.75006720 </v>
   <v>       0.72281568       0.25006720       0.25006720 </v>
   <v>       0.24489832       0.75006720       0.25006720 </v>
   <v>       0.24489832       0.25006720       0.75006720 </v>
   <v>       0.00074006       0.95338026       0.95338026 </v>
   <v>       0.00074006       0.54675414       0.54675414 </v>
   <v>       0.48904154       0.04683525       0.45329916 </v>
   <v>       0.48904154       0.45329916       0.04683525 </v>
  </varray>
 </structure>
</modeling>
