unknown system                          
           1
     9.860305    0.000000    0.000000
     0.000000    9.860305    0.000000
     0.000000    0.000000    9.860305
   Li   P    S    Cl
    24     4    20     4
Direct configuration=     1
   0.95110554  0.25006720  0.25006720
   0.00064475  0.75006720  0.75006720
   0.01647199  0.25006720  0.75006720
   0.01647199  0.75006720  0.25006720
   0.29576281  0.31038190  0.97466512
   0.19397869  0.81034052  0.02546851
   0.68225196  0.28616337  0.02098920
   0.80750152  0.78622289  0.97916380
   0.29576281  0.97466512  0.31038190
   0.19397869  0.02546851  0.81034052
   0.80750152  0.97916380  0.78622289
   0.68225196  0.02098920  0.28616337
   0.19397869  0.68979388  0.47466590
   0.29576281  0.18975251  0.52546929
   0.80750152  0.71391151  0.52097060
   0.68225196  0.21397104  0.47914521
   0.19397869  0.47466590  0.68979388
   0.29576281  0.52546929  0.18975251
   0.68225196  0.47914521  0.21397104
   0.80750152  0.52097060  0.71391151
   0.47333767  0.25006720  0.75006720
   0.47333767  0.75006720  0.25006720
   0.48910802  0.25006720  0.25006720
   0.53864231  0.75006720  0.75006720
   0.49127461  0.50801982  0.50801982
   0.49127461  0.99211458  0.99211458
   0.99829101  0.49209340  0.00804101
   0.99829101  0.00804101  0.49209340
   0.13180934  0.89526500  0.60486941
   0.11516194  0.12925574  0.37087866
   0.87288814  0.89049928  0.37303076
   0.87288814  0.12710364  0.60963513
   0.87288814  0.60963513  0.12710364
   0.87288814  0.37303076  0.89049928
   0.13180934  0.60486941  0.89526500
   0.11516194  0.37087866  0.12925574
   0.61677307  0.10961075  0.87307164
   0.61677307  0.87307164  0.10961075
   0.35779851  0.10489513  0.10489513
   0.37451488  0.87086222  0.87086222
   0.61677307  0.62706276  0.39052366
   0.61677307  0.39052366  0.62706276
   0.37451488  0.62927218  0.62927218
   0.35779851  0.39523927  0.39523927
   0.76696513  0.75006720  0.75006720
   0.72280795  0.25006720  0.25006720
   0.24489798  0.75006720  0.25006720
   0.24489798  0.25006720  0.75006720
   0.00073568  0.95336688  0.95336688
   0.00073568  0.54676752  0.54676752
   0.48904505  0.04684799  0.45328642
   0.48904505  0.45328642  0.04684799
Direct configuration=     2
   0.95109959  0.25006720  0.25006720
   0.00064765  0.75006720  0.75006720
   0.01647272  0.25006720  0.75006720
   0.01647272  0.75006720  0.25006720
   0.29576294  0.31038252  0.97466502
   0.19397859  0.81034162  0.02546872
   0.68225019  0.28616535  0.02098842
   0.80750354  0.78622474  0.97916451
   0.29576294  0.97466502  0.31038252
   0.19397859  0.02546872  0.81034162
   0.80750354  0.97916451  0.78622474
   0.68225019  0.02098842  0.28616535
   0.19397859  0.68979279  0.47466568
   0.29576294  0.18975188  0.52546939
   0.80750354  0.71390967  0.52096990
   0.68225019  0.21396905  0.47914599
   0.19397859  0.47466568  0.68979279
   0.29576294  0.52546939  0.18975188
   0.68225019  0.47914599  0.21396905
   0.80750354  0.52096990  0.71390967
   0.47333729  0.25006720  0.75006720
   0.47333729  0.75006720  0.25006720
   0.48910535  0.25006720  0.25006720
   0.53864880  0.75006720  0.75006720
   0.49127385  0.50801462  0.50801462
   0.49127385  0.99211979  0.99211979
   0.99829190  0.49209664  0.00803777
   0.99829190  0.00803777  0.49209664
   0.13181897  0.89525887  0.60487554
   0.11516719  0.12926162  0.37087278
   0.87287934  0.89049515  0.37302215
   0.87287934  0.12711226  0.60963925
   0.87287934  0.60963925  0.12711226
   0.87287934  0.37302215  0.89049515
   0.13181897  0.60487554  0.89525887
   0.11516719  0.37087278  0.12926162
   0.61678149  0.10961420  0.87306350
   0.61678149  0.87306350  0.10961420
   0.35778908  0.10490108  0.10490108
   0.37450840  0.87085481  0.87085481
   0.61678149  0.62707090  0.39052021
   0.61678149  0.39052021  0.62707090
   0.37450840  0.62927960  0.62927960
   0.35778908  0.39523333  0.39523333
   0.76696200  0.75006720  0.75006720
   0.72281122  0.25006720  0.25006720
   0.24489804  0.75006720  0.25006720
   0.24489804  0.25006720  0.75006720
   0.00073679  0.95337087  0.95337087
   0.00073679  0.54676354  0.54676354
   0.48904416  0.04684418  0.45329022
   0.48904416  0.45329022  0.04684418
Direct configuration=     3
   0.95109276  0.25006720  0.25006720
   0.00065099  0.75006720  0.75006720
   0.01647356  0.25006720  0.75006720
   0.01647356  0.75006720  0.25006720
   0.29576310  0.31038324  0.97466491
   0.19397848  0.81034288  0.02546897
   0.68224815  0.28616763  0.02098752
   0.80750586  0.78622686  0.97916532
   0.29576310  0.97466491  0.31038324
   0.19397848  0.02546897  0.81034288
   0.80750586  0.97916532  0.78622686
   0.68224815  0.02098752  0.28616763
   0.19397848  0.68979153  0.47466544
   0.29576310  0.18975117  0.52546950
   0.80750586  0.71390754  0.52096909
   0.68224815  0.21396678  0.47914689
   0.19397848  0.47466544  0.68979153
   0.29576310  0.52546950  0.18975117
   0.68224815  0.47914689  0.21396678
   0.80750586  0.52096909  0.71390754
   0.47333685  0.25006720  0.75006720
   0.47333685  0.75006720  0.25006720
   0.48910229  0.25006720  0.25006720
   0.53865626  0.75006720  0.75006720
   0.49127298  0.50800864  0.50800864
   0.49127298  0.99212577  0.99212577
   0.99829291  0.49210036  0.00803404
   0.99829291  0.00803404  0.49210036
   0.13183003  0.89525184  0.60488257
   0.11517321  0.12926837  0.37086603
   0.87286924  0.89049043  0.37301226
   0.87286924  0.12712215  0.60964398
   0.87286924  0.60964398  0.12712215
   0.87286924  0.37301226  0.89049043
   0.13183003  0.60488257  0.89525184
   0.11517321  0.37086603  0.12926837
   0.61679114  0.10961815  0.87305416
   0.61679114  0.87305416  0.10961815
   0.35777826  0.10490791  0.10490791
   0.37450097  0.87084630  0.87084630
   0.61679114  0.62708025  0.39051626
   0.61679114  0.39051626  0.62708025
   0.37450097  0.62928810  0.62928810
   0.35777826  0.39522650  0.39522650
   0.76695841  0.75006720  0.75006720
   0.72281497  0.25006720  0.25006720
   0.24489812  0.75006720  0.25006720
   0.24489812  0.25006720  0.75006720
   0.00073807  0.95337544  0.95337544
   0.00073807  0.54675897  0.54675897
   0.48904313  0.04683982  0.45329459
   0.48904313  0.45329459  0.04683982
Direct configuration=     4
   0.95108960  0.25006720  0.25006720
   0.00065253  0.75006720  0.75006720
   0.01647395  0.25006720  0.75006720
   0.01647395  0.75006720  0.25006720
   0.29576317  0.31038357  0.97466486
   0.19397843  0.81034346  0.02546908
   0.68224721  0.28616868  0.02098710
   0.80750694  0.78622785  0.97916569
   0.29576317  0.97466486  0.31038357
   0.19397843  0.02546908  0.81034346
   0.80750694  0.97916569  0.78622785
   0.68224721  0.02098710  0.28616868
   0.19397843  0.68979094  0.47466532
   0.29576317  0.18975083  0.52546955
   0.80750694  0.71390656  0.52096871
   0.68224721  0.21396573  0.47914730
   0.19397843  0.47466532  0.68979094
   0.29576317  0.52546955  0.18975083
   0.68224721  0.47914730  0.21396573
   0.80750694  0.52096871  0.71390656
   0.47333665  0.25006720  0.75006720
   0.47333665  0.75006720  0.25006720
   0.48910087  0.25006720  0.25006720
   0.53865970  0.75006720  0.75006720
   0.49127258  0.50800587  0.50800587
   0.49127258  0.99212853  0.99212853
   0.99829339  0.49210209  0.00803232
   0.99829339  0.00803232  0.49210209
   0.13183515  0.89524858  0.60488582
   0.11517599  0.12927150  0.37086291
   0.87286457  0.89048824  0.37300768
   0.87286457  0.12712673  0.60964617
   0.87286457  0.60964617  0.12712673
   0.87286457  0.37300768  0.89048824
   0.13183515  0.60488582  0.89524858
   0.11517599  0.37086291  0.12927150
   0.61679561  0.10961998  0.87304983
   0.61679561  0.87304983  0.10961998
   0.35777324  0.10491107  0.10491107
   0.37449753  0.87084237  0.87084237
   0.61679561  0.62708457  0.39051443
   0.61679561  0.39051443  0.62708457
   0.37449753  0.62929204  0.62929204
   0.35777324  0.39522334  0.39522334
   0.76695675  0.75006720  0.75006720
   0.72281671  0.25006720  0.25006720
   0.24489815  0.75006720  0.25006720
   0.24489815  0.25006720  0.75006720
   0.00073867  0.95337756  0.95337756
   0.00073867  0.54675685  0.54675685
   0.48904265  0.04683780  0.45329661
   0.48904265  0.45329661  0.04683780
Direct configuration=     5
   0.95109032  0.25006720  0.25006720
   0.00065218  0.75006720  0.75006720
   0.01647386  0.25006720  0.75006720
   0.01647386  0.75006720  0.25006720
   0.29576315  0.31038350  0.97466487
   0.19397844  0.81034333  0.02546906
   0.68224743  0.28616844  0.02098720
   0.80750669  0.78622762  0.97916561
   0.29576315  0.97466487  0.31038350
   0.19397844  0.02546906  0.81034333
   0.80750669  0.97916561  0.78622762
   0.68224743  0.02098720  0.28616844
   0.19397844  0.68979108  0.47466535
   0.29576315  0.18975091  0.52546954
   0.80750669  0.71390678  0.52096880
   0.68224743  0.21396597  0.47914721
   0.19397844  0.47466535  0.68979108
   0.29576315  0.52546954  0.18975091
   0.68224743  0.47914721  0.21396597
   0.80750669  0.52096880  0.71390678
   0.47333669  0.25006720  0.75006720
   0.47333669  0.75006720  0.25006720
   0.48910119  0.25006720  0.25006720
   0.53865892  0.75006720  0.75006720
   0.49127267  0.50800650  0.50800650
   0.49127267  0.99212790  0.99212790
   0.99829328  0.49210169  0.00803271
   0.99829328  0.00803271  0.49210169
   0.13183398  0.89524932  0.60488508
   0.11517536  0.12927079  0.37086362
   0.87286563  0.89048874  0.37300872
   0.87286563  0.12712568  0.60964567
   0.87286563  0.60964567  0.12712568
   0.87286563  0.37300872  0.89048874
   0.13183398  0.60488508  0.89524932
   0.11517536  0.37086362  0.12927079
   0.61679459  0.10961956  0.87305082
   0.61679459  0.87305082  0.10961956
   0.35777439  0.10491035  0.10491035
   0.37449832  0.87084326  0.87084326
   0.61679459  0.62708359  0.39051484
   0.61679459  0.39051484  0.62708359
   0.37449832  0.62929114  0.62929114
   0.35777439  0.39522406  0.39522406
   0.76695713  0.75006720  0.75006720
   0.72281632  0.25006720  0.25006720
   0.24489815  0.75006720  0.25006720
   0.24489815  0.25006720  0.75006720
   0.00073853  0.95337707  0.95337707
   0.00073853  0.54675733  0.54675733
   0.48904276  0.04683826  0.45329615
   0.48904276  0.45329615  0.04683826
Direct configuration=     6
   0.95108980  0.25006720  0.25006720
   0.00065243  0.75006720  0.75006720
   0.01647392  0.25006720  0.75006720
   0.01647392  0.75006720  0.25006720
   0.29576316  0.31038355  0.97466486
   0.19397843  0.81034342  0.02546907
   0.68224727  0.28616861  0.02098713
   0.80750687  0.78622778  0.97916567
   0.29576316  0.97466486  0.31038355
   0.19397843  0.02546907  0.81034342
   0.80750687  0.97916567  0.78622778
   0.68224727  0.02098713  0.28616861
   0.19397843  0.68979098  0.47466533
   0.29576316  0.18975085  0.52546955
   0.80750687  0.71390662  0.52096874
   0.68224727  0.21396580  0.47914727
   0.19397843  0.47466533  0.68979098
   0.29576316  0.52546955  0.18975085
   0.68224727  0.47914727  0.21396580
   0.80750687  0.52096874  0.71390662
   0.47333666  0.25006720  0.75006720
   0.47333666  0.75006720  0.25006720
   0.48910096  0.25006720  0.25006720
   0.53865948  0.75006720  0.75006720
   0.49127261  0.50800605  0.50800605
   0.49127261  0.99212835  0.99212835
   0.99829336  0.49210198  0.00803243
   0.99829336  0.00803243  0.49210198
   0.13183482  0.89524879  0.60488561
   0.11517581  0.12927130  0.37086311
   0.87286487  0.89048838  0.37300798
   0.87286487  0.12712643  0.60964603
   0.87286487  0.60964603  0.12712643
   0.87286487  0.37300798  0.89048838
   0.13183482  0.60488561  0.89524879
   0.11517581  0.37086311  0.12927130
   0.61679532  0.10961986  0.87305011
   0.61679532  0.87305011  0.10961986
   0.35777357  0.10491086  0.10491086
   0.37449776  0.87084262  0.87084262
   0.61679532  0.62708429  0.39051454
   0.61679532  0.39051454  0.62708429
   0.37449776  0.62929179  0.62929179
   0.35777357  0.39522354  0.39522354
   0.76695685  0.75006720  0.75006720
   0.72281660  0.25006720  0.25006720
   0.24489815  0.75006720  0.25006720
   0.24489815  0.25006720  0.75006720
   0.00073863  0.95337742  0.95337742
   0.00073863  0.54675699  0.54675699
   0.48904268  0.04683793  0.45329648
   0.48904268  0.45329648  0.04683793
Direct configuration=     7
   0.95108428  0.25006720  0.25006720
   0.00065476  0.75006720  0.75006720
   0.01647448  0.25006720  0.75006720
   0.01647448  0.75006720  0.25006720
   0.29576324  0.31038498  0.97466452
   0.19397847  0.81034520  0.02546924
   0.68224460  0.28617101  0.02098632
   0.80750991  0.78623004  0.97916626
   0.29576324  0.97466452  0.31038498
   0.19397847  0.02546924  0.81034520
   0.80750991  0.97916626  0.78623004
   0.68224460  0.02098632  0.28617101
   0.19397847  0.68978920  0.47466517
   0.29576324  0.18974942  0.52546989
   0.80750991  0.71390436  0.52096815
   0.68224460  0.21396339  0.47914809
   0.19397847  0.47466517  0.68978920
   0.29576324  0.52546989  0.18974942
   0.68224460  0.47914809  0.21396339
   0.80750991  0.52096815  0.71390436
   0.47333650  0.25006720  0.75006720
   0.47333650  0.75006720  0.25006720
   0.48909897  0.25006720  0.25006720
   0.53866544  0.75006720  0.75006720
   0.49127212  0.50800929  0.50800929
   0.49127212  0.99212512  0.99212512
   0.99829197  0.49210128  0.00803312
   0.99829197  0.00803312  0.49210128
   0.13183938  0.89524770  0.60488671
   0.11517377  0.12926943  0.37086497
   0.87286322  0.89049048  0.37300615
   0.87286322  0.12712825  0.60964393
   0.87286322  0.60964393  0.12712825
   0.87286322  0.37300615  0.89049048
   0.13183938  0.60488671  0.89524770
   0.11517377  0.37086497  0.12926943
   0.61679678  0.10961772  0.87304870
   0.61679678  0.87304870  0.10961772
   0.35776791  0.10491305  0.10491305
   0.37450078  0.87084568  0.87084568
   0.61679678  0.62708570  0.39051668
   0.61679678  0.39051668  0.62708570
   0.37450078  0.62928873  0.62928873
   0.35776791  0.39522136  0.39522136
   0.76695813  0.75006720  0.75006720
   0.72281568  0.25006720  0.25006720
   0.24489832  0.75006720  0.25006720
   0.24489832  0.25006720  0.75006720
   0.00074006  0.95338026  0.95338026
   0.00074006  0.54675414  0.54675414
   0.48904154  0.04683525  0.45329916
   0.48904154  0.45329916  0.04683525
