  52  52   0  16
  0.1759709E+02  0.9708409E-09  0.9708409E-09  0.9708409E-09  0.2000000E-15
  1.000000000000000E-004
  CAR 
 unknown system                          
     12.40459966    -45.34373220  301      1.86552910      1.00000000
    -45.344  0.0000E+00  0.0000E+00  0.0000E+00  0.0000E+00
    -45.151  0.0000E+00  0.0000E+00  0.0000E+00  0.0000E+00
    -44.959  0.0000E+00  0.0000E+00  0.0000E+00  0.0000E+00
    -44.766  0.0000E+00  0.0000E+00  0.0000E+00  0.0000E+00
    -44.574  0.0000E+00  0.0000E+00  0.0000E+00  0.0000E+00
    -44.381  0.0000E+00  0.0000E+00  0.0000E+00  0.0000E+00
    -44.189  0.0000E+00  0.0000E+00  0.0000E+00  0.0000E+00
    -43.996  0.0000E+00  0.0000E+00  0.0000E+00  0.0000E+00
    -43.804  0.0000E+00  0.0000E+00  0.0000E+00  0.0000E+00
    -43.611  0.0000E+00  0.0000E+00  0.0000E+00  0.0000E+00
    -43.419  0.0000E+00  0.0000E+00  0.0000E+00  0.0000E+00
    -43.226  0.0000E+00  0.0000E+00  0.0000E+00  0.0000E+00
    -43.034  0.0000E+00  0.0000E+00  0.0000E+00  0.0000E+00
    -42.841  0.2004E-10  0.2004E-10  0.3858E-11  0.3858E-11
    -42.649  0.1353E-01  0.1353E-01  0.2605E-02  0.2605E-02
    -42.456  0.5550E-01  0.5550E-01  0.1329E-01  0.1329E-01
    -42.264  0.5561E-01  0.5561E-01  0.2400E-01  0.2400E-01
    -42.071  0.0000E+00  0.0000E+00  0.2400E-01  0.2400E-01
    -41.879  0.0000E+00  0.0000E+00  0.2400E-01  0.2400E-01
    -41.686  0.0000E+00  0.0000E+00  0.2400E-01  0.2400E-01
    -41.494  0.0000E+00  0.0000E+00  0.2400E-01  0.2400E-01
    -41.301  0.0000E+00  0.0000E+00  0.2400E-01  0.2400E-01
    -41.109  0.0000E+00  0.0000E+00  0.2400E-01  0.2400E-01
    -40.916  0.0000E+00  0.0000E+00  0.2400E-01  0.2400E-01
    -40.724  0.0000E+00  0.0000E+00  0.2400E-01  0.2400E-01
    -40.531  0.0000E+00  0.0000E+00  0.2400E-01  0.2400E-01
    -40.339  0.0000E+00  0.0000E+00  0.2400E-01  0.2400E-01
    -40.146  0.0000E+00  0.0000E+00  0.2400E-01  0.2400E-01
    -39.954  0.0000E+00  0.0000E+00  0.2400E-01  0.2400E-01
    -39.761  0.0000E+00  0.0000E+00  0.2400E-01  0.2400E-01
    -39.569  0.0000E+00  0.0000E+00  0.2400E-01  0.2400E-01
    -39.376  0.0000E+00  0.0000E+00  0.2400E-01  0.2400E-01
    -39.184  0.0000E+00  0.0000E+00  0.2400E-01  0.2400E-01
    -38.991  0.0000E+00  0.0000E+00  0.2400E-01  0.2400E-01
    -38.799  0.0000E+00  0.0000E+00  0.2400E-01  0.2400E-01
    -38.606  0.0000E+00  0.0000E+00  0.2400E-01  0.2400E-01
    -38.414  0.0000E+00  0.0000E+00  0.2400E-01  0.2400E-01
    -38.221  0.0000E+00  0.0000E+00  0.2400E-01  0.2400E-01
    -38.029  0.0000E+00  0.0000E+00  0.2400E-01  0.2400E-01
    -37.836  0.0000E+00  0.0000E+00  0.2400E-01  0.2400E-01
    -37.644  0.0000E+00  0.0000E+00  0.2400E-01  0.2400E-01
    -37.451  0.0000E+00  0.0000E+00  0.2400E-01  0.2400E-01
    -37.259  0.0000E+00  0.0000E+00  0.2400E-01  0.2400E-01
    -37.066  0.0000E+00  0.0000E+00  0.2400E-01  0.2400E-01
    -36.874  0.0000E+00  0.0000E+00  0.2400E-01  0.2400E-01
    -36.681  0.0000E+00  0.0000E+00  0.2400E-01  0.2400E-01
    -36.489  0.0000E+00  0.0000E+00  0.2400E-01  0.2400E-01
    -36.296  0.0000E+00  0.0000E+00  0.2400E-01  0.2400E-01
    -36.104  0.0000E+00  0.0000E+00  0.2400E-01  0.2400E-01
    -35.912  0.0000E+00  0.0000E+00  0.2400E-01  0.2400E-01
    -35.719  0.0000E+00  0.0000E+00  0.2400E-01  0.2400E-01
    -35.527  0.0000E+00  0.0000E+00  0.2400E-01  0.2400E-01
    -35.334  0.0000E+00  0.0000E+00  0.2400E-01  0.2400E-01
    -35.142  0.0000E+00  0.0000E+00  0.2400E-01  0.2400E-01
    -34.949  0.0000E+00  0.0000E+00  0.2400E-01  0.2400E-01
    -34.757  0.0000E+00  0.0000E+00  0.2400E-01  0.2400E-01
    -34.564  0.0000E+00  0.0000E+00  0.2400E-01  0.2400E-01
    -34.372  0.0000E+00  0.0000E+00  0.2400E-01  0.2400E-01
    -34.179  0.0000E+00  0.0000E+00  0.2400E-01  0.2400E-01
    -33.987  0.0000E+00  0.0000E+00  0.2400E-01  0.2400E-01
    -33.794  0.0000E+00  0.0000E+00  0.2400E-01  0.2400E-01
    -33.602  0.0000E+00  0.0000E+00  0.2400E-01  0.2400E-01
    -33.409  0.0000E+00  0.0000E+00  0.2400E-01  0.2400E-01
    -33.217  0.0000E+00  0.0000E+00  0.2400E-01  0.2400E-01
    -33.024  0.0000E+00  0.0000E+00  0.2400E-01  0.2400E-01
    -32.832  0.0000E+00  0.0000E+00  0.2400E-01  0.2400E-01
    -32.639  0.0000E+00  0.0000E+00  0.2400E-01  0.2400E-01
    -32.447  0.0000E+00  0.0000E+00  0.2400E-01  0.2400E-01
    -32.254  0.0000E+00  0.0000E+00  0.2400E-01  0.2400E-01
    -32.062  0.0000E+00  0.0000E+00  0.2400E-01  0.2400E-01
    -31.869  0.0000E+00  0.0000E+00  0.2400E-01  0.2400E-01
    -31.677  0.0000E+00  0.0000E+00  0.2400E-01  0.2400E-01
    -31.484  0.0000E+00  0.0000E+00  0.2400E-01  0.2400E-01
    -31.292  0.0000E+00  0.0000E+00  0.2400E-01  0.2400E-01
    -31.099  0.0000E+00  0.0000E+00  0.2400E-01  0.2400E-01
    -30.907  0.0000E+00  0.0000E+00  0.2400E-01  0.2400E-01
    -30.714  0.0000E+00  0.0000E+00  0.2400E-01  0.2400E-01
    -30.522  0.0000E+00  0.0000E+00  0.2400E-01  0.2400E-01
    -30.329  0.0000E+00  0.0000E+00  0.2400E-01  0.2400E-01
    -30.137  0.0000E+00  0.0000E+00  0.2400E-01  0.2400E-01
    -29.944  0.0000E+00  0.0000E+00  0.2400E-01  0.2400E-01
    -29.752  0.0000E+00  0.0000E+00  0.2400E-01  0.2400E-01
    -29.559  0.0000E+00  0.0000E+00  0.2400E-01  0.2400E-01
    -29.367  0.0000E+00  0.0000E+00  0.2400E-01  0.2400E-01
    -29.174  0.0000E+00  0.0000E+00  0.2400E-01  0.2400E-01
    -28.982  0.0000E+00  0.0000E+00  0.2400E-01  0.2400E-01
    -28.789  0.0000E+00  0.0000E+00  0.2400E-01  0.2400E-01
    -28.597  0.0000E+00  0.0000E+00  0.2400E-01  0.2400E-01
    -28.404  0.0000E+00  0.0000E+00  0.2400E-01  0.2400E-01
    -28.212  0.0000E+00  0.0000E+00  0.2400E-01  0.2400E-01
    -28.019  0.0000E+00  0.0000E+00  0.2400E-01  0.2400E-01
    -27.827  0.0000E+00  0.0000E+00  0.2400E-01  0.2400E-01
    -27.634  0.0000E+00  0.0000E+00  0.2400E-01  0.2400E-01
    -27.442  0.0000E+00  0.0000E+00  0.2400E-01  0.2400E-01
    -27.249  0.0000E+00  0.0000E+00  0.2400E-01  0.2400E-01
    -27.057  0.0000E+00  0.0000E+00  0.2400E-01  0.2400E-01
    -26.864  0.0000E+00  0.0000E+00  0.2400E-01  0.2400E-01
    -26.672  0.0000E+00  0.0000E+00  0.2400E-01  0.2400E-01
    -26.479  0.0000E+00  0.0000E+00  0.2400E-01  0.2400E-01
    -26.287  0.0000E+00  0.0000E+00  0.2400E-01  0.2400E-01
    -26.094  0.0000E+00  0.0000E+00  0.2400E-01  0.2400E-01
    -25.902  0.0000E+00  0.0000E+00  0.2400E-01  0.2400E-01
    -25.709  0.0000E+00  0.0000E+00  0.2400E-01  0.2400E-01
    -25.517  0.0000E+00  0.0000E+00  0.2400E-01  0.2400E-01
    -25.324  0.0000E+00  0.0000E+00  0.2400E-01  0.2400E-01
    -25.132  0.0000E+00  0.0000E+00  0.2400E-01  0.2400E-01
    -24.939  0.0000E+00  0.0000E+00  0.2400E-01  0.2400E-01
    -24.747  0.0000E+00  0.0000E+00  0.2400E-01  0.2400E-01
    -24.554  0.0000E+00  0.0000E+00  0.2400E-01  0.2400E-01
    -24.362  0.0000E+00  0.0000E+00  0.2400E-01  0.2400E-01
    -24.169  0.0000E+00  0.0000E+00  0.2400E-01  0.2400E-01
    -23.977  0.0000E+00  0.0000E+00  0.2400E-01  0.2400E-01
    -23.784  0.0000E+00  0.0000E+00  0.2400E-01  0.2400E-01
    -23.592  0.0000E+00  0.0000E+00  0.2400E-01  0.2400E-01
    -23.399  0.0000E+00  0.0000E+00  0.2400E-01  0.2400E-01
    -23.207  0.0000E+00  0.0000E+00  0.2400E-01  0.2400E-01
    -23.014  0.0000E+00  0.0000E+00  0.2400E-01  0.2400E-01
    -22.822  0.0000E+00  0.0000E+00  0.2400E-01  0.2400E-01
    -22.629  0.0000E+00  0.0000E+00  0.2400E-01  0.2400E-01
    -22.437  0.0000E+00  0.0000E+00  0.2400E-01  0.2400E-01
    -22.244  0.0000E+00  0.0000E+00  0.2400E-01  0.2400E-01
    -22.052  0.0000E+00  0.0000E+00  0.2400E-01  0.2400E-01
    -21.859  0.0000E+00  0.0000E+00  0.2400E-01  0.2400E-01
    -21.667  0.0000E+00  0.0000E+00  0.2400E-01  0.2400E-01
    -21.474  0.0000E+00  0.0000E+00  0.2400E-01  0.2400E-01
    -21.282  0.0000E+00  0.0000E+00  0.2400E-01  0.2400E-01
    -21.089  0.0000E+00  0.0000E+00  0.2400E-01  0.2400E-01
    -20.897  0.0000E+00  0.0000E+00  0.2400E-01  0.2400E-01
    -20.704  0.0000E+00  0.0000E+00  0.2400E-01  0.2400E-01
    -20.512  0.0000E+00  0.0000E+00  0.2400E-01  0.2400E-01
    -20.319  0.0000E+00  0.0000E+00  0.2400E-01  0.2400E-01
    -20.127  0.0000E+00  0.0000E+00  0.2400E-01  0.2400E-01
    -19.934  0.0000E+00  0.0000E+00  0.2400E-01  0.2400E-01
    -19.742  0.0000E+00  0.0000E+00  0.2400E-01  0.2400E-01
    -19.549  0.0000E+00  0.0000E+00  0.2400E-01  0.2400E-01
    -19.357  0.0000E+00  0.0000E+00  0.2400E-01  0.2400E-01
    -19.164  0.0000E+00  0.0000E+00  0.2400E-01  0.2400E-01
    -18.972  0.0000E+00  0.0000E+00  0.2400E-01  0.2400E-01
    -18.779  0.0000E+00  0.0000E+00  0.2400E-01  0.2400E-01
    -18.587  0.0000E+00  0.0000E+00  0.2400E-01  0.2400E-01
    -18.395  0.0000E+00  0.0000E+00  0.2400E-01  0.2400E-01
    -18.202  0.0000E+00  0.0000E+00  0.2400E-01  0.2400E-01
    -18.010  0.0000E+00  0.0000E+00  0.2400E-01  0.2400E-01
    -17.817  0.0000E+00  0.0000E+00  0.2400E-01  0.2400E-01
    -17.625  0.0000E+00  0.0000E+00  0.2400E-01  0.2400E-01
    -17.432  0.0000E+00  0.0000E+00  0.2400E-01  0.2400E-01
    -17.240  0.0000E+00  0.0000E+00  0.2400E-01  0.2400E-01
    -17.047  0.0000E+00  0.0000E+00  0.2400E-01  0.2400E-01
    -16.855  0.0000E+00  0.0000E+00  0.2400E-01  0.2400E-01
    -16.662  0.0000E+00  0.0000E+00  0.2400E-01  0.2400E-01
    -16.470  0.0000E+00  0.0000E+00  0.2400E-01  0.2400E-01
    -16.277  0.0000E+00  0.0000E+00  0.2400E-01  0.2400E-01
    -16.085  0.0000E+00  0.0000E+00  0.2400E-01  0.2400E-01
    -15.892  0.0000E+00  0.0000E+00  0.2400E-01  0.2400E-01
    -15.700  0.0000E+00  0.0000E+00  0.2400E-01  0.2400E-01
    -15.507  0.0000E+00  0.0000E+00  0.2400E-01  0.2400E-01
    -15.315  0.0000E+00  0.0000E+00  0.2400E-01  0.2400E-01
    -15.122  0.0000E+00  0.0000E+00  0.2400E-01  0.2400E-01
    -14.930  0.0000E+00  0.0000E+00  0.2400E-01  0.2400E-01
    -14.737  0.0000E+00  0.0000E+00  0.2400E-01  0.2400E-01
    -14.545  0.0000E+00  0.0000E+00  0.2400E-01  0.2400E-01
    -14.352  0.0000E+00  0.0000E+00  0.2400E-01  0.2400E-01
    -14.160  0.0000E+00  0.0000E+00  0.2400E-01  0.2400E-01
    -13.967  0.0000E+00  0.0000E+00  0.2400E-01  0.2400E-01
    -13.775  0.0000E+00  0.0000E+00  0.2400E-01  0.2400E-01
    -13.582  0.0000E+00  0.0000E+00  0.2400E-01  0.2400E-01
    -13.390  0.0000E+00  0.0000E+00  0.2400E-01  0.2400E-01
    -13.197  0.1737E-03  0.1737E-03  0.2403E-01  0.2403E-01
    -13.005  0.2060E-01  0.2060E-01  0.2800E-01  0.2800E-01
    -12.812  0.1907E-09  0.1907E-09  0.2800E-01  0.2800E-01
    -12.620  0.1037E-01  0.1037E-01  0.3000E-01  0.3000E-01
    -12.427  0.6466E-02  0.6466E-02  0.3124E-01  0.3124E-01
    -12.235  0.3924E-02  0.3924E-02  0.3200E-01  0.3200E-01
    -12.042  0.0000E+00  0.0000E+00  0.3200E-01  0.3200E-01
    -11.850  0.0000E+00  0.0000E+00  0.3200E-01  0.3200E-01
    -11.657  0.0000E+00  0.0000E+00  0.3200E-01  0.3200E-01
    -11.465  0.0000E+00  0.0000E+00  0.3200E-01  0.3200E-01
    -11.272  0.0000E+00  0.0000E+00  0.3200E-01  0.3200E-01
    -11.080  0.0000E+00  0.0000E+00  0.3200E-01  0.3200E-01
    -10.887  0.0000E+00  0.0000E+00  0.3200E-01  0.3200E-01
    -10.695  0.0000E+00  0.0000E+00  0.3200E-01  0.3200E-01
    -10.502  0.4262E-07  0.4262E-07  0.3200E-01  0.3200E-01
    -10.310  0.1527E-01  0.1527E-01  0.3494E-01  0.3494E-01
    -10.117  0.2081E-01  0.2081E-01  0.3895E-01  0.3895E-01
     -9.925  0.2624E-01  0.2624E-01  0.4400E-01  0.4400E-01
     -9.732  0.0000E+00  0.0000E+00  0.4400E-01  0.4400E-01
     -9.540  0.0000E+00  0.0000E+00  0.4400E-01  0.4400E-01
     -9.347  0.0000E+00  0.0000E+00  0.4400E-01  0.4400E-01
     -9.155  0.0000E+00  0.0000E+00  0.4400E-01  0.4400E-01
     -8.962  0.0000E+00  0.0000E+00  0.4400E-01  0.4400E-01
     -8.770  0.0000E+00  0.0000E+00  0.4400E-01  0.4400E-01
     -8.577  0.3106E-02  0.3106E-02  0.4460E-01  0.4460E-01
     -8.385  0.1767E-01  0.1767E-01  0.4800E-01  0.4800E-01
     -8.192  0.0000E+00  0.0000E+00  0.4800E-01  0.4800E-01
     -8.000  0.0000E+00  0.0000E+00  0.4800E-01  0.4800E-01
     -7.807  0.0000E+00  0.0000E+00  0.4800E-01  0.4800E-01
     -7.615  0.0000E+00  0.0000E+00  0.4800E-01  0.4800E-01
     -7.422  0.0000E+00  0.0000E+00  0.4800E-01  0.4800E-01
     -7.230  0.0000E+00  0.0000E+00  0.4800E-01  0.4800E-01
     -7.037  0.0000E+00  0.0000E+00  0.4800E-01  0.4800E-01
     -6.845  0.0000E+00  0.0000E+00  0.4800E-01  0.4800E-01
     -6.652  0.0000E+00  0.0000E+00  0.4800E-01  0.4800E-01
     -6.460  0.0000E+00  0.0000E+00  0.4800E-01  0.4800E-01
     -6.267  0.5340E-03  0.5340E-03  0.4810E-01  0.4810E-01
     -6.075  0.4661E-02  0.4661E-02  0.4900E-01  0.4900E-01
     -5.882  0.1886E-03  0.1886E-03  0.4904E-01  0.4904E-01
     -5.690  0.1539E-01  0.1539E-01  0.5200E-01  0.5200E-01
     -5.497  0.0000E+00  0.0000E+00  0.5200E-01  0.5200E-01
     -5.305  0.0000E+00  0.0000E+00  0.5200E-01  0.5200E-01
     -5.112  0.0000E+00  0.0000E+00  0.5200E-01  0.5200E-01
     -4.920  0.0000E+00  0.0000E+00  0.5200E-01  0.5200E-01
     -4.727  0.0000E+00  0.0000E+00  0.5200E-01  0.5200E-01
     -4.535  0.0000E+00  0.0000E+00  0.5200E-01  0.5200E-01
     -4.342  0.0000E+00  0.0000E+00  0.5200E-01  0.5200E-01
     -4.150  0.0000E+00  0.0000E+00  0.5200E-01  0.5200E-01
     -3.957  0.0000E+00  0.0000E+00  0.5200E-01  0.5200E-01
     -3.765  0.0000E+00  0.0000E+00  0.5200E-01  0.5200E-01
     -3.572  0.0000E+00  0.0000E+00  0.5200E-01  0.5200E-01
     -3.380  0.3280E-03  0.3280E-03  0.5206E-01  0.5206E-01
     -3.187  0.1526E-01  0.1526E-01  0.5500E-01  0.5500E-01
     -2.995  0.5790E-03  0.5790E-03  0.5511E-01  0.5511E-01
     -2.802  0.8647E-02  0.8647E-02  0.5678E-01  0.5678E-01
     -2.610  0.1352E-01  0.1352E-01  0.5938E-01  0.5938E-01
     -2.417  0.2270E-01  0.2270E-01  0.6375E-01  0.6375E-01
     -2.225  0.1307E-02  0.1307E-02  0.6400E-01  0.6400E-01
     -2.032  0.0000E+00  0.0000E+00  0.6400E-01  0.6400E-01
     -1.840  0.0000E+00  0.0000E+00  0.6400E-01  0.6400E-01
     -1.647  0.3670E-02  0.3670E-02  0.6471E-01  0.6471E-01
     -1.455  0.1202E-01  0.1202E-01  0.6702E-01  0.6702E-01
     -1.263  0.2117E-01  0.2117E-01  0.7109E-01  0.7109E-01
     -1.070  0.1211E-01  0.1211E-01  0.7343E-01  0.7343E-01
     -0.878  0.1296E-01  0.1296E-01  0.7592E-01  0.7592E-01
     -0.685  0.1046E-02  0.1046E-02  0.7612E-01  0.7612E-01
     -0.493  0.1525E-01  0.1525E-01  0.7906E-01  0.7906E-01
     -0.300  0.1027E-01  0.1027E-01  0.8103E-01  0.8103E-01
     -0.108  0.2256E-01  0.2256E-01  0.8538E-01  0.8538E-01
      0.085  0.3103E-01  0.3103E-01  0.9135E-01  0.9135E-01
      0.277  0.1552E-01  0.1552E-01  0.9435E-01  0.9435E-01
      0.470  0.8588E-02  0.8588E-02  0.9600E-01  0.9600E-01
      0.662  0.5329E-02  0.5329E-02  0.9703E-01  0.9703E-01
      0.855  0.2339E-01  0.2339E-01  0.1015E+00  0.1015E+00
      1.047  0.2585E-01  0.2585E-01  0.1065E+00  0.1065E+00
      1.240  0.2925E-01  0.2925E-01  0.1121E+00  0.1121E+00
      1.432  0.2958E-01  0.2958E-01  0.1178E+00  0.1178E+00
      1.625  0.9984E-02  0.9984E-02  0.1198E+00  0.1198E+00
      1.817  0.1272E-02  0.1272E-02  0.1200E+00  0.1200E+00
      2.010  0.0000E+00  0.0000E+00  0.1200E+00  0.1200E+00
      2.202  0.0000E+00  0.0000E+00  0.1200E+00  0.1200E+00
      2.395  0.0000E+00  0.0000E+00  0.1200E+00  0.1200E+00
      2.587  0.0000E+00  0.0000E+00  0.1200E+00  0.1200E+00
      2.780  0.0000E+00  0.0000E+00  0.1200E+00  0.1200E+00
      2.972  0.0000E+00  0.0000E+00  0.1200E+00  0.1200E+00
      3.165  0.0000E+00  0.0000E+00  0.1200E+00  0.1200E+00
      3.357  0.0000E+00  0.0000E+00  0.1200E+00  0.1200E+00
      3.550  0.0000E+00  0.0000E+00  0.1200E+00  0.1200E+00
      3.742  0.0000E+00  0.0000E+00  0.1200E+00  0.1200E+00
      3.935  0.0000E+00  0.0000E+00  0.1200E+00  0.1200E+00
      4.127  0.3725E-11  0.3725E-11  0.1200E+00  0.1200E+00
      4.320  0.4708E-02  0.4708E-02  0.1209E+00  0.1209E+00
      4.512  0.4866E-03  0.4866E-03  0.1210E+00  0.1210E+00
      4.705  0.0000E+00  0.0000E+00  0.1210E+00  0.1210E+00
      4.897  0.0000E+00  0.0000E+00  0.1210E+00  0.1210E+00
      5.090  0.1363E-02  0.1363E-02  0.1213E+00  0.1213E+00
      5.282  0.1417E-01  0.1417E-01  0.1240E+00  0.1240E+00
      5.475  0.4839E-04  0.4839E-04  0.1240E+00  0.1240E+00
      5.667  0.2835E-06  0.2835E-06  0.1240E+00  0.1240E+00
      5.860  0.7275E-02  0.7275E-02  0.1254E+00  0.1254E+00
      6.052  0.1802E-01  0.1802E-01  0.1289E+00  0.1289E+00
      6.245  0.5878E-02  0.5878E-02  0.1300E+00  0.1300E+00
      6.437  0.1012E-01  0.1012E-01  0.1319E+00  0.1319E+00
      6.630  0.6386E-02  0.6386E-02  0.1332E+00  0.1332E+00
      6.822  0.1466E-01  0.1466E-01  0.1360E+00  0.1360E+00
      7.015  0.4386E-02  0.4386E-02  0.1368E+00  0.1368E+00
      7.207  0.2374E-02  0.2374E-02  0.1373E+00  0.1373E+00
      7.400  0.1016E-01  0.1016E-01  0.1393E+00  0.1393E+00
      7.592  0.1151E-01  0.1151E-01  0.1415E+00  0.1415E+00
      7.785  0.9223E-02  0.9223E-02  0.1432E+00  0.1432E+00
      7.977  0.1334E-01  0.1334E-01  0.1458E+00  0.1458E+00
      8.170  0.1828E-01  0.1828E-01  0.1493E+00  0.1493E+00
      8.362  0.1263E-01  0.1263E-01  0.1518E+00  0.1518E+00
      8.555  0.1209E-01  0.1209E-01  0.1541E+00  0.1541E+00
      8.747  0.1809E-01  0.1809E-01  0.1576E+00  0.1576E+00
      8.940  0.1780E-01  0.1780E-01  0.1610E+00  0.1610E+00
      9.132  0.1894E-01  0.1894E-01  0.1647E+00  0.1647E+00
      9.325  0.1847E-01  0.1847E-01  0.1682E+00  0.1682E+00
      9.517  0.1679E-01  0.1679E-01  0.1714E+00  0.1714E+00
      9.710  0.1760E-01  0.1768E-01  0.1748E+00  0.1748E+00
      9.902  0.6079E-02  0.5998E-02  0.1760E+00  0.1760E+00
     10.095  0.0000E+00  0.0000E+00  0.1760E+00  0.1760E+00
     10.287  0.0000E+00  0.0000E+00  0.1760E+00  0.1760E+00
     10.480  0.0000E+00  0.0000E+00  0.1760E+00  0.1760E+00
     10.672  0.0000E+00  0.0000E+00  0.1760E+00  0.1760E+00
     10.865  0.0000E+00  0.0000E+00  0.1760E+00  0.1760E+00
     11.057  0.0000E+00  0.0000E+00  0.1760E+00  0.1760E+00
     11.250  0.0000E+00  0.0000E+00  0.1760E+00  0.1760E+00
     11.442  0.0000E+00  0.0000E+00  0.1760E+00  0.1760E+00
     11.635  0.0000E+00  0.0000E+00  0.1760E+00  0.1760E+00
     11.827  0.0000E+00  0.0000E+00  0.1760E+00  0.1760E+00
     12.020  0.0000E+00  0.0000E+00  0.1760E+00  0.1760E+00
     12.212  0.0000E+00  0.0000E+00  0.1760E+00  0.1760E+00
     12.405  0.0000E+00  0.0000E+00  0.1760E+00  0.1760E+00
