 vasp.6.4.1 05Apr23 (build Jun 07 2023 15:38:11) complex                        
  
 executed on             LinuxIFC date 2023.10.16  16:12:45
 running  128 mpi-ranks, with    1 threads/rank, on    1 nodes
 distrk:  each k-point on  128 cores,    1 groups
 distr:  one band on NCORE=  32 cores,    4 groups


--------------------------------------------------------------------------------------------------------


 INCAR:
   GGA = PE
   PREC = Accu
   EDIFF = 1.e-6
   EDIFFG = -1.e-3
   ENCUT = 520.
   NELM = 100
   NELMDL = -10
   LASPH = .TRUE.
   LREAL = Auto
   LMAXMIX = 4
   ISPIN = 2
   LDIAG = .TRUE.
   LPLANE = .TRUE.
   IVDW = 12
   SIGMA = 0.03
   ISMEAR = 0
   NSW = 1000    number of steps for IOM
   IBRION = 2    ionic relax: 0-MD 1-quasi-New 2-CG
   ISIF = 2    ionic relaxation + stress tensor calcn.
   LCHARG = .FALSE.
   LWAVE = .FALSE.
   ALGO = F
   KPAR = 1
   NPAR = 4
   POTIM = 0.2

 POTCAR:    PAW_PBE Li_sv_GW 25Mar2010            
 POTCAR:    PAW_PBE P_GW 19Mar2012                
 POTCAR:    PAW_PBE S_GW 19Mar2012                
 POTCAR:    PAW_PBE Cl_GW 19Mar2012               
 -----------------------------------------------------------------------------
|                                                                             |
|           W    W    AA    RRRRR   N    N  II  N    N   GGGG   !!!           |
|           W    W   A  A   R    R  NN   N  II  NN   N  G    G  !!!           |
|           W    W  A    A  R    R  N N  N  II  N N  N  G       !!!           |
|           W WW W  AAAAAA  RRRRR   N  N N  II  N  N N  G  GGG   !            |
|           WW  WW  A    A  R   R   N   NN  II  N   NN  G    G                |
|           W    W  A    A  R    R  N    N  II  N    N   GGGG   !!!           |
|                                                                             |
|     You use a magnetic or noncollinear calculation, but did not specify     |
|     the initial magnetic moment with the MAGMOM tag. Note that a            |
|     default of 1 will be used for all atoms. This ferromagnetic setup       |
|     may break the symmetry of the crystal, in particular it may rule        |
|     out finding an antiferromagnetic solution. Thence, we recommend         |
|     setting the initial magnetic moment manually or verifying carefully     |
|     that this magnetic setup is desired.                                    |
|                                                                             |
 -----------------------------------------------------------------------------

 POTCAR:    PAW_PBE Li_sv_GW 25Mar2010            
   SHA256 =  24a6ace15a582615486b36ce4dc781b048409f4015b7684ed1273ae395fa2fdc Li_sv_GW/POTCAR       
   COPYR  = (c) Copyright 25Mar2010 Georg Kresse                                                    
   COPYR  = This file is part of the software VASP. Any use, copying, and all other rights are regul
   COPYR  = If you do not have a valid VASP license, you may not use, copy or distribute this file. 
   VRHFIN =Li: 1s2s                                                                                 
   LEXCH  = PE                                                                                      
   EATOM  =   200.9989 eV,   14.7730 Ry                                                             
                                                                                                    
   TITEL  = PAW_PBE Li_sv_GW 25Mar2010                                                              
   LULTRA =        F    use ultrasoft PP ?                                                          
   IUNSCR =        0    unscreen: 0-lin 1-nonlin 2-no                                               
   RPACOR =    0.000    partial core radius                                                         
   POMASS =    7.010; ZVAL   =    3.000    mass and valenz                                          
   RCORE  =    1.500    outmost cutoff radius                                                       
   RWIGS  =    1.600; RWIGS  =    0.847    wigner-seitz radius (au A)                               
   ENMAX  =  433.699; ENMIN  =  325.274 eV                                                          
   RCLOC  =    1.003    cutoff for local pot                                                        
   LCOR   =        T    correct aug charges                                                         
   LPAW   =        T    paw PP                                                                      
   EAUG   = 1041.699                                                                                
   RMAX   =    1.536    core radius for proj-oper                                                   
   RAUG   =    1.300    factor for augmentation sphere                                              
   RDEP   =    1.520    radius for radial grids                                                     
   RDEPT  =    1.300    core radius for aug-charge                                                  
                                                                                                    
   Atomic configuration                                                                             
    4 entries                                                                                       
     n  l   j            E        occ.                                                              
     1  0  0.50       -53.3604   2.0000                                                             
     1  0  0.50       -52.0001   0.0000                                                             
     2  1  0.50        -1.5636   1.0000                                                             
     3  2  1.50        -1.3606   0.0000                                                             
   Description                                                                                      
     l       E           TYP  RCUT    TYP  RCUT                                                     
     0    -53.3603633     23  1.200                                                                 
     0    -52.0001064     23  1.200                                                                 
     0    176.8757380     23  1.300                                                                 
     1     -1.5635925     23  1.500                                                                 
     1    108.8466080     23  1.500                                                                 
     2     81.6349560     23  1.500                                                                 
  local pseudopotential read in
  kinetic energy density of atom read in
  atomic valenz-charges read in
  non local Contribution for L=           0  read in
    real space projection operators read in
  non local Contribution for L=           0  read in
    real space projection operators read in
  non local Contribution for L=           0  read in
    real space projection operators read in
  non local Contribution for L=           1  read in
    real space projection operators read in
  non local Contribution for L=           1  read in
    real space projection operators read in
  non local Contribution for L=           2  read in
    real space projection operators read in
    PAW grid and wavefunctions read in
 
   number of l-projection  operators is LMAX  =           6
   number of lm-projection operators is LMMAX =          14
 
 POTCAR:    PAW_PBE P_GW 19Mar2012                
   SHA256 =  715c28f2291d37b61637ce89646c59f66f71c8b8d8bfba631e5feb9f7b42defe P_GW/POTCAR           
   COPYR  = (c) Copyright 19Mar2012 Georg Kresse                                                    
   COPYR  = This file is part of the software VASP. Any use, copying, and all other rights are regul
   COPYR  = If you do not have a valid VASP license, you may not use, copy or distribute this file. 
   VRHFIN =P : s2p3                                                                                 
   LEXCH  = PE                                                                                      
   EATOM  =   176.0430 eV,   12.9388 Ry                                                             
                                                                                                    
   TITEL  = PAW_PBE P_GW 19Mar2012                                                                  
   LULTRA =        F    use ultrasoft PP ?                                                          
   IUNSCR =        1    unscreen: 0-lin 1-nonlin 2-no                                               
   RPACOR =    1.400    partial core radius                                                         
   POMASS =   30.974; ZVAL   =    5.000    mass and valenz                                          
   RCORE  =    2.000    outmost cutoff radius                                                       
   RWIGS  =    1.900; RWIGS  =    1.005    wigner-seitz radius (au A)                               
   ENMAX  =  255.040; ENMIN  =  191.280 eV                                                          
   ICORE  =        3    local potential                                                             
   LCOR   =        T    correct aug charges                                                         
   LPAW   =        T    paw PP                                                                      
   EAUG   =  499.732                                                                                
   DEXC   =    0.000                                                                                
   RMAX   =    2.047    core radius for proj-oper                                                   
   RAUG   =    1.300    factor for augmentation sphere                                              
   RDEP   =    2.059    radius for radial grids                                                     
   RDEPT  =    1.900    core radius for aug-charge                                                  
                                                                                                    
   Atomic configuration                                                                             
    7 entries                                                                                       
     n  l   j            E        occ.                                                              
     1  0  0.50     -2084.0982   2.0000                                                             
     2  0  0.50      -173.9859   2.0000                                                             
     2  1  1.50      -124.4865   6.0000                                                             
     3  0  0.50       -13.9692   2.0000                                                             
     3  1  0.50        -5.5067   3.0000                                                             
     3  2  1.50        -6.8029   0.0000                                                             
     4  3  2.50        -1.3606   0.0000                                                             
   Description                                                                                      
     l       E           TYP  RCUT    TYP  RCUT                                                     
     0    -13.9691528     23  1.900                                                                 
     0    102.0436950     23  1.900                                                                 
     1     -5.5066939     23  1.900                                                                 
     1    102.0436950     23  1.900                                                                 
     2     -8.1634956     23  2.000                                                                 
     2     81.6349560     23  2.000                                                                 
     3     27.2116520     23  2.000                                                                 
  local pseudopotential read in
  partial core-charges read in
  partial kinetic energy density read in
  kinetic energy density of atom read in
  atomic valenz-charges read in
  non local Contribution for L=           0  read in
    real space projection operators read in
  non local Contribution for L=           0  read in
    real space projection operators read in
  non local Contribution for L=           1  read in
    real space projection operators read in
  non local Contribution for L=           1  read in
    real space projection operators read in
  non local Contribution for L=           2  read in
    real space projection operators read in
  non local Contribution for L=           2  read in
    real space projection operators read in
    PAW grid and wavefunctions read in
 
   number of l-projection  operators is LMAX  =           6
   number of lm-projection operators is LMMAX =          18
 
 POTCAR:    PAW_PBE S_GW 19Mar2012                
   SHA256 =  357db9cfb0783579b2eebe03197c2d807131fea8ea663b1fcfb6ce2fa75af011 S_GW/POTCAR           
   COPYR  = (c) Copyright 19Mar2012 Georg Kresse                                                    
   COPYR  = This file is part of the software VASP. Any use, copying, and all other rights are regul
   COPYR  = If you do not have a valid VASP license, you may not use, copy or distribute this file. 
   VRHFIN =S : s2p4                                                                                 
   LEXCH  = PE                                                                                      
   EATOM  =   276.8230 eV,   20.3459 Ry                                                             
                                                                                                    
   TITEL  = PAW_PBE S_GW 19Mar2012                                                                  
   LULTRA =        F    use ultrasoft PP ?                                                          
   IUNSCR =        1    unscreen: 0-lin 1-nonlin 2-no                                               
   RPACOR =    1.400    partial core radius                                                         
   POMASS =   32.066; ZVAL   =    6.000    mass and valenz                                          
   RCORE  =    1.900    outmost cutoff radius                                                       
   RWIGS  =    1.900; RWIGS  =    1.005    wigner-seitz radius (au A)                               
   ENMAX  =  258.689; ENMIN  =  194.016 eV                                                          
   ICORE  =        3    local potential                                                             
   LCOR   =        T    correct aug charges                                                         
   LPAW   =        T    paw PP                                                                      
   EAUG   =  488.319                                                                                
   DEXC   =    0.000                                                                                
   RMAX   =    1.942    core radius for proj-oper                                                   
   RAUG   =    1.300    factor for augmentation sphere                                              
   RDEP   =    1.954    radius for radial grids                                                     
   RDEPT  =    1.900    core radius for aug-charge                                                  
                                                                                                    
   Atomic configuration                                                                             
    7 entries                                                                                       
     n  l   j            E        occ.                                                              
     1  0  0.50     -2405.8406   2.0000                                                             
     2  0  0.50      -211.7007   2.0000                                                             
     2  1  1.50      -156.4958   6.0000                                                             
     3  0  0.50       -17.2562   2.0000                                                             
     3  1  0.50        -7.0085   4.0000                                                             
     3  2  1.50        -8.1635   0.0000                                                             
     4  3  2.50        -1.3606   0.0000                                                             
   Description                                                                                      
     l       E           TYP  RCUT    TYP  RCUT                                                     
     0    -17.2561639     23  1.700                                                                 
     0     88.4378690     23  1.900                                                                 
     1     -7.0085399     23  1.900                                                                 
     1     88.4378690     23  1.900                                                                 
     2    -10.8846608     23  1.900                                                                 
     2     54.4233040     23  1.900                                                                 
     3     27.2116520     23  1.800                                                                 
  local pseudopotential read in
  partial core-charges read in
  partial kinetic energy density read in
  kinetic energy density of atom read in
  atomic valenz-charges read in
  non local Contribution for L=           0  read in
    real space projection operators read in
  non local Contribution for L=           0  read in
    real space projection operators read in
  non local Contribution for L=           1  read in
    real space projection operators read in
  non local Contribution for L=           1  read in
    real space projection operators read in
  non local Contribution for L=           2  read in
    real space projection operators read in
  non local Contribution for L=           2  read in
    real space projection operators read in
    PAW grid and wavefunctions read in
 
   number of l-projection  operators is LMAX  =           6
   number of lm-projection operators is LMMAX =          18
 
 POTCAR:    PAW_PBE Cl_GW 19Mar2012               
   SHA256 =  3ef3b3169d6a9a89979f58b4cf17d927a58518fc660d8883d88cacaee8175441 Cl_GW/POTCAR          
   COPYR  = (c) Copyright 19Mar2012 Georg Kresse                                                    
   COPYR  = This file is part of the software VASP. Any use, copying, and all other rights are regul
   COPYR  = If you do not have a valid VASP license, you may not use, copy or distribute this file. 
   VRHFIN =Cl: s2p5                                                                                 
   LEXCH  = PE                                                                                      
   EATOM  =   409.7259 eV,   30.1140 Ry                                                             
                                                                                                    
   TITEL  = PAW_PBE Cl_GW 19Mar2012                                                                 
   LULTRA =        F    use ultrasoft PP ?                                                          
   IUNSCR =        1    unscreen: 0-lin 1-nonlin 2-no                                               
   RPACOR =    1.400    partial core radius                                                         
   POMASS =   35.453; ZVAL   =    7.000    mass and valenz                                          
   RCORE  =    1.900    outmost cutoff radius                                                       
   RWIGS  =    1.900; RWIGS  =    1.005    wigner-seitz radius (au A)                               
   ENMAX  =  262.472; ENMIN  =  196.854 eV                                                          
   ICORE  =        3    local potential                                                             
   LCOR   =        T    correct aug charges                                                         
   LPAW   =        T    paw PP                                                                      
   EAUG   =  456.703                                                                                
   DEXC   =    0.000                                                                                
   RMAX   =    1.945    core radius for proj-oper                                                   
   RAUG   =    1.300    factor for augmentation sphere                                              
   RDEP   =    2.020    radius for radial grids                                                     
   RDEPT  =    1.900    core radius for aug-charge                                                  
                                                                                                    
   Atomic configuration                                                                             
    7 entries                                                                                       
     n  l   j            E        occ.                                                              
     1  0  0.50     -2751.1850   2.0000                                                             
     2  0  0.50      -252.6861   2.0000                                                             
     2  1  1.50      -191.6157   6.0000                                                             
     3  0  0.50       -20.6916   2.0000                                                             
     3  1  0.50        -8.5949   5.0000                                                             
     3  2  1.50        -9.5241   0.0000                                                             
     4  3  2.50        -9.5241   0.0000                                                             
   Description                                                                                      
     l       E           TYP  RCUT    TYP  RCUT                                                     
     0    -20.6915657     23  1.700                                                                 
     0     95.2407820     23  1.800                                                                 
     1     -8.5948577     23  1.900                                                                 
     1     95.2407820     23  1.900                                                                 
     2    -10.8846608     23  1.900                                                                 
     2     54.4233040     23  1.900                                                                 
     3     27.2116520     23  1.900                                                                 
  local pseudopotential read in
  partial core-charges read in
  partial kinetic energy density read in
  kinetic energy density of atom read in
  atomic valenz-charges read in
  non local Contribution for L=           0  read in
    real space projection operators read in
  non local Contribution for L=           0  read in
    real space projection operators read in
  non local Contribution for L=           1  read in
    real space projection operators read in
  non local Contribution for L=           1  read in
    real space projection operators read in
  non local Contribution for L=           2  read in
    real space projection operators read in
  non local Contribution for L=           2  read in
    real space projection operators read in
    PAW grid and wavefunctions read in
 
   number of l-projection  operators is LMAX  =           6
   number of lm-projection operators is LMMAX =          18
 
 Optimization of the real space projectors (new method)

 maximal supplied QI-value         = 25.13
 optimisation between [QCUT,QGAM] = [ 11.56, 23.12] = [ 37.43,149.72] Ry 
 Optimized for a Real-space Cutoff    1.28 Angstroem

   l    n(q)    QCUT    max X(q) W(low)/X(q) W(high)/X(q)  e(spline) 
   0      9    11.561    87.733    0.11E-03    0.32E-04    0.56E-06
   0      9    11.561    82.800    0.11E-03    0.35E-04    0.56E-06
   0      9    11.561     2.509    0.22E-03    0.42E-04    0.79E-06
   1      8    11.561    12.580    0.94E-04    0.26E-03    0.21E-06
   1      8    11.561     1.319    0.33E-04    0.15E-03    0.19E-06
   2      8    11.561     1.993    0.36E-04    0.89E-04    0.26E-06
 Optimization of the real space projectors (new method)

 maximal supplied QI-value         = 18.90
 optimisation between [QCUT,QGAM] = [ 11.53, 23.24] = [ 37.21,151.29] Ry 
 Optimized for a Real-space Cutoff    1.21 Angstroem

   l    n(q)    QCUT    max X(q) W(low)/X(q) W(high)/X(q)  e(spline) 
   0      8    11.527     8.355    0.73E-04    0.70E-04    0.26E-07
   0      8    11.527     1.401    0.17E-03    0.17E-03    0.63E-07
   1      8    11.527     4.747    0.13E-03    0.17E-03    0.11E-06
   1      8    11.527     2.025    0.16E-03    0.18E-03    0.12E-06
   2      7    11.527     3.169    0.51E-04    0.25E-03    0.60E-07
   2      7    11.527     3.441    0.82E-04    0.22E-03    0.14E-06
 Optimization of the real space projectors (new method)

 maximal supplied QI-value         = 19.84
 optimisation between [QCUT,QGAM] = [ 11.51, 23.22] = [ 37.09,150.92] Ry 
 Optimized for a Real-space Cutoff    1.49 Angstroem

   l    n(q)    QCUT    max X(q) W(low)/X(q) W(high)/X(q)  e(spline) 
   0     10    11.508     7.541    0.34E-04    0.13E-04    0.69E-07
   0     10    11.508     1.809    0.49E-04    0.27E-04    0.14E-06
   1     10    11.508     4.107    0.27E-05    0.41E-05    0.14E-06
   1     10    11.508     2.196    0.26E-05    0.25E-05    0.22E-06
   2      9    11.508     4.265    0.18E-03    0.11E-03    0.81E-06
   2      9    11.508     1.925    0.97E-04    0.76E-04    0.47E-06
 Optimization of the real space projectors (new method)

 maximal supplied QI-value         = 19.84
 optimisation between [QCUT,QGAM] = [ 11.51, 23.22] = [ 37.09,150.92] Ry 
 Optimized for a Real-space Cutoff    1.21 Angstroem

   l    n(q)    QCUT    max X(q) W(low)/X(q) W(high)/X(q)  e(spline) 
   0      8    11.508     6.761    0.57E-04    0.57E-04    0.35E-07
   0      8    11.508     1.642    0.14E-03    0.14E-03    0.91E-07
   1      8    11.508     3.519    0.20E-04    0.72E-04    0.47E-07
   1      8    11.508     2.150    0.27E-04    0.11E-03    0.89E-07
   2      7    11.508     2.976    0.19E-03    0.33E-03    0.16E-06
   2      7    11.508     1.494    0.14E-03    0.29E-03    0.14E-06
  PAW_PBE Li_sv_GW 25Mar2010            :
 energy of atom  1       EATOM= -200.9989
 kinetic energy error for atom=    0.0127 (will be added to EATOM!!)
  PAW_PBE P_GW 19Mar2012                :
 energy of atom  2       EATOM= -176.0430
 kinetic energy error for atom=    0.0011 (will be added to EATOM!!)
  PAW_PBE S_GW 19Mar2012                :
 energy of atom  3       EATOM= -276.8230
 kinetic energy error for atom=    0.0024 (will be added to EATOM!!)
  PAW_PBE Cl_GW 19Mar2012               :
 energy of atom  4       EATOM= -409.7259
 kinetic energy error for atom=    0.0030 (will be added to EATOM!!)
 
 
 POSCAR: Li24 P4 S20 Cl4
  positions in direct lattice
  velocities in cartesian coordinates
 exchange correlation table for  LEXCH =        8
   RHO(1)=    0.500       N(1)  =     2000
   RHO(2)=  100.500       N(2)  =     4000

 VTST: version 4.1, (05/19/21)

 CHAIN: initializing optimizer
 
 OPT: Using VASP Conjugate-Gradient optimizer
 CHAIN: Read ICHAIN            0
 
 POSCAR: Li24 P4 S20 Cl4
  positions in direct lattice
  velocities in cartesian coordinates
 


--------------------------------------------------------------------------------------------------------


 ion  position               nearest neighbor table
   1  0.983  0.285  0.297-
   2  0.983  0.797  0.785-
   3  0.026  0.266  0.766-
   4  0.027  0.734  0.234-
   5  0.307  0.287  0.974-
   6  0.310  0.701  0.009-
   7  0.672  0.317  0.040-
   8  0.790  0.802  0.974-
   9  0.187  0.962  0.168-
  10  0.197  0.019  0.805-
  11  0.727  0.983  0.703-
  12  0.827  0.032  0.174-
  13  0.187  0.668  0.462-
  14  0.197  0.305  0.519-
  15  0.827  0.674  0.532-
  16  0.727  0.203  0.483-
  17  0.307  0.474  0.787-
  18  0.310  0.509  0.201-
  19  0.790  0.474  0.302-
  20  0.672  0.540  0.817-
  21  0.474  0.183  0.683-
  22  0.472  0.822  0.322-
  23  0.527  0.166  0.302-
  24  0.527  0.802  0.666-
  25  0.506  0.495  0.497-  42 2.05  41 2.05  44 2.05  43 2.06
  26  0.506  0.997  0.995-  37 2.05  38 2.05  40 2.05  39 2.06
  27  0.992  0.495  0.995-  34 2.05  35 2.05  36 2.05  33 2.06
  28  0.017  0.991  0.491-  30 2.05  29 2.05  31 2.05  32 2.07
  29  0.139  0.867  0.611-  28 2.05
  30  0.139  0.111  0.367-  28 2.05
  31  0.885  0.875  0.375-  28 2.05
  32  0.906  0.120  0.620-  28 2.07
  33  0.863  0.614  0.114-  27 2.06
  34  0.857  0.381  0.881-  27 2.05
  35  0.117  0.612  0.870-  27 2.05
  36  0.117  0.370  0.112-  27 2.05
  37  0.627  0.126  0.880-  26 2.05
  38  0.623  0.882  0.128-  26 2.05
  39  0.376  0.110  0.118-  26 2.06
  40  0.391  0.877  0.864-  26 2.05
  41  0.623  0.628  0.382-  25 2.05
  42  0.627  0.380  0.626-  25 2.05
  43  0.376  0.618  0.610-  25 2.06
  44  0.391  0.364  0.377-  25 2.05
  45  0.751  0.753  0.746-
  46  0.751  0.246  0.253-
  47  0.260  0.741  0.241-
  48  0.255  0.245  0.745-
  49  0.002  0.961  0.992-
  50  0.002  0.492  0.461-
  51  0.543  0.012  0.512-
  52  0.467  0.486  0.986-
 
  LATTYP: Found a simple cubic cell.
 ALAT       =     9.7084090244
  
  Lattice vectors:
  
 A1 = (   9.7084090244,   0.0000000000,   0.0000000000)
 A2 = (   0.0000000000,   9.7084090244,   0.0000000000)
 A3 = (   0.0000000000,   0.0000000000,   9.7084090244)


Analysis of symmetry for initial positions (statically):
=====================================================================
 Subroutine PRICEL returns:
 Original cell was already a primitive cell.
 

 Routine SETGRP: Setting up the symmetry group for a 
 simple cubic supercell.


 Subroutine GETGRP returns: Found  2 space group operations
 (whereof  1 operations were pure point group operations)
 out of a pool of 48 trial point group operations.


The static configuration has the point symmetry C_1 .
 The point group associated with its full space group is C_1h.


Analysis of symmetry for dynamics (positions and initial velocities):
=====================================================================
 Subroutine PRICEL returns:
 Original cell was already a primitive cell.
 

 Routine SETGRP: Setting up the symmetry group for a 
 simple cubic supercell.


 Subroutine GETGRP returns: Found  2 space group operations
 (whereof  1 operations were pure point group operations)
 out of a pool of 48 trial point group operations.


The dynamic configuration has the point symmetry C_1 .
 The point group associated with its full space group is C_1h.


Analysis of structural, dynamic, and magnetic symmetry:
=====================================================================
 Subroutine PRICEL returns:
 Original cell was already a primitive cell.
 

 Routine SETGRP: Setting up the symmetry group for a 
 simple cubic supercell.


 Subroutine GETGRP returns: Found  2 space group operations
 (whereof  1 operations were pure point group operations)
 out of a pool of 48 trial point group operations.


The overall configuration has the point symmetry C_1 .
 The point group associated with its full space group is C_1h.


 Subroutine INISYM returns: Found  2 space group operations
 (whereof  1 operations are pure point group operations),
 and found     1 'primitive' translations


----------------------------------------------------------------------------------------

                                     Primitive cell                                     

  volume of cell :     915.0487

  direct lattice vectors                    reciprocal lattice vectors
     9.708409024  0.000000000  0.000000000     0.103003489  0.000000000  0.000000000
     0.000000000  9.708409024  0.000000000     0.000000000  0.103003489  0.000000000
     0.000000000  0.000000000  9.708409024     0.000000000  0.000000000  0.103003489

  length of vectors
     9.708409024  9.708409024  9.708409024     0.103003489  0.103003489  0.103003489

  position of ions in fractional coordinates (direct lattice)
     0.983009521  0.285002958  0.297118108
     0.983009521  0.797118108  0.785002958
     0.025968966  0.265677883  0.765677883
     0.026695263  0.733993591  0.233993591
     0.307051335  0.287413826  0.973679036
     0.310089701  0.700775332  0.009114309
     0.671675759  0.316619239  0.039790619
     0.790256038  0.801693068  0.974473259
     0.186801399  0.961710599  0.167865920
     0.197207081  0.019200231  0.805099727
     0.727476425  0.983404735  0.703257226
     0.826946776  0.032062238  0.174399802
     0.186801399  0.667865920  0.461710599
     0.197207081  0.305099727  0.519200231
     0.826946776  0.674399802  0.532062238
     0.727476425  0.203257226  0.483404735
     0.307051335  0.473679036  0.787413826
     0.310089701  0.509114309  0.200775332
     0.790256038  0.474473259  0.301693068
     0.671675759  0.539790619  0.816619239
     0.473928152  0.182726632  0.682726632
     0.471918774  0.821546768  0.321546768
     0.527214066  0.165780085  0.302315127
     0.527214066  0.802315127  0.665780085
     0.506008379  0.494698679  0.496961090
     0.506008379  0.996961090  0.994698679
     0.992353524  0.495024736  0.995024736
     0.017429909  0.991473866  0.491473866
     0.138617146  0.866782603  0.610724938
     0.138617146  0.110724938  0.366782603
     0.884612497  0.875358304  0.375358304
     0.906112591  0.119646187  0.619646187
     0.863267157  0.613798365  0.113798365
     0.857089450  0.380596349  0.880596349
     0.117341453  0.611643095  0.870246037
     0.117341453  0.370246037  0.111643095
     0.627144875  0.126152210  0.880294861
     0.623493579  0.882392432  0.127617809
     0.375851649  0.110062324  0.117873670
     0.390695833  0.877119826  0.863757853
     0.623493579  0.627617809  0.382392432
     0.627144875  0.380294861  0.626152210
     0.375851649  0.617873670  0.610062324
     0.390695833  0.363757853  0.377119826
     0.751073638  0.753477985  0.745617169
     0.751073638  0.245617169  0.253477985
     0.259844668  0.740605945  0.240605945
     0.254703981  0.245374997  0.745374997
     0.001679980  0.960859894  0.991849174
     0.001679980  0.491849174  0.460859894
     0.542507902  0.011935849  0.511935849
     0.467341878  0.486263226  0.986263226

  ion indices of the primitive-cell ions
   primitive index   ion index
                 1           1
                 2           2
                 3           3
                 4           4
                 5           5
                 6           6
                 7           7
                 8           8
                 9           9
                10          10
                11          11
                12          12
                13          13
                14          14
                15          15
                16          16
                17          17
                18          18
                19          19
                20          20
                21          21
                22          22
                23          23
                24          24
                25          25
                26          26
                27          27
                28          28
                29          29
                30          30
                31          31
                32          32
                33          33
                34          34
                35          35
                36          36
                37          37
                38          38
                39          39
                40          40
                41          41
                42          42
                43          43
                44          44
                45          45
                46          46
                47          47
                48          48
                49          49
                50          50
                51          51
                52          52

----------------------------------------------------------------------------------------

 
 
 KPOINTS: Automatic mesh                          

Automatic generation of k-mesh.
 Grid dimensions read from file:
 generate k-points for:    2    2    2

 Generating k-lattice:

  Cartesian coordinates                     Fractional coordinates (reciprocal lattice)
     0.051501744  0.000000000  0.000000000     0.500000000  0.000000000  0.000000000
     0.000000000  0.051501744  0.000000000     0.000000000  0.500000000  0.000000000
     0.000000000  0.000000000  0.051501744     0.000000000  0.000000000  0.500000000

  Length of vectors
     0.051501744  0.051501744  0.051501744

  Shift w.r.t. Gamma in fractional coordinates (k-lattice)
     0.500000000  0.500000000  0.500000000

 
 Subroutine IBZKPT returns following result:
 ===========================================
 
 Found      3 irreducible k-points:
 
 Following reciprocal coordinates:
            Coordinates               Weight
  0.250000  0.250000  0.250000      2.000000
 -0.250000  0.250000  0.250000      2.000000
 -0.250000 -0.250000  0.250000      4.000000
 
 Following cartesian coordinates:
            Coordinates               Weight
  0.025751  0.025751  0.025751      2.000000
 -0.025751  0.025751  0.025751      2.000000
 -0.025751 -0.025751  0.025751      4.000000
 


--------------------------------------------------------------------------------------------------------




 Dimension of arrays:
   k-points           NKPTS =      3   k-points in BZ     NKDIM =      3   number of bands    NBANDS=    176
   number of dos      NEDOS =    301   number of ions     NIONS =     52
   non local maximal  LDIM  =      6   non local SUM 2l+1 LMDIM =     18
   total plane-waves  NPLWV = 373248
   max r-space proj   IRMAX =   5692   max aug-charges    IRDMAX=  17413
   dimension x,y,z NGX =    72 NGY =   72 NGZ =   72
   dimension x,y,z NGXF=   144 NGYF=  144 NGZF=  144
   support grid    NGXF=   144 NGYF=  144 NGZF=  144
   ions per type =              24   4  20   4
   NGX,Y,Z   is equivalent  to a cutoff of  12.33, 12.33, 12.33 a.u.
   NGXF,Y,Z  is equivalent  to a cutoff of  24.66, 24.66, 24.66 a.u.

 SYSTEM =  unknown system                          
 POSCAR =  Li24 P4 S20 Cl4                         

 Startparameter for this run:
   NWRITE =      2    write-flag & timer
   PREC   = accu      normal or accurate (medium, high low for compatibility)
   ISTART =      0    job   : 0-new  1-cont  2-samecut
   ICHARG =      2    charge: 1-file 2-atom 10-const
   ISPIN  =      2    spin polarized calculation?
   LNONCOLLINEAR =      F non collinear calculations
   LSORBIT =      F    spin-orbit coupling
   INIWAV =      1    electr: 0-lowe 1-rand  2-diag
   LASPH  =      T    aspherical Exc in radial PAW
 Electronic Relaxation 1
   ENCUT  =  520.0 eV  38.22 Ry    6.18 a.u.  18.05 18.05 18.05*2*pi/ulx,y,z
   ENINI  =  520.0     initial cutoff
   ENAUG  = 1041.7 eV  augmentation charge cutoff
   NELM   =    100;   NELMIN=  2; NELMDL=-10     # of ELM steps 
   EDIFF  = 0.1E-05   stopping-criterion for ELM
   LREAL  =      T    real-space projection
   NLSPLINE    = F    spline interpolate recip. space projectors
   LCOMPAT=      F    compatible to vasp.4.4
   GGA_COMPAT  = T    GGA compatible to vasp.4.4-vasp.4.6
   LMAXPAW     = -100 max onsite density
   LMAXMIX     =    4 max onsite mixed and CHGCAR
   VOSKOWN=      0    Vosko Wilk Nusair interpolation
   ROPT   =   -0.00025  -0.00025  -0.00025  -0.00025
 Ionic relaxation
   EDIFFG = -.1E-02   stopping-criterion for IOM
   NSW    =   1000    number of steps for IOM
   NBLOCK =      1;   KBLOCK =   1000    inner block; outer block 
   IBRION =      2    ionic relax: 0-MD 1-quasi-New 2-CG
   NFREE  =      1    steps in history (QN), initial steepest desc. (CG)
   ISIF   =      2    stress and relaxation
   IWAVPR =     11    prediction:  0-non 1-charg 2-wave 3-comb
   ISYM   =      2    0-nonsym 1-usesym 2-fastsym
   LCORR  =      T    Harris-Foulkes like correction to forces

   POTIM  = 0.2000    time-step for ionic-motion
   TEIN   =    0.0    initial temperature
   TEBEG  =    0.0;   TEEND  =   0.0 temperature during run
   SMASS  =  -3.00    Nose mass-parameter (am)
   estimated Nose-frequenzy (Omega)   =  0.10E-29 period in steps = 0.31E+47 mass=  -0.215E-26a.u.
   SCALEE = 1.0000    scale energy and forces
   NPACO  =    256;   APACO  = 10.0  distance and # of slots for P.C.
   PSTRESS=    0.0 pullay stress

  Mass of Ions in am
   POMASS =   7.01 30.97 32.07 35.45
  Ionic Valenz
   ZVAL   =   3.00  5.00  6.00  7.00
  Atomic Wigner-Seitz radii
   RWIGS  =  -1.00 -1.00 -1.00 -1.00
  virtual crystal weights 
   VCA    =   1.00  1.00  1.00  1.00
   NELECT =     240.0000    total number of electrons
   NUPDOWN=      -1.0000    fix difference up-down

 DOS related values:
   EMIN   =  10.00;   EMAX   =-10.00  energy-range for DOS
   EFERMI =   0.00;   METHOD = LEGACY      
   ISMEAR =     0;   SIGMA  =   0.03  broadening in eV -4-tet -1-fermi 0-gaus

 Electronic relaxation 2 (details)
   IALGO  =     68    algorithm
   LDIAG  =      T    sub-space diagonalisation (order eigenvalues)
   LSUBROT=      F    optimize rotation matrix (better conditioning)
   TURBO    =      0    0=normal 1=particle mesh
   IRESTART =      0    0=no restart 2=restart with 2 vectors
   NREBOOT  =      0    no. of reboots
   NMIN     =      0    reboot dimension
   EREF     =   0.00    reference energy to select bands
   IMIX   =      4    mixing-type and parameters
     AMIX     =   0.40;   BMIX     =  1.00
     AMIX_MAG =   1.60;   BMIX_MAG =  1.00
     AMIN     =   0.10
     WC   =   100.;   INIMIX=   1;  MIXPRE=   1;  MAXMIX= -45

 Intra band minimization:
   WEIMIN = 0.0010     energy-eigenvalue tresh-hold
   EBREAK =  0.14E-08  absolut break condition
   DEPER  =   0.30     relativ break condition  

   TIME   =   0.40     timestep for ELM

  volume/ion in A,a.u.               =      17.60       118.75
  Fermi-wavevector in a.u.,A,eV,Ry     =   1.047926  1.980293 14.941216  1.098148
  Thomas-Fermi vector in A             =   2.182826
 
 Write flags
   LWAVE        =      F    write WAVECAR
   LDOWNSAMPLE  =      F    k-point downsampling of WAVECAR
   LCHARG       =      F    write CHGCAR
   LVTOT        =      F    write LOCPOT, total local potential
   LVHAR        =      F    write LOCPOT, Hartree potential only
   LELF         =      F    write electronic localiz. function (ELF)
   LORBIT       =      0    0 simple, 1 ext, 2 COOP (PROOUT), +10 PAW based schemes


 Dipole corrections
   LMONO  =      F    monopole corrections only (constant potential shift)
   LDIPOL =      F    correct potential (dipole corrections)
   IDIPOL =      0    1-x, 2-y, 3-z, 4-all directions 
   EPSILON=  1.0000000 bulk dielectric constant

 Exchange correlation treatment:
   GGA     =    PE    GGA type
   LEXCH   =     8    internal setting for exchange type
   LIBXC   =     F    Libxc                    
   VOSKOWN =     0    Vosko Wilk Nusair interpolation
   LHFCALC =     F    Hartree Fock is set to
   LHFONE  =     F    Hartree Fock one center treatment
   AEXX    =    0.0000 exact exchange contribution

 Linear response parameters
   LEPSILON=     F    determine dielectric tensor
   LRPA    =     F    only Hartree local field effects (RPA)
   LNABLA  =     F    use nabla operator in PAW spheres
   LVEL    =     F    velocity operator in full k-point grid
   CSHIFT  =0.1000    complex shift for real part using Kramers Kronig
   OMEGAMAX=  -1.0    maximum frequency
   DEG_THRESHOLD= 0.2000000E-02 threshold for treating states as degnerate
   RTIME   =   -0.100 relaxation time in fs
  (WPLASMAI=    0.000 imaginary part of plasma frequency in eV, 0.658/RTIME)
   DFIELD  = 0.0000000 0.0000000 0.0000000 field for delta impulse in time
 
  Optional k-point grid parameters
   LKPOINTS_OPT  =     F    use optional k-point grid
   KPOINTS_OPT_MODE=     1    mode for optional k-point grid
 
 Orbital magnetization related:
   ORBITALMAG=     F  switch on orbital magnetization
   LCHIMAG   =     F  perturbation theory with respect to B field
   DQ        =  0.001000  dq finite difference perturbation B field
   LLRAUG    =     F  two centre corrections for induced B field
   LBONE     =     F  B-component reconstruction in AE one-centre
   LVGVCALC  =     T  calculate vGv susceptibility
   LVGVAPPL  =     F  apply vGv susceptibility instead of pGv for G=0

 Random number generation:
   RANDOM_GENERATOR = DEFAULT
   PCG_SEED         = not used


--------------------------------------------------------------------------------------------------------


 conjugate gradient relaxation of ions
 charge density and potential will be updated during run
 spin polarized calculation
 RMM-DIIS sequential band-by-band and
  variant of blocked Davidson during initial phase
 perform sub-space diagonalisation
    before iterative eigenvector-optimisation
 modified Broyden-mixing scheme, WC =      100.0
 initial mixing is a Kerker type mixing with AMIX =  0.4000 and BMIX =      1.0000
 Hartree-type preconditioning will be used
 using additional bands           56
 real space projection scheme for non local part
 use partial core corrections
 calculate Harris-corrections to forces 
   (improved forces if not selfconsistent)
 use gradient corrections 
 use of overlap-Matrix (Vanderbilt PP)
 Gauss-broadening in eV      SIGMA  =   0.03


--------------------------------------------------------------------------------------------------------


  energy-cutoff  :      520.00
  volume of cell :      915.05
      direct lattice vectors                 reciprocal lattice vectors
     9.708409024  0.000000000  0.000000000     0.103003489  0.000000000  0.000000000
     0.000000000  9.708409024  0.000000000     0.000000000  0.103003489  0.000000000
     0.000000000  0.000000000  9.708409024     0.000000000  0.000000000  0.103003489

  length of vectors
     9.708409024  9.708409024  9.708409024     0.103003489  0.103003489  0.103003489


 
 k-points in units of 2pi/SCALE and weight: Automatic mesh                          
   0.02575087  0.02575087  0.02575087       0.250
  -0.02575087  0.02575087  0.02575087       0.250
  -0.02575087 -0.02575087  0.02575087       0.500
 
 k-points in reciprocal lattice and weights: Automatic mesh                          
   0.25000000  0.25000000  0.25000000       0.250
  -0.25000000  0.25000000  0.25000000       0.250
  -0.25000000 -0.25000000  0.25000000       0.500
 
 position of ions in fractional coordinates (direct lattice) 
   0.98300952  0.28500296  0.29711811
   0.98300952  0.79711811  0.78500296
   0.02596897  0.26567788  0.76567788
   0.02669526  0.73399359  0.23399359
   0.30705134  0.28741383  0.97367904
   0.31008970  0.70077533  0.00911431
   0.67167576  0.31661924  0.03979062
   0.79025604  0.80169307  0.97447326
   0.18680140  0.96171060  0.16786592
   0.19720708  0.01920023  0.80509973
   0.72747642  0.98340473  0.70325723
   0.82694678  0.03206224  0.17439980
   0.18680140  0.66786592  0.46171060
   0.19720708  0.30509973  0.51920023
   0.82694678  0.67439980  0.53206224
   0.72747642  0.20325723  0.48340473
   0.30705134  0.47367904  0.78741383
   0.31008970  0.50911431  0.20077533
   0.79025604  0.47447326  0.30169307
   0.67167576  0.53979062  0.81661924
   0.47392815  0.18272663  0.68272663
   0.47191877  0.82154677  0.32154677
   0.52721407  0.16578009  0.30231513
   0.52721407  0.80231513  0.66578009
   0.50600838  0.49469868  0.49696109
   0.50600838  0.99696109  0.99469868
   0.99235352  0.49502474  0.99502474
   0.01742991  0.99147387  0.49147387
   0.13861715  0.86678260  0.61072494
   0.13861715  0.11072494  0.36678260
   0.88461250  0.87535830  0.37535830
   0.90611259  0.11964619  0.61964619
   0.86326716  0.61379837  0.11379837
   0.85708945  0.38059635  0.88059635
   0.11734145  0.61164310  0.87024604
   0.11734145  0.37024604  0.11164310
   0.62714488  0.12615221  0.88029486
   0.62349358  0.88239243  0.12761781
   0.37585165  0.11006232  0.11787367
   0.39069583  0.87711983  0.86375785
   0.62349358  0.62761781  0.38239243
   0.62714488  0.38029486  0.62615221
   0.37585165  0.61787367  0.61006232
   0.39069583  0.36375785  0.37711983
   0.75107364  0.75347799  0.74561717
   0.75107364  0.24561717  0.25347799
   0.25984467  0.74060594  0.24060594
   0.25470398  0.24537500  0.74537500
   0.00167998  0.96085989  0.99184917
   0.00167998  0.49184917  0.46085989
   0.54250790  0.01193585  0.51193585
   0.46734188  0.48626323  0.98626323
 
 position of ions in cartesian coordinates  (Angst):
   9.54345850  2.76692529  2.88454412
   9.54345850  7.73874863  7.62112980
   0.25211734  2.57930956  7.43351407
   0.25916853  7.12591001  2.27170549
   2.98097995  2.79033099  9.45287434
   3.01047765  6.80341355  0.08848544
   6.52090300  3.07386908  0.38630361
   7.67212885  7.78316422  9.46058498
   1.81354439  9.33667986  1.62971101
   1.91456701  0.18640370  7.81623745
   7.06263869  9.54729540  6.82750880
   8.02833754  0.31127332  1.69314461
   1.81354439  6.48391552  4.48247535
   1.91456701  2.96203294  5.04060821
   8.02833754  6.54734912  5.16547783
   7.06263869  1.97330428  4.69309089
   2.98097995  4.59866983  7.64453550
   3.01047765  4.94268995  1.94920904
   7.67212885  4.60638047  2.92895971
   6.52090300  5.24050812  7.92807359
   4.60108835  1.77398488  6.62818940
   4.58158049  7.97591206  3.12170755
   5.11840980  1.60946087  2.93499891
   5.11840980  7.78920342  6.46366539
   4.91253631  4.80273712  4.82470153
   4.91253631  9.67890604  9.65694164
   9.63417391  4.80590262  9.66010713
   0.16921668  9.62563382  4.77142931
   1.34575195  8.41508005  5.92916750
   1.34575195  1.07496299  3.56087553
   8.58817995  8.49833646  3.64413194
   8.79691165  1.16157412  6.01577863
   8.38095066  5.95900559  1.10480108
   8.32097495  3.69498503  8.54918954
   1.13919882  5.93808135  8.44870448
   1.13919882  3.59449997  1.08387683
   6.08857897  1.22473725  8.54626257
   6.05313069  8.56662665  1.23896589
   3.64892154  1.06853006  1.14436580
   3.79303495  8.51543804  8.38571453
   6.05313069  6.09317040  3.71242214
   6.08857897  3.69205806  6.07894176
   3.64892154  5.99857032  5.92273457
   3.79303495  3.53151002  3.66123353
   7.29173009  7.31507247  7.23875645
   7.29173009  2.38455194  2.46086796
   2.52267832  7.19010544  2.33590092
   2.47277042  2.38220084  7.23640535
   0.01630993  9.32842086  9.62927747
   0.01630993  4.77507296  4.47421635
   5.26688862  0.11587811  4.97008262
   4.53714610  4.72084229  9.57504680
 


--------------------------------------------------------------------------------------------------------


 k-point   1 :   0.2500 0.2500 0.2500  plane waves:   24645
 k-point   2 :  -0.2500 0.2500 0.2500  plane waves:   24645
 k-point   3 :  -0.2500-0.2500 0.2500  plane waves:   24645

 maximum and minimum number of plane-waves per node :       788      753

 maximum number of plane-waves:     24645
 maximum index in each direction: 
   IXMAX=   18   IYMAX=   18   IZMAX=   17
   IXMIN=  -18   IYMIN=  -18   IZMIN=  -18


 real space projection operators:
  total allocation   :      27928.16 KBytes
  max/ min on nodes  :       1163.42        726.09


 parallel 3D FFT for wavefunctions:
    minimum data exchange during FFTs selected (reduces bandwidth)
 parallel 3D FFT for charge:
    minimum data exchange during FFTs selected (reduces bandwidth)


 total amount of memory used by VASP MPI-rank0    46897. kBytes
=======================================================================

   base      :      30000. kBytes
   nonlr-proj:       6398. kBytes
   fftplans  :       1747. kBytes
   grid      :       5278. kBytes
   one-center:         62. kBytes
   wavefun   :       3412. kBytes
 
     INWAV:  cpu time      0.0000: real time      0.0000
 Broyden mixing: mesh for mixing (old mesh)
   NGX = 37   NGY = 37   NGZ = 37
  (NGX  =144   NGY  =144   NGZ  =144)
  gives a total of  50653 points

 initial charge density was supplied:
 charge density of overlapping atoms calculated
 number of electron     240.0000000 magnetization      52.0000000
 keeping initial charge density in first step


--------------------------------------------------------------------------------------------------------


 Maximum index for non-local projection operator          606
 Maximum index for augmentation-charges          883 (set IRDMAX)


--------------------------------------------------------------------------------------------------------


 First call to EWALD:  gamma=   0.183
 Maximum number of real-space cells 3x 3x 3
 Maximum number of reciprocal cells 3x 3x 3

    FEWALD:  cpu time      0.0029: real time      0.0036


--------------------------------------- Ionic step        1  -------------------------------------------




--------------------------------------- Iteration      1(   1)  ---------------------------------------


    POTLOK:  cpu time      0.0580: real time      0.0666
    SETDIJ:  cpu time      0.4116: real time      0.4194
     EDDAV:  cpu time      1.6946: real time      1.7940
       DOS:  cpu time      0.0018: real time      0.0039
    --------------------------------------------
      LOOP:  cpu time      2.1660: real time      2.2840

 eigenvalue-minimisations  :  2320
 total energy-change (2. order) : 0.1583912E+04  (-0.1130463E+05)
 number of electron     240.0000000 magnetization      52.0000000
 augmentation part      240.0000000 magnetization      52.0000000

 Free energy of the ion-electron system (eV)
  ---------------------------------------------------
  alpha Z        PSCENC =       296.65908656
  Ewald energy   TEWEN  =     -8722.84265223
  -Hartree energ DENC   =     -2165.31791908
  -exchange      EXHF   =         0.00000000
  -V(xc)+E(xc)   XCENC  =       533.66561361
  PAW double counting   =      8141.38806575    -8271.61346273
  entropy T*S    EENTRO =        -0.00544975
  eigenvalues    EBANDS =      -931.16086942
  atomic energy  EATOM  =     12703.13999606
  Solvation  Ediel_sol  =         0.00000000
  ---------------------------------------------------
  free energy    TOTEN  =      1583.91240877 eV

  energy without entropy =     1583.91785852  energy(sigma->0) =     1583.91513364


--------------------------------------------------------------------------------------------------------




--------------------------------------- Iteration      1(   2)  ---------------------------------------


     EDDAV:  cpu time      1.9759: real time      2.0037
       DOS:  cpu time      0.0004: real time      0.0004
    --------------------------------------------
      LOOP:  cpu time      1.9763: real time      2.0041

 eigenvalue-minimisations  :  2904
 total energy-change (2. order) :-0.1641129E+04  (-0.1544859E+04)
 number of electron     240.0000000 magnetization      52.0000000
 augmentation part      240.0000000 magnetization      52.0000000

 Free energy of the ion-electron system (eV)
  ---------------------------------------------------
  alpha Z        PSCENC =       296.65908656
  Ewald energy   TEWEN  =     -8722.84265223
  -Hartree energ DENC   =     -2165.31791908
  -exchange      EXHF   =         0.00000000
  -V(xc)+E(xc)   XCENC  =       533.66561361
  PAW double counting   =      8141.38806575    -8271.61346273
  entropy T*S    EENTRO =        -0.00000000
  eigenvalues    EBANDS =     -2572.29545633
  atomic energy  EATOM  =     12703.13999606
  Solvation  Ediel_sol  =         0.00000000
  ---------------------------------------------------
  free energy    TOTEN  =       -57.21672839 eV

  energy without entropy =      -57.21672839  energy(sigma->0) =      -57.21672839


--------------------------------------------------------------------------------------------------------




--------------------------------------- Iteration      1(   3)  ---------------------------------------


     EDDAV:  cpu time      1.9404: real time      1.9695
       DOS:  cpu time      0.0004: real time      0.0004
    --------------------------------------------
      LOOP:  cpu time      1.9408: real time      1.9699

 eigenvalue-minimisations  :  2848
 total energy-change (2. order) :-0.1721229E+03  (-0.1701587E+03)
 number of electron     240.0000000 magnetization      52.0000000
 augmentation part      240.0000000 magnetization      52.0000000

 Free energy of the ion-electron system (eV)
  ---------------------------------------------------
  alpha Z        PSCENC =       296.65908656
  Ewald energy   TEWEN  =     -8722.84265223
  -Hartree energ DENC   =     -2165.31791908
  -exchange      EXHF   =         0.00000000
  -V(xc)+E(xc)   XCENC  =       533.66561361
  PAW double counting   =      8141.38806575    -8271.61346273
  entropy T*S    EENTRO =        -0.00000000
  eigenvalues    EBANDS =     -2744.41831458
  atomic energy  EATOM  =     12703.13999606
  Solvation  Ediel_sol  =         0.00000000
  ---------------------------------------------------
  free energy    TOTEN  =      -229.33958664 eV

  energy without entropy =     -229.33958664  energy(sigma->0) =     -229.33958664


--------------------------------------------------------------------------------------------------------




--------------------------------------- Iteration      1(   4)  ---------------------------------------


     EDDAV:  cpu time      2.3329: real time      2.4106
       DOS:  cpu time      0.0004: real time      0.0004
    --------------------------------------------
      LOOP:  cpu time      2.3332: real time      2.4110

 eigenvalue-minimisations  :  3560
 total energy-change (2. order) :-0.1282967E+02  (-0.1280652E+02)
 number of electron     240.0000000 magnetization      52.0000000
 augmentation part      240.0000000 magnetization      52.0000000

 Free energy of the ion-electron system (eV)
  ---------------------------------------------------
  alpha Z        PSCENC =       296.65908656
  Ewald energy   TEWEN  =     -8722.84265223
  -Hartree energ DENC   =     -2165.31791908
  -exchange      EXHF   =         0.00000000
  -V(xc)+E(xc)   XCENC  =       533.66561361
  PAW double counting   =      8141.38806575    -8271.61346273
  entropy T*S    EENTRO =        -0.00000000
  eigenvalues    EBANDS =     -2757.24798698
  atomic energy  EATOM  =     12703.13999606
  Solvation  Ediel_sol  =         0.00000000
  ---------------------------------------------------
  free energy    TOTEN  =      -242.16925904 eV

  energy without entropy =     -242.16925904  energy(sigma->0) =     -242.16925904


--------------------------------------------------------------------------------------------------------




--------------------------------------- Iteration      1(   5)  ---------------------------------------


     EDDAV:  cpu time      2.2250: real time      2.2799
       DOS:  cpu time      0.0004: real time      0.0004
    --------------------------------------------
      LOOP:  cpu time      2.2254: real time      2.2803

 eigenvalue-minimisations  :  3368
 total energy-change (2. order) :-0.2259958E+00  (-0.2258952E+00)
 number of electron     240.0000000 magnetization      52.0000000
 augmentation part      240.0000000 magnetization      52.0000000

 Free energy of the ion-electron system (eV)
  ---------------------------------------------------
  alpha Z        PSCENC =       296.65908656
  Ewald energy   TEWEN  =     -8722.84265223
  -Hartree energ DENC   =     -2165.31791908
  -exchange      EXHF   =         0.00000000
  -V(xc)+E(xc)   XCENC  =       533.66561361
  PAW double counting   =      8141.38806575    -8271.61346273
  entropy T*S    EENTRO =        -0.00000000
  eigenvalues    EBANDS =     -2757.47398281
  atomic energy  EATOM  =     12703.13999606
  Solvation  Ediel_sol  =         0.00000000
  ---------------------------------------------------
  free energy    TOTEN  =      -242.39525488 eV

  energy without entropy =     -242.39525488  energy(sigma->0) =     -242.39525488


--------------------------------------------------------------------------------------------------------




--------------------------------------- Iteration      1(   6)  ---------------------------------------


     EDDAV:  cpu time      2.2801: real time      2.3041
       DOS:  cpu time      0.0005: real time      0.0006
    --------------------------------------------
      LOOP:  cpu time      2.2806: real time      2.3047

 eigenvalue-minimisations  :  3464
 total energy-change (2. order) :-0.1003374E-01  (-0.1003255E-01)
 number of electron     240.0000000 magnetization      52.0000000
 augmentation part      240.0000000 magnetization      52.0000000

 Free energy of the ion-electron system (eV)
  ---------------------------------------------------
  alpha Z        PSCENC =       296.65908656
  Ewald energy   TEWEN  =     -8722.84265223
  -Hartree energ DENC   =     -2165.31791908
  -exchange      EXHF   =         0.00000000
  -V(xc)+E(xc)   XCENC  =       533.66561361
  PAW double counting   =      8141.38806575    -8271.61346273
  entropy T*S    EENTRO =        -0.00000000
  eigenvalues    EBANDS =     -2757.48401655
  atomic energy  EATOM  =     12703.13999606
  Solvation  Ediel_sol  =         0.00000000
  ---------------------------------------------------
  free energy    TOTEN  =      -242.40528862 eV

  energy without entropy =     -242.40528862  energy(sigma->0) =     -242.40528862


--------------------------------------------------------------------------------------------------------




--------------------------------------- Iteration      1(   7)  ---------------------------------------


     EDDAV:  cpu time      2.2595: real time      2.2841
       DOS:  cpu time      0.0004: real time      0.0004
    --------------------------------------------
      LOOP:  cpu time      2.2599: real time      2.2844

 eigenvalue-minimisations  :  3424
 total energy-change (2. order) :-0.3901933E-03  (-0.3901685E-03)
 number of electron     240.0000000 magnetization      52.0000000
 augmentation part      240.0000000 magnetization      52.0000000

 Free energy of the ion-electron system (eV)
  ---------------------------------------------------
  alpha Z        PSCENC =       296.65908656
  Ewald energy   TEWEN  =     -8722.84265223
  -Hartree energ DENC   =     -2165.31791908
  -exchange      EXHF   =         0.00000000
  -V(xc)+E(xc)   XCENC  =       533.66561361
  PAW double counting   =      8141.38806575    -8271.61346273
  entropy T*S    EENTRO =        -0.00000000
  eigenvalues    EBANDS =     -2757.48440675
  atomic energy  EATOM  =     12703.13999606
  Solvation  Ediel_sol  =         0.00000000
  ---------------------------------------------------
  free energy    TOTEN  =      -242.40567881 eV

  energy without entropy =     -242.40567881  energy(sigma->0) =     -242.40567881


--------------------------------------------------------------------------------------------------------




--------------------------------------- Iteration      1(   8)  ---------------------------------------


     EDDAV:  cpu time      2.2518: real time      2.2769
       DOS:  cpu time      0.0003: real time      0.0004
    --------------------------------------------
      LOOP:  cpu time      2.2521: real time      2.2772

 eigenvalue-minimisations  :  3408
 total energy-change (2. order) :-0.2393387E-04  (-0.2393313E-04)
 number of electron     240.0000000 magnetization      52.0000000
 augmentation part      240.0000000 magnetization      52.0000000

 Free energy of the ion-electron system (eV)
  ---------------------------------------------------
  alpha Z        PSCENC =       296.65908656
  Ewald energy   TEWEN  =     -8722.84265223
  -Hartree energ DENC   =     -2165.31791908
  -exchange      EXHF   =         0.00000000
  -V(xc)+E(xc)   XCENC  =       533.66561361
  PAW double counting   =      8141.38806575    -8271.61346273
  entropy T*S    EENTRO =        -0.00000000
  eigenvalues    EBANDS =     -2757.48443068
  atomic energy  EATOM  =     12703.13999606
  Solvation  Ediel_sol  =         0.00000000
  ---------------------------------------------------
  free energy    TOTEN  =      -242.40570274 eV

  energy without entropy =     -242.40570274  energy(sigma->0) =     -242.40570274


--------------------------------------------------------------------------------------------------------




--------------------------------------- Iteration      1(   9)  ---------------------------------------


     EDDAV:  cpu time      2.2236: real time      2.2457
       DOS:  cpu time      0.0004: real time      0.0004
    --------------------------------------------
      LOOP:  cpu time      2.2240: real time      2.2462

 eigenvalue-minimisations  :  3360
 total energy-change (2. order) :-0.1602624E-05  (-0.1602795E-05)
 number of electron     240.0000000 magnetization      52.0000000
 augmentation part      240.0000000 magnetization      52.0000000

 Free energy of the ion-electron system (eV)
  ---------------------------------------------------
  alpha Z        PSCENC =       296.65908656
  Ewald energy   TEWEN  =     -8722.84265223
  -Hartree energ DENC   =     -2165.31791908
  -exchange      EXHF   =         0.00000000
  -V(xc)+E(xc)   XCENC  =       533.66561361
  PAW double counting   =      8141.38806575    -8271.61346273
  entropy T*S    EENTRO =        -0.00000000
  eigenvalues    EBANDS =     -2757.48443228
  atomic energy  EATOM  =     12703.13999606
  Solvation  Ediel_sol  =         0.00000000
  ---------------------------------------------------
  free energy    TOTEN  =      -242.40570435 eV

  energy without entropy =     -242.40570435  energy(sigma->0) =     -242.40570435


--------------------------------------------------------------------------------------------------------




--------------------------------------- Iteration      1(  10)  ---------------------------------------


     EDDAV:  cpu time      1.4822: real time      1.5096
       DOS:  cpu time      0.0004: real time      0.0004
    CHARGE:  cpu time      0.1354: real time      0.1641
    MIXING:  cpu time      0.0018: real time      0.0032
    --------------------------------------------
      LOOP:  cpu time      1.6197: real time      1.6773

 eigenvalue-minimisations  :  1976
 total energy-change (2. order) :-0.7544440E-07  (-0.7529621E-07)
 number of electron     240.0000011 magnetization      27.4388359
 augmentation part        1.4956494 magnetization      27.8800653

 Broyden mixing:
  rms(total) = 0.64915E+01    rms(broyden)= 0.64913E+01
  rms(prec ) = 0.67394E+01
  weight for this iteration     100.00

 Free energy of the ion-electron system (eV)
  ---------------------------------------------------
  alpha Z        PSCENC =       296.65908656
  Ewald energy   TEWEN  =     -8722.84265223
  -Hartree energ DENC   =     -2165.31791908
  -exchange      EXHF   =         0.00000000
  -V(xc)+E(xc)   XCENC  =       533.66561361
  PAW double counting   =      8141.38806575    -8271.61346273
  entropy T*S    EENTRO =        -0.00000000
  eigenvalues    EBANDS =     -2757.48443236
  atomic energy  EATOM  =     12703.13999606
  Solvation  Ediel_sol  =         0.00000000
  ---------------------------------------------------
  free energy    TOTEN  =      -242.40570442 eV

  energy without entropy =     -242.40570442  energy(sigma->0) =     -242.40570442


--------------------------------------------------------------------------------------------------------




--------------------------------------- Iteration      1(  11)  ---------------------------------------


    POTLOK:  cpu time      0.0590: real time      0.0601
    SETDIJ:  cpu time      0.3957: real time      0.3987
    EDDIAG:  cpu time      0.2806: real time      0.2832
  RMM-DIIS:  cpu time      0.8701: real time      0.8803
    ORTHCH:  cpu time      0.0520: real time      0.0523
       DOS:  cpu time      0.0005: real time      0.0005
    CHARGE:  cpu time      0.1187: real time      0.1469
    MIXING:  cpu time      0.0010: real time      0.0021
    --------------------------------------------
      LOOP:  cpu time      1.7776: real time      1.8243

 eigenvalue-minimisations  :  2112
 total energy-change (2. order) : 0.7289067E+01  (-0.4932698E+01)
 number of electron     240.0000011 magnetization      16.4322858
 augmentation part        1.7015584 magnetization      16.6197117

 Broyden mixing:
  rms(total) = 0.33284E+01    rms(broyden)= 0.33283E+01
  rms(prec ) = 0.34483E+01
  weight for this iteration     100.00

 eigenvalues of (default mixing * dielectric matrix)
  average eigenvalue GAMMA=   0.7270
  0.7270

 Free energy of the ion-electron system (eV)
  ---------------------------------------------------
  alpha Z        PSCENC =       296.65908656
  Ewald energy   TEWEN  =     -8722.84265223
  -Hartree energ DENC   =     -2216.19760210
  -exchange      EXHF   =         0.00000000
  -V(xc)+E(xc)   XCENC  =       542.37742097
  PAW double counting   =      8937.93503018    -9074.32590879
  entropy T*S    EENTRO =        -0.00000000
  eigenvalues    EBANDS =     -2701.86200783
  atomic energy  EATOM  =     12703.13999606
  Solvation  Ediel_sol  =         0.00000000
  ---------------------------------------------------
  free energy    TOTEN  =      -235.11663717 eV

  energy without entropy =     -235.11663717  energy(sigma->0) =     -235.11663717


--------------------------------------------------------------------------------------------------------




--------------------------------------- Iteration      1(  12)  ---------------------------------------


    POTLOK:  cpu time      0.0531: real time      0.0543
    SETDIJ:  cpu time      0.4084: real time      0.4103
    EDDIAG:  cpu time      0.2708: real time      0.2727
  RMM-DIIS:  cpu time      0.9162: real time      0.9264
    ORTHCH:  cpu time      0.0515: real time      0.0531
       DOS:  cpu time      0.0005: real time      0.0005
    CHARGE:  cpu time      0.1233: real time      0.1534
    MIXING:  cpu time      0.0016: real time      0.0016
    --------------------------------------------
      LOOP:  cpu time      1.8254: real time      1.8723

 eigenvalue-minimisations  :  2220
 total energy-change (2. order) :-0.2076971E+02  (-0.2364633E+01)
 number of electron     240.0000011 magnetization       0.9078787
 augmentation part        1.8082054 magnetization       1.2532292

 Broyden mixing:
  rms(total) = 0.20624E+01    rms(broyden)= 0.20624E+01
  rms(prec ) = 0.21243E+01
  weight for this iteration     100.00

 eigenvalues of (default mixing * dielectric matrix)
  average eigenvalue GAMMA=   1.1305
  1.5922  0.6688

 Free energy of the ion-electron system (eV)
  ---------------------------------------------------
  alpha Z        PSCENC =       296.65908656
  Ewald energy   TEWEN  =     -8722.84265223
  -Hartree energ DENC   =     -2242.67557557
  -exchange      EXHF   =         0.00000000
  -V(xc)+E(xc)   XCENC  =       535.95245571
  PAW double counting   =      9299.79901844    -9439.86686188
  entropy T*S    EENTRO =        -0.00000000
  eigenvalues    EBANDS =     -2686.05181102
  atomic energy  EATOM  =     12703.13999606
  Solvation  Ediel_sol  =         0.00000000
  ---------------------------------------------------
  free energy    TOTEN  =      -255.88634394 eV

  energy without entropy =     -255.88634394  energy(sigma->0) =     -255.88634394


--------------------------------------------------------------------------------------------------------




--------------------------------------- Iteration      1(  13)  ---------------------------------------


    POTLOK:  cpu time      0.0525: real time      0.0536
    SETDIJ:  cpu time      0.4083: real time      0.4100
    EDDIAG:  cpu time      0.2703: real time      0.2729
  RMM-DIIS:  cpu time      0.8983: real time      0.9086
    ORTHCH:  cpu time      0.0524: real time      0.0535
       DOS:  cpu time      0.0005: real time      0.0005
    CHARGE:  cpu time      0.1054: real time      0.1380
    MIXING:  cpu time      0.0012: real time      0.0012
    --------------------------------------------
      LOOP:  cpu time      1.7889: real time      1.8382

 eigenvalue-minimisations  :  2180
 total energy-change (2. order) :-0.2467969E+01  (-0.9128112E+00)
 number of electron     240.0000011 magnetization      -1.8056520
 augmentation part        1.9097525 magnetization      -1.6951366

 Broyden mixing:
  rms(total) = 0.70448E+00    rms(broyden)= 0.70448E+00
  rms(prec ) = 0.73759E+00
  weight for this iteration     100.00

 eigenvalues of (default mixing * dielectric matrix)
  average eigenvalue GAMMA=   1.3017
  2.5090  0.7443  0.6518

 Free energy of the ion-electron system (eV)
  ---------------------------------------------------
  alpha Z        PSCENC =       296.65908656
  Ewald energy   TEWEN  =     -8722.84265223
  -Hartree energ DENC   =     -2272.06188425
  -exchange      EXHF   =         0.00000000
  -V(xc)+E(xc)   XCENC  =       537.42909641
  PAW double counting   =      9795.45396769    -9939.40308367
  entropy T*S    EENTRO =        -0.00000000
  eigenvalues    EBANDS =     -2656.72883932
  atomic energy  EATOM  =     12703.13999606
  Solvation  Ediel_sol  =         0.00000000
  ---------------------------------------------------
  free energy    TOTEN  =      -258.35431273 eV

  energy without entropy =     -258.35431273  energy(sigma->0) =     -258.35431273


--------------------------------------------------------------------------------------------------------




--------------------------------------- Iteration      1(  14)  ---------------------------------------


    POTLOK:  cpu time      0.0529: real time      0.0540
    SETDIJ:  cpu time      0.4071: real time      0.4090
    EDDIAG:  cpu time      0.2684: real time      0.2702
  RMM-DIIS:  cpu time      1.1643: real time      1.1775
    ORTHCH:  cpu time      0.0539: real time      0.0553
       DOS:  cpu time      0.0006: real time      0.0006
    CHARGE:  cpu time      0.1089: real time      0.1275
    MIXING:  cpu time      0.0012: real time      0.0013
    --------------------------------------------
      LOOP:  cpu time      2.0573: real time      2.0953

 eigenvalue-minimisations  :  2806
 total energy-change (2. order) :-0.2056056E+00  (-0.2111404E+00)
 number of electron     240.0000011 magnetization      -0.8367362
 augmentation part        1.8842896 magnetization      -0.8098577

 Broyden mixing:
  rms(total) = 0.32607E+00    rms(broyden)= 0.32607E+00
  rms(prec ) = 0.36333E+00
  weight for this iteration     100.00

 eigenvalues of (default mixing * dielectric matrix)
  average eigenvalue GAMMA=   1.2704
  2.6165  1.1783  0.6911  0.5955

 Free energy of the ion-electron system (eV)
  ---------------------------------------------------
  alpha Z        PSCENC =       296.65908656
  Ewald energy   TEWEN  =     -8722.84265223
  -Hartree energ DENC   =     -2274.74300856
  -exchange      EXHF   =         0.00000000
  -V(xc)+E(xc)   XCENC  =       537.96316989
  PAW double counting   =      9880.67508317   -10025.47459559
  entropy T*S    EENTRO =        -0.00000000
  eigenvalues    EBANDS =     -2653.93699759
  atomic energy  EATOM  =     12703.13999606
  Solvation  Ediel_sol  =         0.00000000
  ---------------------------------------------------
  free energy    TOTEN  =      -258.55991829 eV

  energy without entropy =     -258.55991829  energy(sigma->0) =     -258.55991829


--------------------------------------------------------------------------------------------------------




--------------------------------------- Iteration      1(  15)  ---------------------------------------


    POTLOK:  cpu time      0.0535: real time      0.0546
    SETDIJ:  cpu time      0.4062: real time      0.4078
    EDDIAG:  cpu time      0.2713: real time      0.2738
  RMM-DIIS:  cpu time      0.9492: real time      0.9601
    ORTHCH:  cpu time      0.0529: real time      0.0538
       DOS:  cpu time      0.0005: real time      0.0005
    CHARGE:  cpu time      0.1104: real time      0.1420
    MIXING:  cpu time      0.0013: real time      0.0013
    --------------------------------------------
      LOOP:  cpu time      1.8452: real time      1.8939

 eigenvalue-minimisations  :  2280
 total energy-change (2. order) : 0.3614976E-01  (-0.3495794E-01)
 number of electron     240.0000011 magnetization      -0.2167977
 augmentation part        1.8355796 magnetization      -0.1907627

 Broyden mixing:
  rms(total) = 0.69893E-01    rms(broyden)= 0.69891E-01
  rms(prec ) = 0.83477E-01
  weight for this iteration     100.00

 eigenvalues of (default mixing * dielectric matrix)
  average eigenvalue GAMMA=   1.2755
  2.5276  1.6012  0.9585  0.6862  0.6039

 Free energy of the ion-electron system (eV)
  ---------------------------------------------------
  alpha Z        PSCENC =       296.65908656
  Ewald energy   TEWEN  =     -8722.84265223
  -Hartree energ DENC   =     -2270.21966735
  -exchange      EXHF   =         0.00000000
  -V(xc)+E(xc)   XCENC  =       537.60634633
  PAW double counting   =      9849.47637186    -9994.06951603
  entropy T*S    EENTRO =        -0.00000000
  eigenvalues    EBANDS =     -2658.27373373
  atomic energy  EATOM  =     12703.13999606
  Solvation  Ediel_sol  =         0.00000000
  ---------------------------------------------------
  free energy    TOTEN  =      -258.52376853 eV

  energy without entropy =     -258.52376853  energy(sigma->0) =     -258.52376853


--------------------------------------------------------------------------------------------------------




--------------------------------------- Iteration      1(  16)  ---------------------------------------


    POTLOK:  cpu time      0.0520: real time      0.0531
    SETDIJ:  cpu time      0.4075: real time      0.4089
    EDDIAG:  cpu time      0.2706: real time      0.2733
  RMM-DIIS:  cpu time      0.9599: real time      0.9717
    ORTHCH:  cpu time      0.0524: real time      0.0536
       DOS:  cpu time      0.0004: real time      0.0004
    CHARGE:  cpu time      0.1172: real time      0.1411
    MIXING:  cpu time      0.0016: real time      0.0016
    --------------------------------------------
      LOOP:  cpu time      1.8616: real time      1.9037

 eigenvalue-minimisations  :  2311
 total energy-change (2. order) :-0.2043586E-01  (-0.1151338E-01)
 number of electron     240.0000011 magnetization      -0.1026005
 augmentation part        1.8130121 magnetization      -0.0880765

 Broyden mixing:
  rms(total) = 0.31438E-01    rms(broyden)= 0.31437E-01
  rms(prec ) = 0.38414E-01
  weight for this iteration     100.00

 eigenvalues of (default mixing * dielectric matrix)
  average eigenvalue GAMMA=   1.2512
  2.4370  1.9596  1.0437  0.6216  0.6996  0.7460

 Free energy of the ion-electron system (eV)
  ---------------------------------------------------
  alpha Z        PSCENC =       296.65908656
  Ewald energy   TEWEN  =     -8722.84265223
  -Hartree energ DENC   =     -2269.68758501
  -exchange      EXHF   =         0.00000000
  -V(xc)+E(xc)   XCENC  =       537.52700210
  PAW double counting   =      9836.95273571    -9981.30647904
  entropy T*S    EENTRO =        -0.00000000
  eigenvalues    EBANDS =     -2658.98630854
  atomic energy  EATOM  =     12703.13999606
  Solvation  Ediel_sol  =         0.00000000
[...]
 -0.004   0.003   0.000  -0.001   0.004   0.000  -0.000   0.000   0.000  -0.000   0.000  -0.000   0.000  -0.000
 -0.001   0.001   0.000  -0.000   0.000   0.007  -0.000   0.000   0.000  -0.000  -0.000   0.000  -0.000  -0.000
 -0.005   0.005   0.000   0.006  -0.005  -0.005   0.000  -0.000  -0.000   0.000   0.000   0.000  -0.000   0.000
 -0.012   0.012   0.000   0.003   0.004  -0.005   0.000   0.000  -0.000   0.000   0.000  -0.000   0.000  -0.000
 -0.016   0.016   0.000   0.005  -0.003   0.005   0.000  -0.000   0.000   0.000  -0.000   0.000  -0.000  -0.000
  0.002  -0.002  -0.000  -0.005   0.005  -0.004  -0.000   0.000  -0.000  -0.000   0.000  -0.000   0.000   0.000
  0.021  -0.021  -0.000  -0.001  -0.004  -0.009  -0.000  -0.000  -0.000   0.000  -0.000  -0.000   0.000   0.000
 total augmentation occupancy for first ion, spin component:           2
 -0.000   0.000   0.000   0.000  -0.000  -0.000  -0.000   0.000   0.000   0.000   0.000   0.000  -0.000   0.000
  0.000  -0.000  -0.000  -0.000   0.000   0.000   0.000  -0.000  -0.000  -0.000  -0.000  -0.000   0.000  -0.000
  0.000  -0.000  -0.000   0.000  -0.000   0.000   0.000  -0.000   0.000   0.000  -0.000   0.000  -0.000   0.000
  0.000  -0.000   0.000  -0.000   0.000   0.000  -0.000   0.000   0.000  -0.000  -0.000   0.000   0.000  -0.000
 -0.000   0.000  -0.000   0.000  -0.000  -0.000   0.000   0.000  -0.000   0.000   0.000  -0.000   0.000   0.000
 -0.000   0.000   0.000   0.000  -0.000   0.000   0.000   0.000   0.000   0.000  -0.000   0.000  -0.000  -0.000
 -0.000   0.000   0.000  -0.000   0.000   0.000  -0.000   0.000   0.000  -0.000  -0.000  -0.000   0.000  -0.000
  0.000  -0.000  -0.000   0.000   0.000   0.000   0.000   0.000  -0.000  -0.000   0.000  -0.000  -0.000  -0.000
  0.000  -0.000   0.000   0.000  -0.000   0.000   0.000  -0.000   0.000   0.000  -0.000   0.000  -0.000  -0.000
  0.000  -0.000   0.000  -0.000   0.000   0.000  -0.000  -0.000   0.000  -0.000  -0.000  -0.000   0.000  -0.000
  0.000  -0.000  -0.000  -0.000   0.000  -0.000  -0.000   0.000  -0.000  -0.000   0.000  -0.000   0.000   0.000
  0.000  -0.000   0.000   0.000  -0.000   0.000  -0.000  -0.000   0.000  -0.000  -0.000   0.000  -0.000  -0.000
 -0.000   0.000  -0.000   0.000   0.000  -0.000   0.000  -0.000  -0.000   0.000   0.000  -0.000   0.000   0.000
  0.000  -0.000   0.000  -0.000   0.000  -0.000  -0.000  -0.000  -0.000  -0.000   0.000  -0.000   0.000  -0.000


------------------------ aborting loop because EDIFF is reached ----------------------------------------


    CHARGE:  cpu time      0.0998: real time      0.1034
    FORLOC:  cpu time      0.0037: real time      0.0037
    FORNL :  cpu time      0.3034: real time      0.3057
    STRESS:  cpu time      0.9031: real time      0.9102
    FORCOR:  cpu time      0.0501: real time      0.0505
    FORHAR:  cpu time      0.0084: real time      0.0085
    MIXING:  cpu time      0.0007: real time      0.0007
    OFIELD:  cpu time      0.0000: real time      0.0000

 ---------------------------------------------------------------------------------------------

         DFTD3 V3.0 Rev 1        
 Edisp (eV)  -13.35533

 E6    (eV) :    -8.2317
 E8    (eV) :    -5.1236
 % E8        : 38.36
    FORVDW:  cpu time      0.2839: real time      0.2863

  FORCE on cell =-STRESS in cart. coord.  units (eV):
  Direction    XX          YY          ZZ          XY          YZ          ZX
  --------------------------------------------------------------------------------------
  Alpha Z   296.65909   296.65909   296.65909
  Ewald   -2881.85989 -2920.63982 -2920.63982   -19.25449    25.10983   -19.25449
  Hartree   762.99016   754.66349   754.66349   -14.16158    13.95532   -14.16158
  E(xc)    -947.58238  -947.79494  -947.79494    -0.00226     0.07060    -0.00226
  Local   -1582.26649 -1538.95705 -1538.95705    34.18534   -39.61698    34.18534
  n-local  1481.53500  1481.06001  1481.11015    -0.83093     0.06140     0.21159
  augment  -356.41338  -356.83871  -356.83871     0.11695     0.01577     0.11686
  Kinetic  3239.59830  3246.68439  3246.68809    -2.07488    -0.20663    -0.54647
  Fock        0.00000     0.00000     0.00000     0.00000     0.00000     0.00000
  vdW       -14.15605   -14.15687   -14.15687     0.01549     0.01011     0.01549
  -------------------------------------------------------------------------------------
  Total      -1.49563     0.70650     0.70650    -0.72098    -0.60055    -0.72098
  in kB      -2.61873     1.23703     1.23703    -1.26237    -1.05152    -1.26237
  external pressure =       -0.05 kB  Pullay stress =        0.00 kB


 VOLUME and BASIS-vectors are now :
 -----------------------------------------------------------------------------
  energy-cutoff  :      520.00
  volume of cell :      915.05
      direct lattice vectors                 reciprocal lattice vectors
     9.708409024  0.000000000  0.000000000     0.103003489  0.000000000  0.000000000
     0.000000000  9.708409024  0.000000000     0.000000000  0.103003489  0.000000000
     0.000000000  0.000000000  9.708409024     0.000000000  0.000000000  0.103003489

  length of vectors
     9.708409024  9.708409024  9.708409024     0.103003489  0.103003489  0.103003489


 FORCES acting on ions
    electron-ion (+dipol)            ewald-force                    non-local-force                 convergence-correction
 -----------------------------------------------------------------------------------------------
   -.339E+01 0.370E+01 0.832E+00   0.286E+01 -.463E+01 -.184E+01   0.525E+00 0.935E+00 0.101E+01   -.160E-04 -.910E-05 0.137E-04
   -.339E+01 0.832E+00 0.370E+01   0.286E+01 -.184E+01 -.463E+01   0.525E+00 0.101E+01 0.935E+00   -.160E-04 0.137E-04 -.910E-05
   0.736E+01 -.296E+01 -.296E+01   -.671E+01 0.276E+01 0.276E+01   -.648E+00 0.208E+00 0.208E+00   -.725E-04 0.820E-04 0.820E-04
   -.339E+00 -.153E+01 -.153E+01   0.974E+00 0.142E+01 0.142E+01   -.634E+00 0.111E+00 0.111E+00   -.121E-03 -.464E-04 -.464E-04
   0.235E+01 0.630E+01 -.529E+01   -.306E+01 -.735E+01 0.463E+01   0.704E+00 0.105E+01 0.658E+00   0.482E-04 0.660E-04 0.331E-04
   -.102E+02 -.283E+01 0.180E+01   0.941E+01 0.395E+01 -.101E+01   0.816E+00 -.112E+01 -.779E+00   0.580E-04 -.130E-04 0.541E-04
   0.690E+01 -.112E+02 -.412E+01   -.532E+01 0.982E+01 0.493E+01   -.158E+01 0.139E+01 -.804E+00   0.453E-04 0.218E-05 0.531E-05
   0.566E+01 -.547E+00 -.214E+01   -.674E+01 -.378E+00 0.146E+01   0.109E+01 0.929E+00 0.681E+00   -.117E-04 0.271E-04 0.895E-04
   0.492E+01 -.610E+01 0.362E+01   -.369E+01 0.550E+01 -.279E+01   -.122E+01 0.597E+00 -.834E+00   -.519E-04 -.722E-04 0.359E-04
   0.985E+01 -.221E+01 -.682E+01   -.828E+01 0.294E+01 0.569E+01   -.157E+01 -.723E+00 0.114E+01   0.463E-04 -.201E-04 -.783E-04
   -.389E+01 -.341E+01 -.400E+01   0.490E+01 0.231E+01 0.470E+01   -.102E+01 0.110E+01 -.704E+00   -.908E-04 0.212E-04 -.201E-04
   -.107E+02 -.630E+01 0.106E+02   0.939E+01 0.734E+01 -.950E+01   0.131E+01 -.104E+01 -.114E+01   0.657E-05 -.453E-04 -.328E-04
   0.492E+01 0.362E+01 -.610E+01   -.369E+01 -.279E+01 0.550E+01   -.122E+01 -.834E+00 0.597E+00   -.519E-04 0.359E-04 -.722E-04
   0.985E+01 -.682E+01 -.221E+01   -.828E+01 0.569E+01 0.294E+01   -.157E+01 0.114E+01 -.723E+00   0.463E-04 -.783E-04 -.201E-04
   -.107E+02 0.106E+02 -.630E+01   0.939E+01 -.950E+01 0.734E+01   0.131E+01 -.114E+01 -.104E+01   0.657E-05 -.328E-04 -.453E-04
   -.389E+01 -.400E+01 -.341E+01   0.490E+01 0.470E+01 0.231E+01   -.102E+01 -.704E+00 0.110E+01   -.908E-04 -.201E-04 0.212E-04
   0.235E+01 -.529E+01 0.630E+01   -.306E+01 0.463E+01 -.735E+01   0.704E+00 0.658E+00 0.105E+01   0.482E-04 0.331E-04 0.660E-04
   -.102E+02 0.180E+01 -.283E+01   0.941E+01 -.101E+01 0.395E+01   0.816E+00 -.779E+00 -.112E+01   0.580E-04 0.541E-04 -.130E-04
   0.566E+01 -.214E+01 -.547E+00   -.674E+01 0.146E+01 -.378E+00   0.109E+01 0.681E+00 0.929E+00   -.117E-04 0.895E-04 0.271E-04
   0.690E+01 -.412E+01 -.112E+02   -.532E+01 0.493E+01 0.982E+01   -.158E+01 -.804E+00 0.139E+01   0.453E-04 0.531E-05 0.218E-05
   0.829E+01 0.530E+01 0.530E+01   -.927E+01 -.442E+01 -.442E+01   0.982E+00 -.878E+00 -.878E+00   0.126E-03 -.600E-04 -.600E-04
   0.319E+01 -.115E+02 -.115E+02   -.401E+01 0.991E+01 0.991E+01   0.815E+00 0.157E+01 0.157E+01   -.201E-04 -.127E-03 -.127E-03
   0.930E+01 0.812E+01 -.173E+01   -.866E+01 -.685E+01 0.696E+00   -.633E+00 -.127E+01 0.103E+01   0.605E-04 0.201E-04 0.319E-05
   0.930E+01 -.173E+01 0.812E+01   -.866E+01 0.696E+00 -.685E+01   -.633E+00 0.103E+01 -.127E+01   0.605E-04 0.319E-05 0.201E-04
   -.142E+01 -.104E+01 0.875E+01   0.169E+01 0.104E+01 -.865E+01   -.276E+00 0.268E-02 -.105E+00   0.117E-03 -.874E-04 -.134E-03
   -.142E+01 0.875E+01 -.104E+01   0.169E+01 -.865E+01 0.104E+01   -.276E+00 -.105E+00 0.268E-02   0.117E-03 -.134E-03 -.874E-04
   0.119E+01 0.686E+01 0.686E+01   -.154E+01 -.707E+01 -.707E+01   0.336E+00 0.205E+00 0.205E+00   -.196E-03 0.506E-04 0.506E-04
   -.990E+01 0.404E+00 0.404E+00   0.104E+02 -.732E+00 -.732E+00   -.458E+00 0.329E+00 0.329E+00   -.467E-06 -.563E-04 -.563E-04
   -.618E+02 0.348E+02 -.231E+02   0.657E+02 -.378E+02 0.254E+02   -.388E+01 0.298E+01 -.225E+01   0.390E-04 0.487E-04 -.106E-04
   -.618E+02 -.231E+02 0.348E+02   0.657E+02 0.254E+02 -.378E+02   -.388E+01 -.225E+01 0.298E+01   0.390E-04 -.106E-04 0.487E-04
   0.564E+02 0.307E+02 0.307E+02   -.608E+02 -.332E+02 -.332E+02   0.434E+01 0.248E+01 0.248E+01   -.103E-03 -.109E-03 -.109E-03
   0.161E+02 -.497E+02 -.497E+02   -.187E+02 0.532E+02 0.532E+02   0.263E+01 -.351E+01 -.351E+01   -.305E-04 0.463E-04 0.463E-04
   0.651E+02 -.276E+02 -.276E+02   -.691E+02 0.301E+02 0.301E+02   0.403E+01 -.253E+01 -.253E+01   -.202E-04 0.218E-04 0.218E-04
   0.333E+02 0.453E+02 0.453E+02   -.361E+02 -.482E+02 -.482E+02   0.284E+01 0.292E+01 0.292E+01   -.196E-03 -.801E-05 -.801E-05
   -.227E+02 -.312E+02 0.593E+02   0.254E+02 0.343E+02 -.634E+02   -.268E+01 -.312E+01 0.401E+01   -.670E-04 0.757E-04 0.753E-04
   -.227E+02 0.593E+02 -.312E+02   0.254E+02 -.634E+02 0.343E+02   -.268E+01 0.401E+01 -.312E+01   -.670E-04 0.753E-04 0.757E-04
   -.566E+02 -.446E+02 0.224E+02   0.600E+02 0.482E+02 -.244E+02   -.346E+01 -.356E+01 0.205E+01   0.765E-04 0.630E-04 -.210E-04
   -.231E+02 0.552E+02 -.487E+02   0.255E+02 -.584E+02 0.522E+02   -.235E+01 0.323E+01 -.346E+01   0.917E-04 -.292E-03 0.358E-04
   0.452E+02 -.318E+02 -.469E+02   -.483E+02 0.343E+02 0.502E+02   0.309E+01 -.246E+01 -.329E+01   -.400E-05 0.373E-04 0.888E-04
   0.324E+02 0.429E+02 0.421E+02   -.352E+02 -.458E+02 -.458E+02   0.287E+01 0.298E+01 0.362E+01   0.206E-03 -.258E-04 -.331E-05
   -.231E+02 -.487E+02 0.552E+02   0.255E+02 0.522E+02 -.584E+02   -.235E+01 -.346E+01 0.323E+01   0.917E-04 0.358E-04 -.292E-03
   -.566E+02 0.224E+02 -.446E+02   0.600E+02 -.244E+02 0.482E+02   -.346E+01 0.205E+01 -.356E+01   0.765E-04 -.210E-04 0.630E-04
   0.452E+02 -.469E+02 -.318E+02   -.483E+02 0.502E+02 0.343E+02   0.309E+01 -.329E+01 -.246E+01   -.400E-05 0.888E-04 0.373E-04
   0.324E+02 0.421E+02 0.429E+02   -.352E+02 -.458E+02 -.458E+02   0.287E+01 0.362E+01 0.298E+01   0.206E-03 -.331E-05 -.258E-04
   0.136E+01 0.213E+02 0.155E+01   -.147E+01 -.217E+02 -.170E+01   0.111E+00 0.429E+00 0.147E+00   -.183E-04 -.734E-04 0.885E-04
   0.136E+01 0.155E+01 0.213E+02   -.147E+01 -.170E+01 -.217E+02   0.111E+00 0.147E+00 0.429E+00   -.183E-04 0.885E-04 -.734E-04
   -.195E+02 -.117E+02 -.117E+02   0.200E+02 0.120E+02 0.120E+02   -.459E+00 -.256E+00 -.256E+00   0.210E-03 -.407E-04 -.407E-04
   0.818E+01 0.131E+02 0.131E+02   -.793E+01 -.134E+02 -.134E+02   -.268E+00 0.343E+00 0.343E+00   -.522E-05 -.158E-03 -.158E-03
   -.300E+01 -.462E+02 0.503E+01   0.301E+01 0.470E+02 -.522E+01   -.125E-01 -.796E+00 0.195E+00   -.308E-03 -.311E-03 0.308E-03
   -.300E+01 0.503E+01 -.462E+02   0.301E+01 -.522E+01 0.470E+02   -.125E-01 0.195E+00 -.796E+00   -.308E-03 0.308E-03 -.311E-03
   0.393E+02 0.252E+02 0.252E+02   -.398E+02 -.256E+02 -.256E+02   0.499E+00 0.384E+00 0.384E+00   0.168E-03 0.363E-03 0.363E-03
   -.477E+02 -.237E+02 -.237E+02   0.485E+02 0.241E+02 0.241E+02   -.782E+00 -.439E+00 -.439E+00   -.132E-03 0.163E-03 0.163E-03
 -----------------------------------------------------------------------------------------------
   0.312E+01 -.368E+01 -.368E+01   0.000E+00 0.142E-13 -.142E-13   -.312E+01 0.367E+01 0.367E+01   0.620E-04 0.653E-04 0.653E-04
 
 
 POSITION                                       TOTAL-FORCE (eV/Angst)
 -----------------------------------------------------------------------------------
      9.54348      2.76691      2.88459         0.000074     -0.000080      0.000240
      9.54348      7.73880      7.62112         0.000074      0.000240     -0.000080
      0.25213      2.57935      7.43355         0.000129      0.000261      0.000261
      0.25915      7.12590      2.27169        -0.000129     -0.000138     -0.000138
      2.98097      2.79034      9.45287        -0.000054      0.000033     -0.000060
      3.01044      6.80341      0.08844        -0.000169      0.000008     -0.000174
      6.52076      3.07396      0.38637        -0.000601      0.000375      0.000301
      7.67216      7.78322      9.46060         0.000067      0.000277      0.000066
      1.81350      9.33667      1.62968        -0.000165     -0.000028     -0.000144
      1.91456      0.18640      7.81634        -0.000026     -0.000002      0.000424
      7.06268      9.54732      6.82750         0.000199      0.000046     -0.000022
      8.02838      0.31132      1.69309         0.000135      0.000230     -0.000207
      1.81350      6.48388      4.48246        -0.000165     -0.000144     -0.000028
      1.91456      2.96214      5.04061        -0.000026      0.000424     -0.000002
      8.02838      6.54730      5.16553         0.000135     -0.000207      0.000230
      7.06268      1.97330      4.69312         0.000199     -0.000022      0.000046
      2.98097      4.59866      7.64455        -0.000054     -0.000060      0.000033
      3.01044      4.94265      1.94920        -0.000169     -0.000174      0.000008
      7.67216      4.60639      2.92902         0.000067      0.000066      0.000277
      6.52076      5.24057      7.92816        -0.000601      0.000301      0.000375
      4.60114      1.77398      6.62818         0.000204     -0.000045     -0.000045
      4.58150      7.97602      3.12181        -0.000387      0.000451      0.000451
      5.11845      1.60933      2.93496         0.000218     -0.000559     -0.000154
      5.11845      7.78916      6.46353         0.000218     -0.000154     -0.000559
      4.91256      4.80271      4.82469         0.000134     -0.000185     -0.000188
      4.91256      9.67890      9.65692         0.000134     -0.000188     -0.000185
      9.63410      4.80589      9.66009        -0.000594     -0.000114     -0.000114
      0.16926      9.62562      4.77142         0.000367     -0.000061     -0.000061
      1.34592      8.41499      5.92923        -0.000010      0.000202     -0.000216
      1.34592      1.07502      3.56079        -0.000010     -0.000216      0.000202
      8.58811      8.49824      3.64403         0.000467      0.000341      0.000341
      8.79694      1.16169      6.01589         0.000486     -0.000402     -0.000402
      8.38075      5.95906      1.10486         0.000002     -0.000209     -0.000209
      8.32074      3.69492      8.54912        -0.000095      0.000094      0.000094
      1.13921      5.93815      8.44856        -0.000587     -0.000523      0.000281
      1.13921      3.59435      1.08394        -0.000587      0.000281     -0.000523
      6.08872      1.22484      8.54620        -0.000081     -0.000297      0.000341
      6.05319      8.56656      1.23913        -0.000246      0.000401     -0.000095
      3.64881      1.06858      1.14442         0.000268     -0.000360     -0.000533
      3.79302      8.51532      8.38555         0.000519      0.000233      0.000146
      6.05319      6.09333      3.71235        -0.000246     -0.000095      0.000401
      6.08872      3.69199      6.07905        -0.000081      0.000341     -0.000297
      3.64881      5.99862      5.92278         0.000268     -0.000533     -0.000360
      3.79302      3.53135      3.66111         0.000519      0.000146      0.000233
      7.29173      7.31506      7.23878         0.000085      0.000095      0.000067
      7.29173      2.38457      2.46085         0.000085      0.000067      0.000095
      2.52267      7.19010      2.33590        -0.000218     -0.000108     -0.000108
      2.47282      2.38216      7.23637         0.000129      0.000004      0.000004
      0.01634      9.32858      9.62918         0.000083      0.000333     -0.000274
      0.01634      4.77498      4.47437         0.000083     -0.000274      0.000333
      5.26684      0.11579      4.96999         0.000075     -0.000047     -0.000047
      4.53719      4.72088      9.57508        -0.000121     -0.000027     -0.000027
 -----------------------------------------------------------------------------------
    total drift:                                0.003085     -0.015219     -0.015209


--------------------------------------------------------------------------------------------------------



  FREE ENERGIE OF THE ION-ELECTRON SYSTEM (eV)
  ---------------------------------------------------
  free  energy   TOTEN  =      -271.90798939 eV

  energy  without entropy=     -271.90798939  energy(sigma->0) =     -271.90798939
 
 d Force = 0.8932846E-06[ 0.537E-06, 0.125E-05]  d Energy = 0.1859765E-05-0.966E-06
 d Force = 0.7408771E-02[ 0.741E-02, 0.741E-02]  d Ewald  = 0.7409379E-02-0.608E-06


--------------------------------------------------------------------------------------------------------


    POTLOK:  cpu time      0.5426: real time      0.5502


--------------------------------------------------------------------------------------------------------


 stress matrix after NEB project (eV)
     -1.49563     -0.72098     -0.72098
     -0.72098      0.70650     -0.60055
     -0.72098     -0.60055      0.70650
  FORCES: max atom, RMS     0.000835    0.000448
  FORCE total and by dimension    0.003233    0.000601
  Stress total and by dimension    2.456779    1.495631
 Conjugate gradient step on ions:
 trial-energy change:   -0.000002  1 .order   -0.000001   -0.000001   -0.000001
  (g-gl).g = 0.831E-06      g.g   = 0.860E-06  gl.gl    = 0.340E-05
 g(Force)  = 0.860E-06   g(Stress)= 0.000E+00 ortho     = 0.293E-07
 gamma     =   0.24409
 trial     =   1.44098
 opt step  =   2.52664  (harmonic =   2.52664) maximal distance =0.00006939
 next E    =  -271.907989   (d E  =  -0.00000)


--------------------------------------------------------------------------------------------------------


  
 reached required accuracy - stopping structural energy minimisation
     LOOP+:  cpu time      6.1390: real time      6.2284
    4ORBIT:  cpu time      0.0000: real time      0.0000

 total amount of memory used by VASP MPI-rank0    46897. kBytes
=======================================================================

   base      :      30000. kBytes
   nonlr-proj:       6398. kBytes
   fftplans  :       1747. kBytes
   grid      :       5278. kBytes
   one-center:         62. kBytes
   wavefun   :       3412. kBytes
 
  
  
 General timing and accounting informations for this job:
 ========================================================
  
                  Total CPU time used (sec):      106.450
                            User time (sec):      104.869
                          System time (sec):        1.582
                         Elapsed time (sec):      111.039
  
                   Maximum memory used (kb):      394480.
                   Average memory used (kb):          N/A
  
                          Minor page faults:        70211
                          Major page faults:          131
                 Voluntary context switches:         6878
