unknown system                          
           1
     9.708409    0.000000    0.000000
     0.000000    9.708409    0.000000
     0.000000    0.000000    9.708409
   Li   P    S    Cl
    24     4    20     4
Direct configuration=     1
   0.98300952  0.28500296  0.29711811
   0.98300952  0.79711811  0.78500296
   0.02596897  0.26567788  0.76567788
   0.02669526  0.73399359  0.23399359
   0.30705134  0.28741383  0.97367904
   0.31008970  0.70077533  0.00911431
   0.67167576  0.31661924  0.03979062
   0.79025604  0.80169307  0.97447326
   0.18680140  0.96171060  0.16786592
   0.19720708  0.01920023  0.80509973
   0.72747642  0.98340473  0.70325723
   0.82694678  0.03206224  0.17439980
   0.18680140  0.66786592  0.46171060
   0.19720708  0.30509973  0.51920023
   0.82694678  0.67439980  0.53206224
   0.72747642  0.20325723  0.48340473
   0.30705134  0.47367904  0.78741383
   0.31008970  0.50911431  0.20077533
   0.79025604  0.47447326  0.30169307
   0.67167576  0.53979062  0.81661924
   0.47392815  0.18272663  0.68272663
   0.47191877  0.82154677  0.32154677
   0.52721407  0.16578009  0.30231513
   0.52721407  0.80231513  0.66578009
   0.50600838  0.49469868  0.49696109
   0.50600838  0.99696109  0.99469868
   0.99235352  0.49502474  0.99502474
   0.01742991  0.99147387  0.49147387
   0.13861715  0.86678260  0.61072494
   0.13861715  0.11072494  0.36678260
   0.88461250  0.87535830  0.37535830
   0.90611259  0.11964619  0.61964619
   0.86326716  0.61379837  0.11379837
   0.85708945  0.38059635  0.88059635
   0.11734145  0.61164310  0.87024604
   0.11734145  0.37024604  0.11164310
   0.62714488  0.12615221  0.88029486
   0.62349358  0.88239243  0.12761781
   0.37585165  0.11006232  0.11787367
   0.39069583  0.87711983  0.86375785
   0.62349358  0.62761781  0.38239243
   0.62714488  0.38029486  0.62615221
   0.37585165  0.61787367  0.61006232
   0.39069583  0.36375785  0.37711983
   0.75107364  0.75347799  0.74561717
   0.75107364  0.24561717  0.25347799
   0.25984467  0.74060594  0.24060594
   0.25470398  0.24537500  0.74537500
   0.00167998  0.96085989  0.99184917
   0.00167998  0.49184917  0.46085989
   0.54250790  0.01193585  0.51193585
   0.46734188  0.48626323  0.98626323
Direct configuration=     2
   0.98301014  0.28500274  0.29711904
   0.98301014  0.79711904  0.78500274
   0.02596925  0.26567858  0.76567858
   0.02669488  0.73399336  0.23399336
   0.30705115  0.28741404  0.97367889
   0.31008893  0.70077517  0.00911333
   0.67167271  0.31662108  0.03979204
   0.79025663  0.80169431  0.97447357
   0.18680054  0.96171037  0.16786521
   0.19720693  0.01920020  0.80510203
   0.72747731  0.98340538  0.70325709
   0.82694761  0.03206330  0.17439867
   0.18680054  0.66786521  0.46171037
   0.19720693  0.30510203  0.51920020
   0.82694761  0.67439867  0.53206330
   0.72747731  0.20325709  0.48340538
   0.30705115  0.47367889  0.78741404
   0.31008893  0.50911333  0.20077517
   0.79025663  0.47447357  0.30169431
   0.67167271  0.53979204  0.81662108
   0.47392928  0.18272648  0.68272648
   0.47191694  0.82154904  0.32154904
   0.52721488  0.16577729  0.30231422
   0.52721488  0.80231422  0.66577729
   0.50600851  0.49469804  0.49696091
   0.50600851  0.99696091  0.99469804
   0.99235240  0.49502454  0.99502454
   0.01743030  0.99147368  0.49147368
   0.13862203  0.86677955  0.61072729
   0.13862203  0.11072729  0.36677955
   0.88460977  0.87535510  0.37535510
   0.90611258  0.11964967  0.61964967
   0.86326165  0.61380060  0.11380060
   0.85708274  0.38059387  0.88059387
   0.11734252  0.61164556  0.87024170
   0.11734252  0.37024170  0.11164556
   0.62714917  0.12615578  0.88029237
   0.62349595  0.88238980  0.12762262
   0.37584828  0.11006425  0.11787590
   0.39069461  0.87711618  0.86375319
   0.62349595  0.62762262  0.38238980
   0.62714917  0.38029237  0.62615578
   0.37584828  0.61787590  0.61006425
   0.39069461  0.36375319  0.37711618
   0.75107364  0.75347746  0.74561764
   0.75107364  0.24561764  0.25347746
   0.25984471  0.74060597  0.24060597
   0.25470507  0.24537407  0.74537407
   0.00168063  0.96086372  0.99184713
   0.00168063  0.49184713  0.46086372
   0.54250655  0.01193355  0.51193355
   0.46734353  0.48626424  0.98626424
Direct configuration=     3
   0.98301064  0.28500256  0.29711977
   0.98301064  0.79711977  0.78500256
   0.02596947  0.26567913  0.76567913
   0.02669457  0.73399317  0.23399317
   0.30705100  0.28741421  0.97367878
   0.31008831  0.70077504  0.00911255
   0.67167030  0.31662254  0.03979316
   0.79025710  0.80169529  0.97447382
   0.18679986  0.96171019  0.16786464
   0.19720682  0.01920018  0.80510386
   0.72747801  0.98340589  0.70325697
   0.82694826  0.03206414  0.17439776
   0.18679986  0.66786464  0.46171019
   0.19720682  0.30510386  0.51920018
   0.82694826  0.67439776  0.53206414
   0.72747801  0.20325697  0.48340589
   0.30705100  0.47367878  0.78741421
   0.31008831  0.50911255  0.20077504
   0.79025710  0.47447382  0.30169529
   0.67167030  0.53979316  0.81662254
   0.47393017  0.18272635  0.68272635
   0.47191549  0.82155084  0.32155084
   0.52721553  0.16577508  0.30231350
   0.52721553  0.80231350  0.66577508
   0.50600862  0.49469754  0.49696078
   0.50600862  0.99696078  0.99469754
   0.99235150  0.49502439  0.99502439
   0.01743062  0.99147353  0.49147353
   0.13862590  0.86677712  0.61072916
   0.13862590  0.11072916  0.36677712
   0.88460760  0.87535255  0.37535255
   0.90611256  0.11965244  0.61965244
   0.86325727  0.61380237  0.11380237
   0.85707741  0.38059190  0.88059190
   0.11734337  0.61164753  0.87023825
   0.11734337  0.37023825  0.11164753
   0.62715259  0.12615862  0.88029040
   0.62349784  0.88238771  0.12762645
   0.37584560  0.11006577  0.11787767
   0.39069363  0.87711329  0.86374949
   0.62349784  0.62762645  0.38238771
   0.62715259  0.38029040  0.62615862
   0.37584560  0.61787767  0.61006577
   0.39069363  0.36374949  0.37711329
   0.75107365  0.75347705  0.74561801
   0.75107365  0.24561801  0.25347705
   0.25984474  0.74060599  0.24060599
   0.25470593  0.24537334  0.74537334
   0.00168114  0.96086675  0.99184550
   0.00168114  0.49184550  0.46086675
   0.54250548  0.01193172  0.51193172
   0.46734484  0.48626505  0.98626505
Direct configuration=     4
   0.98301163  0.28500221  0.29712125
   0.98301163  0.79712125  0.78500221
   0.02596991  0.26568023  0.76568023
   0.02669396  0.73399280  0.23399280
   0.30705070  0.28741455  0.97367855
   0.31008708  0.70077478  0.00911099
   0.67166546  0.31662547  0.03979541
   0.79025803  0.80169726  0.97447432
   0.18679849  0.96170983  0.16786350
   0.19720658  0.01920013  0.80510751
   0.72747941  0.98340691  0.70325675
   0.82694958  0.03206583  0.17439596
   0.18679849  0.66786350  0.46170983
   0.19720658  0.30510751  0.51920013
   0.82694958  0.67439596  0.53206583
   0.72747941  0.20325675  0.48340691
   0.30705070  0.47367855  0.78741455
   0.31008708  0.50911099  0.20077478
   0.79025803  0.47447432  0.30169726
   0.67166546  0.53979541  0.81662547
   0.47393196  0.18272610  0.68272610
   0.47191259  0.82155444  0.32155444
   0.52721682  0.16577065  0.30231207
   0.52721682  0.80231207  0.66577065
   0.50600883  0.49469653  0.49696050
   0.50600883  0.99696050  0.99469653
   0.99234971  0.49502409  0.99502409
   0.01743125  0.99147323  0.49147323
   0.13863365  0.86677226  0.61073289
   0.13863365  0.11073289  0.36677226
   0.88460327  0.87534746  0.37534746
   0.90611254  0.11965798  0.61965798
   0.86324853  0.61380592  0.11380592
   0.85706675  0.38058796  0.88058796
   0.11734507  0.61165145  0.87023136
   0.11734507  0.37023136  0.11165145
   0.62715942  0.12616430  0.88028644
   0.62350160  0.88238353  0.12763409
   0.37584024  0.11006883  0.11788120
   0.39069169  0.87710751  0.86374209
   0.62350160  0.62763409  0.38238353
   0.62715942  0.38028644  0.62616430
   0.37584024  0.61788120  0.61006883
   0.39069169  0.36374209  0.37710751
   0.75107365  0.75347623  0.74561875
   0.75107365  0.24561875  0.25347623
   0.25984480  0.74060604  0.24060604
   0.25470766  0.24537187  0.74537187
   0.00168217  0.96087282  0.99184225
   0.00168217  0.49184225  0.46087282
   0.54250334  0.01192806  0.51192806
   0.46734746  0.48626667  0.98626667
Direct configuration=     5
   0.98301131  0.28500232  0.29712076
   0.98301131  0.79712076  0.78500232
   0.02596977  0.26567987  0.76567987
   0.02669416  0.73399292  0.23399292
   0.30705080  0.28741444  0.97367862
   0.31008748  0.70077486  0.00911150
   0.67166705  0.31662451  0.03979468
   0.79025773  0.80169661  0.97447415
   0.18679894  0.96170995  0.16786388
   0.19720666  0.01920014  0.80510631
   0.72747895  0.98340657  0.70325682
   0.82694915  0.03206528  0.17439655
   0.18679894  0.66786388  0.46170995
   0.19720666  0.30510631  0.51920014
   0.82694915  0.67439655  0.53206528
   0.72747895  0.20325682  0.48340657
   0.30705080  0.47367862  0.78741444
   0.31008748  0.50911150  0.20077486
   0.79025773  0.47447415  0.30169661
   0.67166705  0.53979468  0.81662451
   0.47393137  0.18272619  0.68272619
   0.47191354  0.82155326  0.32155326
   0.52721640  0.16577210  0.30231254
   0.52721640  0.80231254  0.66577210
   0.50600876  0.49469686  0.49696059
   0.50600876  0.99696059  0.99469686
   0.99235030  0.49502419  0.99502419
   0.01743104  0.99147333  0.49147333
   0.13863111  0.86677385  0.61073167
   0.13863111  0.11073167  0.36677385
   0.88460469  0.87534913  0.37534913
   0.90611255  0.11965617  0.61965617
   0.86325139  0.61380476  0.11380476
   0.85707024  0.38058925  0.88058925
   0.11734452  0.61165016  0.87023362
   0.11734452  0.37023362  0.11165016
   0.62715718  0.12616244  0.88028774
   0.62350037  0.88238490  0.12763159
   0.37584200  0.11006783  0.11788004
   0.39069232  0.87710940  0.86374451
   0.62350037  0.62763159  0.38238490
   0.62715718  0.38028774  0.62616244
   0.37584200  0.61788004  0.61006783
   0.39069232  0.36374451  0.37710940
   0.75107365  0.75347650  0.74561851
   0.75107365  0.24561851  0.25347650
   0.25984478  0.74060602  0.24060602
   0.25470709  0.24537236  0.74537236
   0.00168183  0.96087083  0.99184332
   0.00168183  0.49184332  0.46087083
   0.54250404  0.01192926  0.51192926
   0.46734660  0.48626614  0.98626614
Direct configuration=     6
   0.98301154  0.28500224  0.29712110
   0.98301154  0.79712110  0.78500224
   0.02596987  0.26568012  0.76568012
   0.02669402  0.73399283  0.23399283
   0.30705073  0.28741451  0.97367857
   0.31008720  0.70077480  0.00911114
   0.67166593  0.31662519  0.03979520
   0.79025794  0.80169707  0.97447427
   0.18679862  0.96170987  0.16786361
   0.19720660  0.01920013  0.80510716
   0.72747927  0.98340681  0.70325677
   0.82694945  0.03206567  0.17439613
   0.18679862  0.66786361  0.46170987
   0.19720660  0.30510716  0.51920013
   0.82694945  0.67439613  0.53206567
   0.72747927  0.20325677  0.48340681
   0.30705073  0.47367857  0.78741451
   0.31008720  0.50911114  0.20077480
   0.79025794  0.47447427  0.30169707
   0.67166593  0.53979520  0.81662519
   0.47393179  0.18272613  0.68272613
   0.47191287  0.82155409  0.32155409
   0.52721670  0.16577108  0.30231221
   0.52721670  0.80231221  0.66577108
   0.50600881  0.49469663  0.49696052
   0.50600881  0.99696052  0.99469663
   0.99234989  0.49502412  0.99502412
   0.01743119  0.99147326  0.49147326
   0.13863290  0.86677273  0.61073253
   0.13863290  0.11073253  0.36677273
   0.88460369  0.87534795  0.37534795
   0.90611254  0.11965745  0.61965745
   0.86324937  0.61380558  0.11380558
   0.85706778  0.38058834  0.88058834
   0.11734491  0.61165107  0.87023203
   0.11734491  0.37023203  0.11165107
   0.62715876  0.12616375  0.88028683
   0.62350124  0.88238393  0.12763335
   0.37584076  0.11006853  0.11788086
   0.39069187  0.87710806  0.86374280
   0.62350124  0.62763335  0.38238393
   0.62715876  0.38028683  0.62616375
   0.37584076  0.61788086  0.61006853
   0.39069187  0.36374280  0.37710806
   0.75107365  0.75347630  0.74561868
   0.75107365  0.24561868  0.25347630
   0.25984479  0.74060603  0.24060603
   0.25470749  0.24537202  0.74537202
   0.00168207  0.96087224  0.99184257
   0.00168207  0.49184257  0.46087224
   0.54250355  0.01192841  0.51192841
   0.46734721  0.48626651  0.98626651
Direct configuration=     7
   0.98301148  0.28500226  0.29712102
   0.98301148  0.79712102  0.78500226
   0.02596984  0.26568006  0.76568006
   0.02669406  0.73399285  0.23399285
   0.30705075  0.28741449  0.97367859
   0.31008727  0.70077482  0.00911124
   0.67166621  0.31662502  0.03979506
   0.79025789  0.80169695  0.97447424
   0.18679870  0.96170989  0.16786368
   0.19720662  0.01920014  0.80510694
   0.72747919  0.98340675  0.70325679
   0.82694938  0.03206557  0.17439624
   0.18679870  0.66786368  0.46170989
   0.19720662  0.30510694  0.51920014
   0.82694938  0.67439624  0.53206557
   0.72747919  0.20325679  0.48340675
   0.30705075  0.47367859  0.78741449
   0.31008727  0.50911124  0.20077482
   0.79025789  0.47447424  0.30169695
   0.67166621  0.53979506  0.81662502
   0.47393168  0.18272614  0.68272614
   0.47191304  0.82155388  0.32155388
   0.52721662  0.16577134  0.30231229
   0.52721662  0.80231229  0.66577134
   0.50600879  0.49469669  0.49696054
   0.50600879  0.99696054  0.99469669
   0.99234999  0.49502413  0.99502413
   0.01743115  0.99147327  0.49147327
   0.13863245  0.86677302  0.61073231
   0.13863245  0.11073231  0.36677302
   0.88460395  0.87534825  0.37534825
   0.90611254  0.11965712  0.61965712
   0.86324989  0.61380537  0.11380537
   0.85706841  0.38058858  0.88058858
   0.11734481  0.61165084  0.87023244
   0.11734481  0.37023244  0.11165084
   0.62715835  0.12616341  0.88028706
   0.62350102  0.88238418  0.12763290
   0.37584107  0.11006835  0.11788065
   0.39069199  0.87710841  0.86374324
   0.62350102  0.62763290  0.38238418
   0.62715835  0.38028706  0.62616341
   0.37584107  0.61788065  0.61006835
   0.39069199  0.36374324  0.37710841
   0.75107365  0.75347635  0.74561864
   0.75107365  0.24561864  0.25347635
   0.25984479  0.74060603  0.24060603
   0.25470739  0.24537210  0.74537210
   0.00168201  0.96087188  0.99184276
   0.00168201  0.49184276  0.46087188
   0.54250367  0.01192863  0.51192863
   0.46734705  0.48626642  0.98626642
Direct configuration=     8
   0.98301152  0.28500225  0.29712108
   0.98301152  0.79712108  0.78500225
   0.02596986  0.26568010  0.76568010
   0.02669403  0.73399284  0.23399284
   0.30705074  0.28741451  0.97367858
   0.31008722  0.70077481  0.00911117
   0.67166600  0.31662514  0.03979516
   0.79025793  0.80169704  0.97447426
   0.18679864  0.96170987  0.16786363
   0.19720661  0.01920013  0.80510710
   0.72747925  0.98340680  0.70325678
   0.82694943  0.03206564  0.17439616
   0.18679864  0.66786363  0.46170987
   0.19720661  0.30510710  0.51920013
   0.82694943  0.67439616  0.53206564
   0.72747925  0.20325678  0.48340680
   0.30705074  0.47367858  0.78741451
   0.31008722  0.50911117  0.20077481
   0.79025793  0.47447426  0.30169704
   0.67166600  0.53979516  0.81662514
   0.47393176  0.18272613  0.68272613
   0.47191291  0.82155404  0.32155404
   0.52721668  0.16577114  0.30231223
   0.52721668  0.80231223  0.66577114
   0.50600880  0.49469664  0.49696053
   0.50600880  0.99696053  0.99469664
   0.99234991  0.49502412  0.99502412
   0.01743118  0.99147326  0.49147326
   0.13863279  0.86677280  0.61073247
   0.13863279  0.11073247  0.36677280
   0.88460376  0.87534803  0.37534803
   0.90611254  0.11965736  0.61965736
   0.86324950  0.61380552  0.11380552
   0.85706794  0.38058840  0.88058840
   0.11734488  0.61165101  0.87023213
   0.11734488  0.37023213  0.11165101
   0.62715865  0.12616366  0.88028689
   0.62350118  0.88238399  0.12763324
   0.37584084  0.11006849  0.11788081
   0.39069190  0.87710815  0.86374292
   0.62350118  0.62763324  0.38238399
   0.62715865  0.38028689  0.62616366
   0.37584084  0.61788081  0.61006849
   0.39069190  0.36374292  0.37710815
   0.75107365  0.75347632  0.74561867
   0.75107365  0.24561867  0.25347632
   0.25984479  0.74060603  0.24060603
   0.25470747  0.24537204  0.74537204
   0.00168205  0.96087215  0.99184262
   0.00168205  0.49184262  0.46087215
   0.54250358  0.01192847  0.51192847
   0.46734717  0.48626649  0.98626649
Direct configuration=     9
   0.98301213  0.28500179  0.29712289
   0.98301213  0.79712289  0.78500179
   0.02597074  0.26568199  0.76568199
   0.02669347  0.73399212  0.23399212
   0.30705067  0.28741490  0.97367814
   0.31008618  0.70077457  0.00910992
   0.67166123  0.31662822  0.03979743
   0.79025873  0.80169920  0.97447466
   0.18679718  0.96170947  0.16786249
   0.19720626  0.01920014  0.80511057
   0.72748050  0.98340726  0.70325652
   0.82695070  0.03206737  0.17439430
   0.18679718  0.66786249  0.46170947
   0.19720626  0.30511057  0.51920014
   0.82695070  0.67439430  0.53206737
   0.72748050  0.20325652  0.48340726
   0.30705067  0.47367814  0.78741490
   0.31008618  0.50910992  0.20077457
   0.79025873  0.47447466  0.30169920
   0.67166123  0.53979743  0.81662822
   0.47393343  0.18272570  0.68272570
   0.47190998  0.82155770  0.32155770
   0.52721837  0.16576664  0.30231106
   0.52721837  0.80231106  0.66576664
   0.50601032  0.49469607  0.49695997
   0.50601032  0.99695997  0.99469607
   0.99234605  0.49502316  0.99502316
   0.01743388  0.99147256  0.49147256
   0.13863458  0.86677347  0.61073127
   0.13863458  0.11073127  0.36677347
   0.88460497  0.87534817  0.37534817
   0.90611559  0.11965765  0.61965765
   0.86324673  0.61380446  0.11380446
   0.85706495  0.38058935  0.88058935
   0.11734210  0.61164979  0.87023083
   0.11734210  0.37023083  0.11164979
   0.62715985  0.12616321  0.88028814
   0.62349995  0.88238546  0.12763450
   0.37584067  0.11006729  0.11787899
   0.39069444  0.87710736  0.86374090
   0.62349995  0.62763450  0.38238546
   0.62715985  0.38028814  0.62616321
   0.37584067  0.61787899  0.61006729
   0.39069444  0.36374090  0.37710736
   0.75107413  0.75347641  0.74561952
   0.75107413  0.24561952  0.25347641
   0.25984392  0.74060543  0.24060543
   0.25470889  0.24537122  0.74537122
   0.00168281  0.96087622  0.99183956
   0.00168281  0.49183956  0.46087622
   0.54250333  0.01192674  0.51192674
   0.46734645  0.48626703  0.98626703
