  52  52   0   4
  0.1726936E+02  0.9647761E-09  0.9647761E-09  0.9647761E-09  0.2000000E-15
  1.000000000000000E-004
  CAR 
 unknown system                          
     12.67838817    -45.33431141  301      2.28444616      1.00000000
    -45.334  0.0000E+00  0.0000E+00  0.0000E+00  0.0000E+00
    -45.141  0.0000E+00  0.0000E+00  0.0000E+00  0.0000E+00
    -44.948  0.0000E+00  0.0000E+00  0.0000E+00  0.0000E+00
    -44.754  0.0000E+00  0.0000E+00  0.0000E+00  0.0000E+00
    -44.561  0.0000E+00  0.0000E+00  0.0000E+00  0.0000E+00
    -44.367  0.0000E+00  0.0000E+00  0.0000E+00  0.0000E+00
    -44.174  0.0000E+00  0.0000E+00  0.0000E+00  0.0000E+00
    -43.981  0.0000E+00  0.0000E+00  0.0000E+00  0.0000E+00
    -43.787  0.0000E+00  0.0000E+00  0.0000E+00  0.0000E+00
    -43.594  0.0000E+00  0.0000E+00  0.0000E+00  0.0000E+00
    -43.401  0.0000E+00  0.0000E+00  0.0000E+00  0.0000E+00
    -43.207  0.0000E+00  0.0000E+00  0.0000E+00  0.0000E+00
    -43.014  0.0000E+00  0.0000E+00  0.0000E+00  0.0000E+00
    -42.820  0.1704E-10  0.1704E-10  0.3295E-11  0.3295E-11
    -42.627  0.1009E-01  0.1009E-01  0.1952E-02  0.1952E-02
    -42.434  0.4324E-01  0.4324E-01  0.1031E-01  0.1031E-01
    -42.240  0.4597E-01  0.4597E-01  0.1920E-01  0.1920E-01
    -42.047  0.1594E-01  0.1594E-01  0.2229E-01  0.2229E-01
    -41.854  0.8829E-02  0.8829E-02  0.2399E-01  0.2399E-01
    -41.660  0.0000E+00  0.0000E+00  0.2400E-01  0.2400E-01
    -41.467  0.0000E+00  0.0000E+00  0.2400E-01  0.2400E-01
    -41.273  0.0000E+00  0.0000E+00  0.2400E-01  0.2400E-01
    -41.080  0.0000E+00  0.0000E+00  0.2400E-01  0.2400E-01
    -40.887  0.0000E+00  0.0000E+00  0.2400E-01  0.2400E-01
    -40.693  0.0000E+00  0.0000E+00  0.2400E-01  0.2400E-01
    -40.500  0.0000E+00  0.0000E+00  0.2400E-01  0.2400E-01
    -40.307  0.0000E+00  0.0000E+00  0.2400E-01  0.2400E-01
    -40.113  0.0000E+00  0.0000E+00  0.2400E-01  0.2400E-01
    -39.920  0.0000E+00  0.0000E+00  0.2400E-01  0.2400E-01
    -39.726  0.0000E+00  0.0000E+00  0.2400E-01  0.2400E-01
    -39.533  0.0000E+00  0.0000E+00  0.2400E-01  0.2400E-01
    -39.340  0.0000E+00  0.0000E+00  0.2400E-01  0.2400E-01
    -39.146  0.0000E+00  0.0000E+00  0.2400E-01  0.2400E-01
    -38.953  0.0000E+00  0.0000E+00  0.2400E-01  0.2400E-01
    -38.760  0.0000E+00  0.0000E+00  0.2400E-01  0.2400E-01
    -38.566  0.0000E+00  0.0000E+00  0.2400E-01  0.2400E-01
    -38.373  0.0000E+00  0.0000E+00  0.2400E-01  0.2400E-01
    -38.179  0.0000E+00  0.0000E+00  0.2400E-01  0.2400E-01
    -37.986  0.0000E+00  0.0000E+00  0.2400E-01  0.2400E-01
    -37.793  0.0000E+00  0.0000E+00  0.2400E-01  0.2400E-01
    -37.599  0.0000E+00  0.0000E+00  0.2400E-01  0.2400E-01
    -37.406  0.0000E+00  0.0000E+00  0.2400E-01  0.2400E-01
    -37.213  0.0000E+00  0.0000E+00  0.2400E-01  0.2400E-01
    -37.019  0.0000E+00  0.0000E+00  0.2400E-01  0.2400E-01
    -36.826  0.0000E+00  0.0000E+00  0.2400E-01  0.2400E-01
    -36.632  0.0000E+00  0.0000E+00  0.2400E-01  0.2400E-01
    -36.439  0.0000E+00  0.0000E+00  0.2400E-01  0.2400E-01
    -36.246  0.0000E+00  0.0000E+00  0.2400E-01  0.2400E-01
    -36.052  0.0000E+00  0.0000E+00  0.2400E-01  0.2400E-01
    -35.859  0.0000E+00  0.0000E+00  0.2400E-01  0.2400E-01
    -35.666  0.0000E+00  0.0000E+00  0.2400E-01  0.2400E-01
    -35.472  0.0000E+00  0.0000E+00  0.2400E-01  0.2400E-01
    -35.279  0.0000E+00  0.0000E+00  0.2400E-01  0.2400E-01
    -35.085  0.0000E+00  0.0000E+00  0.2400E-01  0.2400E-01
    -34.892  0.0000E+00  0.0000E+00  0.2400E-01  0.2400E-01
    -34.699  0.0000E+00  0.0000E+00  0.2400E-01  0.2400E-01
    -34.505  0.0000E+00  0.0000E+00  0.2400E-01  0.2400E-01
    -34.312  0.0000E+00  0.0000E+00  0.2400E-01  0.2400E-01
    -34.119  0.0000E+00  0.0000E+00  0.2400E-01  0.2400E-01
    -33.925  0.0000E+00  0.0000E+00  0.2400E-01  0.2400E-01
    -33.732  0.0000E+00  0.0000E+00  0.2400E-01  0.2400E-01
    -33.538  0.0000E+00  0.0000E+00  0.2400E-01  0.2400E-01
    -33.345  0.0000E+00  0.0000E+00  0.2400E-01  0.2400E-01
    -33.152  0.0000E+00  0.0000E+00  0.2400E-01  0.2400E-01
    -32.958  0.0000E+00  0.0000E+00  0.2400E-01  0.2400E-01
    -32.765  0.0000E+00  0.0000E+00  0.2400E-01  0.2400E-01
    -32.572  0.0000E+00  0.0000E+00  0.2400E-01  0.2400E-01
    -32.378  0.0000E+00  0.0000E+00  0.2400E-01  0.2400E-01
    -32.185  0.0000E+00  0.0000E+00  0.2400E-01  0.2400E-01
    -31.991  0.0000E+00  0.0000E+00  0.2400E-01  0.2400E-01
    -31.798  0.0000E+00  0.0000E+00  0.2400E-01  0.2400E-01
    -31.605  0.0000E+00  0.0000E+00  0.2400E-01  0.2400E-01
    -31.411  0.0000E+00  0.0000E+00  0.2400E-01  0.2400E-01
    -31.218  0.0000E+00  0.0000E+00  0.2400E-01  0.2400E-01
    -31.025  0.0000E+00  0.0000E+00  0.2400E-01  0.2400E-01
    -30.831  0.0000E+00  0.0000E+00  0.2400E-01  0.2400E-01
    -30.638  0.0000E+00  0.0000E+00  0.2400E-01  0.2400E-01
    -30.444  0.0000E+00  0.0000E+00  0.2400E-01  0.2400E-01
    -30.251  0.0000E+00  0.0000E+00  0.2400E-01  0.2400E-01
    -30.058  0.0000E+00  0.0000E+00  0.2400E-01  0.2400E-01
    -29.864  0.0000E+00  0.0000E+00  0.2400E-01  0.2400E-01
    -29.671  0.0000E+00  0.0000E+00  0.2400E-01  0.2400E-01
    -29.478  0.0000E+00  0.0000E+00  0.2400E-01  0.2400E-01
    -29.284  0.0000E+00  0.0000E+00  0.2400E-01  0.2400E-01
    -29.091  0.0000E+00  0.0000E+00  0.2400E-01  0.2400E-01
    -28.897  0.0000E+00  0.0000E+00  0.2400E-01  0.2400E-01
    -28.704  0.0000E+00  0.0000E+00  0.2400E-01  0.2400E-01
    -28.511  0.0000E+00  0.0000E+00  0.2400E-01  0.2400E-01
    -28.317  0.0000E+00  0.0000E+00  0.2400E-01  0.2400E-01
    -28.124  0.0000E+00  0.0000E+00  0.2400E-01  0.2400E-01
    -27.931  0.0000E+00  0.0000E+00  0.2400E-01  0.2400E-01
    -27.737  0.0000E+00  0.0000E+00  0.2400E-01  0.2400E-01
    -27.544  0.0000E+00  0.0000E+00  0.2400E-01  0.2400E-01
    -27.350  0.0000E+00  0.0000E+00  0.2400E-01  0.2400E-01
    -27.157  0.0000E+00  0.0000E+00  0.2400E-01  0.2400E-01
    -26.964  0.0000E+00  0.0000E+00  0.2400E-01  0.2400E-01
    -26.770  0.0000E+00  0.0000E+00  0.2400E-01  0.2400E-01
    -26.577  0.0000E+00  0.0000E+00  0.2400E-01  0.2400E-01
    -26.383  0.0000E+00  0.0000E+00  0.2400E-01  0.2400E-01
    -26.190  0.0000E+00  0.0000E+00  0.2400E-01  0.2400E-01
    -25.997  0.0000E+00  0.0000E+00  0.2400E-01  0.2400E-01
    -25.803  0.0000E+00  0.0000E+00  0.2400E-01  0.2400E-01
    -25.610  0.0000E+00  0.0000E+00  0.2400E-01  0.2400E-01
    -25.417  0.0000E+00  0.0000E+00  0.2400E-01  0.2400E-01
    -25.223  0.0000E+00  0.0000E+00  0.2400E-01  0.2400E-01
    -25.030  0.0000E+00  0.0000E+00  0.2400E-01  0.2400E-01
    -24.836  0.0000E+00  0.0000E+00  0.2400E-01  0.2400E-01
    -24.643  0.0000E+00  0.0000E+00  0.2400E-01  0.2400E-01
    -24.450  0.0000E+00  0.0000E+00  0.2400E-01  0.2400E-01
    -24.256  0.0000E+00  0.0000E+00  0.2400E-01  0.2400E-01
    -24.063  0.0000E+00  0.0000E+00  0.2400E-01  0.2400E-01
    -23.870  0.0000E+00  0.0000E+00  0.2400E-01  0.2400E-01
    -23.676  0.0000E+00  0.0000E+00  0.2400E-01  0.2400E-01
    -23.483  0.0000E+00  0.0000E+00  0.2400E-01  0.2400E-01
    -23.289  0.0000E+00  0.0000E+00  0.2400E-01  0.2400E-01
    -23.096  0.0000E+00  0.0000E+00  0.2400E-01  0.2400E-01
    -22.903  0.0000E+00  0.0000E+00  0.2400E-01  0.2400E-01
    -22.709  0.0000E+00  0.0000E+00  0.2400E-01  0.2400E-01
    -22.516  0.0000E+00  0.0000E+00  0.2400E-01  0.2400E-01
    -22.323  0.0000E+00  0.0000E+00  0.2400E-01  0.2400E-01
    -22.129  0.0000E+00  0.0000E+00  0.2400E-01  0.2400E-01
    -21.936  0.0000E+00  0.0000E+00  0.2400E-01  0.2400E-01
    -21.742  0.0000E+00  0.0000E+00  0.2400E-01  0.2400E-01
    -21.549  0.0000E+00  0.0000E+00  0.2400E-01  0.2400E-01
    -21.356  0.0000E+00  0.0000E+00  0.2400E-01  0.2400E-01
    -21.162  0.0000E+00  0.0000E+00  0.2400E-01  0.2400E-01
    -20.969  0.0000E+00  0.0000E+00  0.2400E-01  0.2400E-01
    -20.776  0.0000E+00  0.0000E+00  0.2400E-01  0.2400E-01
    -20.582  0.0000E+00  0.0000E+00  0.2400E-01  0.2400E-01
    -20.389  0.0000E+00  0.0000E+00  0.2400E-01  0.2400E-01
    -20.195  0.0000E+00  0.0000E+00  0.2400E-01  0.2400E-01
    -20.002  0.0000E+00  0.0000E+00  0.2400E-01  0.2400E-01
    -19.809  0.0000E+00  0.0000E+00  0.2400E-01  0.2400E-01
    -19.615  0.0000E+00  0.0000E+00  0.2400E-01  0.2400E-01
    -19.422  0.0000E+00  0.0000E+00  0.2400E-01  0.2400E-01
    -19.229  0.0000E+00  0.0000E+00  0.2400E-01  0.2400E-01
    -19.035  0.0000E+00  0.0000E+00  0.2400E-01  0.2400E-01
    -18.842  0.0000E+00  0.0000E+00  0.2400E-01  0.2400E-01
    -18.648  0.0000E+00  0.0000E+00  0.2400E-01  0.2400E-01
    -18.455  0.0000E+00  0.0000E+00  0.2400E-01  0.2400E-01
    -18.262  0.0000E+00  0.0000E+00  0.2400E-01  0.2400E-01
    -18.068  0.0000E+00  0.0000E+00  0.2400E-01  0.2400E-01
    -17.875  0.0000E+00  0.0000E+00  0.2400E-01  0.2400E-01
    -17.682  0.0000E+00  0.0000E+00  0.2400E-01  0.2400E-01
    -17.488  0.0000E+00  0.0000E+00  0.2400E-01  0.2400E-01
    -17.295  0.0000E+00  0.0000E+00  0.2400E-01  0.2400E-01
    -17.101  0.0000E+00  0.0000E+00  0.2400E-01  0.2400E-01
    -16.908  0.0000E+00  0.0000E+00  0.2400E-01  0.2400E-01
    -16.715  0.0000E+00  0.0000E+00  0.2400E-01  0.2400E-01
    -16.521  0.0000E+00  0.0000E+00  0.2400E-01  0.2400E-01
    -16.328  0.0000E+00  0.0000E+00  0.2400E-01  0.2400E-01
    -16.135  0.0000E+00  0.0000E+00  0.2400E-01  0.2400E-01
    -15.941  0.0000E+00  0.0000E+00  0.2400E-01  0.2400E-01
    -15.748  0.0000E+00  0.0000E+00  0.2400E-01  0.2400E-01
    -15.554  0.0000E+00  0.0000E+00  0.2400E-01  0.2400E-01
    -15.361  0.0000E+00  0.0000E+00  0.2400E-01  0.2400E-01
    -15.168  0.0000E+00  0.0000E+00  0.2400E-01  0.2400E-01
    -14.974  0.0000E+00  0.0000E+00  0.2400E-01  0.2400E-01
    -14.781  0.0000E+00  0.0000E+00  0.2400E-01  0.2400E-01
    -14.588  0.0000E+00  0.0000E+00  0.2400E-01  0.2400E-01
    -14.394  0.0000E+00  0.0000E+00  0.2400E-01  0.2400E-01
    -14.201  0.0000E+00  0.0000E+00  0.2400E-01  0.2400E-01
    -14.007  0.0000E+00  0.0000E+00  0.2400E-01  0.2400E-01
    -13.814  0.0000E+00  0.0000E+00  0.2400E-01  0.2400E-01
    -13.621  0.0000E+00  0.0000E+00  0.2400E-01  0.2400E-01
    -13.427  0.0000E+00  0.0000E+00  0.2400E-01  0.2400E-01
    -13.234  0.0000E+00  0.0000E+00  0.2400E-01  0.2400E-01
    -13.041  0.1971E-02  0.1971E-02  0.2438E-01  0.2438E-01
    -12.847  0.1791E-01  0.1791E-01  0.2784E-01  0.2784E-01
    -12.654  0.1539E-01  0.1539E-01  0.3082E-01  0.3082E-01
    -12.460  0.6098E-02  0.6098E-02  0.3200E-01  0.3200E-01
    -12.267  0.0000E+00  0.0000E+00  0.3200E-01  0.3200E-01
    -12.074  0.0000E+00  0.0000E+00  0.3200E-01  0.3200E-01
    -11.880  0.0000E+00  0.0000E+00  0.3200E-01  0.3200E-01
    -11.687  0.0000E+00  0.0000E+00  0.3200E-01  0.3200E-01
    -11.494  0.0000E+00  0.0000E+00  0.3200E-01  0.3200E-01
    -11.300  0.0000E+00  0.0000E+00  0.3200E-01  0.3200E-01
    -11.107  0.0000E+00  0.0000E+00  0.3200E-01  0.3200E-01
    -10.913  0.0000E+00  0.0000E+00  0.3200E-01  0.3200E-01
    -10.720  0.0000E+00  0.0000E+00  0.3200E-01  0.3200E-01
    -10.527  0.0000E+00  0.0000E+00  0.3200E-01  0.3200E-01
    -10.333  0.1517E-06  0.1517E-06  0.3200E-01  0.3200E-01
    -10.140  0.1544E-01  0.1544E-01  0.3499E-01  0.3499E-01
     -9.947  0.2187E-01  0.2187E-01  0.3922E-01  0.3922E-01
     -9.753  0.2107E-01  0.2107E-01  0.4330E-01  0.4330E-01
     -9.560  0.3642E-02  0.3642E-02  0.4400E-01  0.4400E-01
     -9.366  0.0000E+00  0.0000E+00  0.4400E-01  0.4400E-01
     -9.173  0.0000E+00  0.0000E+00  0.4400E-01  0.4400E-01
     -8.980  0.0000E+00  0.0000E+00  0.4400E-01  0.4400E-01
     -8.786  0.1780E-02  0.1780E-02  0.4434E-01  0.4434E-01
     -8.593  0.3391E-02  0.3391E-02  0.4500E-01  0.4500E-01
     -8.400  0.9832E-04  0.9832E-04  0.4502E-01  0.4502E-01
     -8.206  0.1024E-01  0.1024E-01  0.4700E-01  0.4700E-01
     -8.013  0.0000E+00  0.0000E+00  0.4700E-01  0.4700E-01
     -7.819  0.0000E+00  0.0000E+00  0.4700E-01  0.4700E-01
     -7.626  0.1115E-04  0.1115E-04  0.4700E-01  0.4700E-01
     -7.433  0.5160E-02  0.5160E-02  0.4800E-01  0.4800E-01
     -7.239  0.0000E+00  0.0000E+00  0.4800E-01  0.4800E-01
     -7.046  0.0000E+00  0.0000E+00  0.4800E-01  0.4800E-01
     -6.853  0.0000E+00  0.0000E+00  0.4800E-01  0.4800E-01
     -6.659  0.0000E+00  0.0000E+00  0.4800E-01  0.4800E-01
     -6.466  0.0000E+00  0.0000E+00  0.4800E-01  0.4800E-01
     -6.272  0.0000E+00  0.0000E+00  0.4800E-01  0.4800E-01
     -6.079  0.1131E-02  0.1131E-02  0.4822E-01  0.4822E-01
     -5.886  0.4040E-02  0.4040E-02  0.4900E-01  0.4900E-01
     -5.692  0.1254E-02  0.1254E-02  0.4924E-01  0.4924E-01
     -5.499  0.1137E-01  0.1137E-01  0.5144E-01  0.5144E-01
     -5.306  0.2888E-02  0.2888E-02  0.5200E-01  0.5200E-01
     -5.112  0.0000E+00  0.0000E+00  0.5200E-01  0.5200E-01
     -4.919  0.0000E+00  0.0000E+00  0.5200E-01  0.5200E-01
     -4.725  0.0000E+00  0.0000E+00  0.5200E-01  0.5200E-01
     -4.532  0.0000E+00  0.0000E+00  0.5200E-01  0.5200E-01
     -4.339  0.0000E+00  0.0000E+00  0.5200E-01  0.5200E-01
     -4.145  0.0000E+00  0.0000E+00  0.5200E-01  0.5200E-01
     -3.952  0.0000E+00  0.0000E+00  0.5200E-01  0.5200E-01
     -3.759  0.0000E+00  0.0000E+00  0.5200E-01  0.5200E-01
     -3.565  0.0000E+00  0.0000E+00  0.5200E-01  0.5200E-01
     -3.372  0.0000E+00  0.0000E+00  0.5200E-01  0.5200E-01
     -3.178  0.3254E-02  0.3254E-02  0.5263E-01  0.5263E-01
     -2.985  0.1226E-01  0.1226E-01  0.5500E-01  0.5500E-01
     -2.792  0.3776E-02  0.3776E-02  0.5573E-01  0.5573E-01
     -2.598  0.1165E-01  0.1165E-01  0.5798E-01  0.5798E-01
     -2.405  0.1093E-01  0.1093E-01  0.6010E-01  0.6010E-01
     -2.212  0.1524E-01  0.1524E-01  0.6305E-01  0.6305E-01
     -2.018  0.4912E-02  0.4912E-02  0.6400E-01  0.6400E-01
     -1.825  0.0000E+00  0.0000E+00  0.6400E-01  0.6400E-01
     -1.631  0.9640E-03  0.9640E-03  0.6419E-01  0.6419E-01
     -1.438  0.1860E-01  0.1860E-01  0.6778E-01  0.6778E-01
     -1.245  0.2530E-01  0.2530E-01  0.7267E-01  0.7267E-01
     -1.051  0.1678E-01  0.1678E-01  0.7592E-01  0.7592E-01
     -0.858  0.4063E-03  0.4063E-03  0.7600E-01  0.7600E-01
     -0.665  0.5089E-06  0.5089E-06  0.7600E-01  0.7600E-01
     -0.471  0.1055E-01  0.1055E-01  0.7804E-01  0.7804E-01
     -0.278  0.1217E-01  0.1217E-01  0.8039E-01  0.8039E-01
     -0.084  0.1618E-01  0.1618E-01  0.8352E-01  0.8352E-01
      0.109  0.2484E-01  0.2484E-01  0.8833E-01  0.8833E-01
      0.302  0.2276E-01  0.2276E-01  0.9274E-01  0.9274E-01
      0.496  0.1554E-01  0.1554E-01  0.9574E-01  0.9574E-01
      0.689  0.3400E-02  0.3400E-02  0.9640E-01  0.9640E-01
      0.882  0.1555E-01  0.1555E-01  0.9941E-01  0.9941E-01
      1.076  0.1869E-01  0.1869E-01  0.1030E+00  0.1030E+00
      1.269  0.2018E-01  0.2018E-01  0.1069E+00  0.1069E+00
      1.463  0.2242E-01  0.2242E-01  0.1113E+00  0.1113E+00
      1.656  0.2154E-01  0.2154E-01  0.1154E+00  0.1154E+00
      1.849  0.8140E-02  0.8140E-02  0.1170E+00  0.1170E+00
      2.043  0.5710E-02  0.5710E-02  0.1181E+00  0.1181E+00
      2.236  0.9756E-02  0.9756E-02  0.1200E+00  0.1200E+00
      2.429  0.0000E+00  0.0000E+00  0.1200E+00  0.1200E+00
      2.623  0.0000E+00  0.0000E+00  0.1200E+00  0.1200E+00
      2.816  0.0000E+00  0.0000E+00  0.1200E+00  0.1200E+00
      3.010  0.0000E+00  0.0000E+00  0.1200E+00  0.1200E+00
      3.203  0.0000E+00  0.0000E+00  0.1200E+00  0.1200E+00
      3.396  0.0000E+00  0.0000E+00  0.1200E+00  0.1200E+00
      3.590  0.0000E+00  0.0000E+00  0.1200E+00  0.1200E+00
      3.783  0.0000E+00  0.0000E+00  0.1200E+00  0.1200E+00
      3.976  0.0000E+00  0.0000E+00  0.1200E+00  0.1200E+00
      4.170  0.0000E+00  0.0000E+00  0.1200E+00  0.1200E+00
      4.363  0.9666E-11  0.9666E-11  0.1200E+00  0.1200E+00
      4.557  0.5140E-02  0.5140E-02  0.1210E+00  0.1210E+00
      4.750  0.0000E+00  0.0000E+00  0.1210E+00  0.1210E+00
      4.943  0.0000E+00  0.0000E+00  0.1210E+00  0.1210E+00
      5.137  0.8680E-07  0.8680E-07  0.1210E+00  0.1210E+00
      5.330  0.5766E-02  0.5766E-02  0.1221E+00  0.1221E+00
      5.523  0.9733E-02  0.9733E-02  0.1240E+00  0.1240E+00
      5.717  0.0000E+00  0.0000E+00  0.1240E+00  0.1240E+00
      5.910  0.9000E-03  0.9000E-03  0.1242E+00  0.1242E+00
      6.104  0.1457E-01  0.1457E-01  0.1270E+00  0.1270E+00
      6.297  0.1328E-01  0.1328E-01  0.1296E+00  0.1296E+00
      6.490  0.2332E-02  0.2332E-02  0.1300E+00  0.1300E+00
      6.684  0.1289E-01  0.1289E-01  0.1325E+00  0.1325E+00
      6.877  0.8841E-02  0.8841E-02  0.1342E+00  0.1342E+00
      7.070  0.9259E-02  0.9259E-02  0.1360E+00  0.1360E+00
      7.264  0.5672E-02  0.5672E-02  0.1371E+00  0.1371E+00
      7.457  0.6498E-02  0.6498E-02  0.1384E+00  0.1384E+00
      7.651  0.1085E-01  0.1085E-01  0.1405E+00  0.1405E+00
      7.844  0.1319E-01  0.1319E-01  0.1430E+00  0.1430E+00
      8.037  0.1050E-01  0.1050E-01  0.1450E+00  0.1450E+00
      8.231  0.1398E-01  0.1398E-01  0.1477E+00  0.1477E+00
      8.424  0.1242E-01  0.1242E-01  0.1502E+00  0.1502E+00
      8.617  0.1541E-01  0.1541E-01  0.1531E+00  0.1531E+00
      8.811  0.1340E-01  0.1340E-01  0.1557E+00  0.1557E+00
      9.004  0.1801E-01  0.1801E-01  0.1592E+00  0.1592E+00
      9.198  0.1515E-01  0.1515E-01  0.1621E+00  0.1621E+00
      9.391  0.1996E-01  0.1996E-01  0.1660E+00  0.1660E+00
      9.584  0.1678E-01  0.1679E-01  0.1693E+00  0.1693E+00
      9.778  0.1807E-01  0.1799E-01  0.1727E+00  0.1727E+00
      9.971  0.1389E-01  0.1420E-01  0.1754E+00  0.1755E+00
     10.165  0.2915E-02  0.2677E-02  0.1760E+00  0.1760E+00
     10.358  0.0000E+00  0.0000E+00  0.1760E+00  0.1760E+00
     10.551  0.0000E+00  0.0000E+00  0.1760E+00  0.1760E+00
     10.745  0.0000E+00  0.0000E+00  0.1760E+00  0.1760E+00
     10.938  0.0000E+00  0.0000E+00  0.1760E+00  0.1760E+00
     11.131  0.0000E+00  0.0000E+00  0.1760E+00  0.1760E+00
     11.325  0.0000E+00  0.0000E+00  0.1760E+00  0.1760E+00
     11.518  0.0000E+00  0.0000E+00  0.1760E+00  0.1760E+00
     11.712  0.0000E+00  0.0000E+00  0.1760E+00  0.1760E+00
     11.905  0.0000E+00  0.0000E+00  0.1760E+00  0.1760E+00
     12.098  0.0000E+00  0.0000E+00  0.1760E+00  0.1760E+00
     12.292  0.0000E+00  0.0000E+00  0.1760E+00  0.1760E+00
     12.485  0.0000E+00  0.0000E+00  0.1760E+00  0.1760E+00
     12.678  0.0000E+00  0.0000E+00  0.1760E+00  0.1760E+00
