 vasp.6.4.1 05Apr23 (build Jun 07 2023 15:38:11) complex                        
  
 executed on             LinuxIFC date 2023.10.19  05:26:05
 running  128 mpi-ranks, with    1 threads/rank, on    1 nodes
 distrk:  each k-point on  128 cores,    1 groups
 distr:  one band on NCORE=  32 cores,    4 groups


--------------------------------------------------------------------------------------------------------


 INCAR:
   GGA = PE
   PREC = Accu
   EDIFF = 1.e-6
   EDIFFG = -1.e-3
   ENCUT = 520.
   NELM = 100
   NELMDL = -10
   LASPH = .TRUE.
   LREAL = Auto
   LMAXMIX = 4
   ISPIN = 2
   LDIAG = .TRUE.
   LPLANE = .TRUE.
   IVDW = 12
   SIGMA = 0.03
   ISMEAR = 0
   NSW = 1000    number of steps for IOM
   IBRION = 2    ionic relax: 0-MD 1-quasi-New 2-CG
   ISIF = 2    ionic relaxation + stress tensor calcn.
   LCHARG = .FALSE.
   LWAVE = .FALSE.
   ALGO = F
   KPAR = 1
   NPAR = 4
   POTIM = 0.2

 POTCAR:    PAW_PBE Li_sv_GW 25Mar2010            
 POTCAR:    PAW_PBE P_GW 19Mar2012                
 POTCAR:    PAW_PBE S_GW 19Mar2012                
 POTCAR:    PAW_PBE Cl_GW 19Mar2012               
 -----------------------------------------------------------------------------
|                                                                             |
|           W    W    AA    RRRRR   N    N  II  N    N   GGGG   !!!           |
|           W    W   A  A   R    R  NN   N  II  NN   N  G    G  !!!           |
|           W    W  A    A  R    R  N N  N  II  N N  N  G       !!!           |
|           W WW W  AAAAAA  RRRRR   N  N N  II  N  N N  G  GGG   !            |
|           WW  WW  A    A  R   R   N   NN  II  N   NN  G    G                |
|           W    W  A    A  R    R  N    N  II  N    N   GGGG   !!!           |
|                                                                             |
|     You use a magnetic or noncollinear calculation, but did not specify     |
|     the initial magnetic moment with the MAGMOM tag. Note that a            |
|     default of 1 will be used for all atoms. This ferromagnetic setup       |
|     may break the symmetry of the crystal, in particular it may rule        |
|     out finding an antiferromagnetic solution. Thence, we recommend         |
|     setting the initial magnetic moment manually or verifying carefully     |
|     that this magnetic setup is desired.                                    |
|                                                                             |
 -----------------------------------------------------------------------------

 POTCAR:    PAW_PBE Li_sv_GW 25Mar2010            
   SHA256 =  24a6ace15a582615486b36ce4dc781b048409f4015b7684ed1273ae395fa2fdc Li_sv_GW/POTCAR       
   COPYR  = (c) Copyright 25Mar2010 Georg Kresse                                                    
   COPYR  = This file is part of the software VASP. Any use, copying, and all other rights are regul
   COPYR  = If you do not have a valid VASP license, you may not use, copy or distribute this file. 
   VRHFIN =Li: 1s2s                                                                                 
   LEXCH  = PE                                                                                      
   EATOM  =   200.9989 eV,   14.7730 Ry                                                             
                                                                                                    
   TITEL  = PAW_PBE Li_sv_GW 25Mar2010                                                              
   LULTRA =        F    use ultrasoft PP ?                                                          
   IUNSCR =        0    unscreen: 0-lin 1-nonlin 2-no                                               
   RPACOR =    0.000    partial core radius                                                         
   POMASS =    7.010; ZVAL   =    3.000    mass and valenz                                          
   RCORE  =    1.500    outmost cutoff radius                                                       
   RWIGS  =    1.600; RWIGS  =    0.847    wigner-seitz radius (au A)                               
   ENMAX  =  433.699; ENMIN  =  325.274 eV                                                          
   RCLOC  =    1.003    cutoff for local pot                                                        
   LCOR   =        T    correct aug charges                                                         
   LPAW   =        T    paw PP                                                                      
   EAUG   = 1041.699                                                                                
   RMAX   =    1.536    core radius for proj-oper                                                   
   RAUG   =    1.300    factor for augmentation sphere                                              
   RDEP   =    1.520    radius for radial grids                                                     
   RDEPT  =    1.300    core radius for aug-charge                                                  
                                                                                                    
   Atomic configuration                                                                             
    4 entries                                                                                       
     n  l   j            E        occ.                                                              
     1  0  0.50       -53.3604   2.0000                                                             
     1  0  0.50       -52.0001   0.0000                                                             
     2  1  0.50        -1.5636   1.0000                                                             
     3  2  1.50        -1.3606   0.0000                                                             
   Description                                                                                      
     l       E           TYP  RCUT    TYP  RCUT                                                     
     0    -53.3603633     23  1.200                                                                 
     0    -52.0001064     23  1.200                                                                 
     0    176.8757380     23  1.300                                                                 
     1     -1.5635925     23  1.500                                                                 
     1    108.8466080     23  1.500                                                                 
     2     81.6349560     23  1.500                                                                 
  local pseudopotential read in
  kinetic energy density of atom read in
  atomic valenz-charges read in
  non local Contribution for L=           0  read in
    real space projection operators read in
  non local Contribution for L=           0  read in
    real space projection operators read in
  non local Contribution for L=           0  read in
    real space projection operators read in
  non local Contribution for L=           1  read in
    real space projection operators read in
  non local Contribution for L=           1  read in
    real space projection operators read in
  non local Contribution for L=           2  read in
    real space projection operators read in
    PAW grid and wavefunctions read in
 
   number of l-projection  operators is LMAX  =           6
   number of lm-projection operators is LMMAX =          14
 
 POTCAR:    PAW_PBE P_GW 19Mar2012                
   SHA256 =  715c28f2291d37b61637ce89646c59f66f71c8b8d8bfba631e5feb9f7b42defe P_GW/POTCAR           
   COPYR  = (c) Copyright 19Mar2012 Georg Kresse                                                    
   COPYR  = This file is part of the software VASP. Any use, copying, and all other rights are regul
   COPYR  = If you do not have a valid VASP license, you may not use, copy or distribute this file. 
   VRHFIN =P : s2p3                                                                                 
   LEXCH  = PE                                                                                      
   EATOM  =   176.0430 eV,   12.9388 Ry                                                             
                                                                                                    
   TITEL  = PAW_PBE P_GW 19Mar2012                                                                  
   LULTRA =        F    use ultrasoft PP ?                                                          
   IUNSCR =        1    unscreen: 0-lin 1-nonlin 2-no                                               
   RPACOR =    1.400    partial core radius                                                         
   POMASS =   30.974; ZVAL   =    5.000    mass and valenz                                          
   RCORE  =    2.000    outmost cutoff radius                                                       
   RWIGS  =    1.900; RWIGS  =    1.005    wigner-seitz radius (au A)                               
   ENMAX  =  255.040; ENMIN  =  191.280 eV                                                          
   ICORE  =        3    local potential                                                             
   LCOR   =        T    correct aug charges                                                         
   LPAW   =        T    paw PP                                                                      
   EAUG   =  499.732                                                                                
   DEXC   =    0.000                                                                                
   RMAX   =    2.047    core radius for proj-oper                                                   
   RAUG   =    1.300    factor for augmentation sphere                                              
   RDEP   =    2.059    radius for radial grids                                                     
   RDEPT  =    1.900    core radius for aug-charge                                                  
                                                                                                    
   Atomic configuration                                                                             
    7 entries                                                                                       
     n  l   j            E        occ.                                                              
     1  0  0.50     -2084.0982   2.0000                                                             
     2  0  0.50      -173.9859   2.0000                                                             
     2  1  1.50      -124.4865   6.0000                                                             
     3  0  0.50       -13.9692   2.0000                                                             
     3  1  0.50        -5.5067   3.0000                                                             
     3  2  1.50        -6.8029   0.0000                                                             
     4  3  2.50        -1.3606   0.0000                                                             
   Description                                                                                      
     l       E           TYP  RCUT    TYP  RCUT                                                     
     0    -13.9691528     23  1.900                                                                 
     0    102.0436950     23  1.900                                                                 
     1     -5.5066939     23  1.900                                                                 
     1    102.0436950     23  1.900                                                                 
     2     -8.1634956     23  2.000                                                                 
     2     81.6349560     23  2.000                                                                 
     3     27.2116520     23  2.000                                                                 
  local pseudopotential read in
  partial core-charges read in
  partial kinetic energy density read in
  kinetic energy density of atom read in
  atomic valenz-charges read in
  non local Contribution for L=           0  read in
    real space projection operators read in
  non local Contribution for L=           0  read in
    real space projection operators read in
  non local Contribution for L=           1  read in
    real space projection operators read in
  non local Contribution for L=           1  read in
    real space projection operators read in
  non local Contribution for L=           2  read in
    real space projection operators read in
  non local Contribution for L=           2  read in
    real space projection operators read in
    PAW grid and wavefunctions read in
 
   number of l-projection  operators is LMAX  =           6
   number of lm-projection operators is LMMAX =          18
 
 POTCAR:    PAW_PBE S_GW 19Mar2012                
   SHA256 =  357db9cfb0783579b2eebe03197c2d807131fea8ea663b1fcfb6ce2fa75af011 S_GW/POTCAR           
   COPYR  = (c) Copyright 19Mar2012 Georg Kresse                                                    
   COPYR  = This file is part of the software VASP. Any use, copying, and all other rights are regul
   COPYR  = If you do not have a valid VASP license, you may not use, copy or distribute this file. 
   VRHFIN =S : s2p4                                                                                 
   LEXCH  = PE                                                                                      
   EATOM  =   276.8230 eV,   20.3459 Ry                                                             
                                                                                                    
   TITEL  = PAW_PBE S_GW 19Mar2012                                                                  
   LULTRA =        F    use ultrasoft PP ?                                                          
   IUNSCR =        1    unscreen: 0-lin 1-nonlin 2-no                                               
   RPACOR =    1.400    partial core radius                                                         
   POMASS =   32.066; ZVAL   =    6.000    mass and valenz                                          
   RCORE  =    1.900    outmost cutoff radius                                                       
   RWIGS  =    1.900; RWIGS  =    1.005    wigner-seitz radius (au A)                               
   ENMAX  =  258.689; ENMIN  =  194.016 eV                                                          
   ICORE  =        3    local potential                                                             
   LCOR   =        T    correct aug charges                                                         
   LPAW   =        T    paw PP                                                                      
   EAUG   =  488.319                                                                                
   DEXC   =    0.000                                                                                
   RMAX   =    1.942    core radius for proj-oper                                                   
   RAUG   =    1.300    factor for augmentation sphere                                              
   RDEP   =    1.954    radius for radial grids                                                     
   RDEPT  =    1.900    core radius for aug-charge                                                  
                                                                                                    
   Atomic configuration                                                                             
    7 entries                                                                                       
     n  l   j            E        occ.                                                              
     1  0  0.50     -2405.8406   2.0000                                                             
     2  0  0.50      -211.7007   2.0000                                                             
     2  1  1.50      -156.4958   6.0000                                                             
     3  0  0.50       -17.2562   2.0000                                                             
     3  1  0.50        -7.0085   4.0000                                                             
     3  2  1.50        -8.1635   0.0000                                                             
     4  3  2.50        -1.3606   0.0000                                                             
   Description                                                                                      
     l       E           TYP  RCUT    TYP  RCUT                                                     
     0    -17.2561639     23  1.700                                                                 
     0     88.4378690     23  1.900                                                                 
     1     -7.0085399     23  1.900                                                                 
     1     88.4378690     23  1.900                                                                 
     2    -10.8846608     23  1.900                                                                 
     2     54.4233040     23  1.900                                                                 
     3     27.2116520     23  1.800                                                                 
  local pseudopotential read in
  partial core-charges read in
  partial kinetic energy density read in
  kinetic energy density of atom read in
  atomic valenz-charges read in
  non local Contribution for L=           0  read in
    real space projection operators read in
  non local Contribution for L=           0  read in
    real space projection operators read in
  non local Contribution for L=           1  read in
    real space projection operators read in
  non local Contribution for L=           1  read in
    real space projection operators read in
  non local Contribution for L=           2  read in
    real space projection operators read in
  non local Contribution for L=           2  read in
    real space projection operators read in
    PAW grid and wavefunctions read in
 
   number of l-projection  operators is LMAX  =           6
   number of lm-projection operators is LMMAX =          18
 
 POTCAR:    PAW_PBE Cl_GW 19Mar2012               
   SHA256 =  3ef3b3169d6a9a89979f58b4cf17d927a58518fc660d8883d88cacaee8175441 Cl_GW/POTCAR          
   COPYR  = (c) Copyright 19Mar2012 Georg Kresse                                                    
   COPYR  = This file is part of the software VASP. Any use, copying, and all other rights are regul
   COPYR  = If you do not have a valid VASP license, you may not use, copy or distribute this file. 
   VRHFIN =Cl: s2p5                                                                                 
   LEXCH  = PE                                                                                      
   EATOM  =   409.7259 eV,   30.1140 Ry                                                             
                                                                                                    
   TITEL  = PAW_PBE Cl_GW 19Mar2012                                                                 
   LULTRA =        F    use ultrasoft PP ?                                                          
   IUNSCR =        1    unscreen: 0-lin 1-nonlin 2-no                                               
   RPACOR =    1.400    partial core radius                                                         
   POMASS =   35.453; ZVAL   =    7.000    mass and valenz                                          
   RCORE  =    1.900    outmost cutoff radius                                                       
   RWIGS  =    1.900; RWIGS  =    1.005    wigner-seitz radius (au A)                               
   ENMAX  =  262.472; ENMIN  =  196.854 eV                                                          
   ICORE  =        3    local potential                                                             
   LCOR   =        T    correct aug charges                                                         
   LPAW   =        T    paw PP                                                                      
   EAUG   =  456.703                                                                                
   DEXC   =    0.000                                                                                
   RMAX   =    1.945    core radius for proj-oper                                                   
   RAUG   =    1.300    factor for augmentation sphere                                              
   RDEP   =    2.020    radius for radial grids                                                     
   RDEPT  =    1.900    core radius for aug-charge                                                  
                                                                                                    
   Atomic configuration                                                                             
    7 entries                                                                                       
     n  l   j            E        occ.                                                              
     1  0  0.50     -2751.1850   2.0000                                                             
     2  0  0.50      -252.6861   2.0000                                                             
     2  1  1.50      -191.6157   6.0000                                                             
     3  0  0.50       -20.6916   2.0000                                                             
     3  1  0.50        -8.5949   5.0000                                                             
     3  2  1.50        -9.5241   0.0000                                                             
     4  3  2.50        -9.5241   0.0000                                                             
   Description                                                                                      
     l       E           TYP  RCUT    TYP  RCUT                                                     
     0    -20.6915657     23  1.700                                                                 
     0     95.2407820     23  1.800                                                                 
     1     -8.5948577     23  1.900                                                                 
     1     95.2407820     23  1.900                                                                 
     2    -10.8846608     23  1.900                                                                 
     2     54.4233040     23  1.900                                                                 
     3     27.2116520     23  1.900                                                                 
  local pseudopotential read in
  partial core-charges read in
  partial kinetic energy density read in
  kinetic energy density of atom read in
  atomic valenz-charges read in
  non local Contribution for L=           0  read in
    real space projection operators read in
  non local Contribution for L=           0  read in
    real space projection operators read in
  non local Contribution for L=           1  read in
    real space projection operators read in
  non local Contribution for L=           1  read in
    real space projection operators read in
  non local Contribution for L=           2  read in
    real space projection operators read in
  non local Contribution for L=           2  read in
    real space projection operators read in
    PAW grid and wavefunctions read in
 
   number of l-projection  operators is LMAX  =           6
   number of lm-projection operators is LMMAX =          18
 
 Optimization of the real space projectors (new method)

 maximal supplied QI-value         = 25.13
 optimisation between [QCUT,QGAM] = [ 11.56, 23.12] = [ 37.43,149.72] Ry 
 Optimized for a Real-space Cutoff    1.28 Angstroem

   l    n(q)    QCUT    max X(q) W(low)/X(q) W(high)/X(q)  e(spline) 
   0      9    11.561    87.733    0.11E-03    0.32E-04    0.56E-06
   0      9    11.561    82.800    0.11E-03    0.35E-04    0.56E-06
   0      9    11.561     2.509    0.22E-03    0.42E-04    0.79E-06
   1      8    11.561    12.580    0.94E-04    0.26E-03    0.21E-06
   1      8    11.561     1.319    0.33E-04    0.15E-03    0.19E-06
   2      8    11.561     1.993    0.36E-04    0.89E-04    0.26E-06
 Optimization of the real space projectors (new method)

 maximal supplied QI-value         = 18.90
 optimisation between [QCUT,QGAM] = [ 11.53, 23.24] = [ 37.21,151.29] Ry 
 Optimized for a Real-space Cutoff    1.21 Angstroem

   l    n(q)    QCUT    max X(q) W(low)/X(q) W(high)/X(q)  e(spline) 
   0      8    11.527     8.355    0.73E-04    0.70E-04    0.26E-07
   0      8    11.527     1.401    0.17E-03    0.17E-03    0.63E-07
   1      8    11.527     4.747    0.13E-03    0.17E-03    0.11E-06
   1      8    11.527     2.025    0.16E-03    0.18E-03    0.12E-06
   2      7    11.527     3.169    0.51E-04    0.25E-03    0.60E-07
   2      7    11.527     3.441    0.82E-04    0.22E-03    0.14E-06
 Optimization of the real space projectors (new method)

 maximal supplied QI-value         = 19.84
 optimisation between [QCUT,QGAM] = [ 11.51, 23.22] = [ 37.09,150.92] Ry 
 Optimized for a Real-space Cutoff    1.49 Angstroem

   l    n(q)    QCUT    max X(q) W(low)/X(q) W(high)/X(q)  e(spline) 
   0     10    11.508     7.541    0.34E-04    0.13E-04    0.69E-07
   0     10    11.508     1.809    0.49E-04    0.27E-04    0.14E-06
   1     10    11.508     4.107    0.27E-05    0.41E-05    0.14E-06
   1     10    11.508     2.196    0.26E-05    0.25E-05    0.22E-06
   2      9    11.508     4.265    0.18E-03    0.11E-03    0.81E-06
   2      9    11.508     1.925    0.97E-04    0.76E-04    0.47E-06
 Optimization of the real space projectors (new method)

 maximal supplied QI-value         = 19.84
 optimisation between [QCUT,QGAM] = [ 11.51, 23.22] = [ 37.09,150.92] Ry 
 Optimized for a Real-space Cutoff    1.21 Angstroem

   l    n(q)    QCUT    max X(q) W(low)/X(q) W(high)/X(q)  e(spline) 
   0      8    11.508     6.761    0.57E-04    0.57E-04    0.35E-07
   0      8    11.508     1.642    0.14E-03    0.14E-03    0.91E-07
   1      8    11.508     3.519    0.20E-04    0.72E-04    0.47E-07
   1      8    11.508     2.150    0.27E-04    0.11E-03    0.89E-07
   2      7    11.508     2.976    0.19E-03    0.33E-03    0.16E-06
   2      7    11.508     1.494    0.14E-03    0.29E-03    0.14E-06
  PAW_PBE Li_sv_GW 25Mar2010            :
 energy of atom  1       EATOM= -200.9989
 kinetic energy error for atom=    0.0127 (will be added to EATOM!!)
  PAW_PBE P_GW 19Mar2012                :
 energy of atom  2       EATOM= -176.0430
 kinetic energy error for atom=    0.0011 (will be added to EATOM!!)
  PAW_PBE S_GW 19Mar2012                :
 energy of atom  3       EATOM= -276.8230
 kinetic energy error for atom=    0.0024 (will be added to EATOM!!)
  PAW_PBE Cl_GW 19Mar2012               :
 energy of atom  4       EATOM= -409.7259
 kinetic energy error for atom=    0.0030 (will be added to EATOM!!)
 
 
 POSCAR: Li24 P4 S20 Cl4
  positions in direct lattice
  velocities in cartesian coordinates
 exchange correlation table for  LEXCH =        8
   RHO(1)=    0.500       N(1)  =     2000
   RHO(2)=  100.500       N(2)  =     4000

 VTST: version 4.1, (05/19/21)

 CHAIN: initializing optimizer
 
 OPT: Using VASP Conjugate-Gradient optimizer
 CHAIN: Read ICHAIN            0
 
 POSCAR: Li24 P4 S20 Cl4
  positions in direct lattice
  velocities in cartesian coordinates
 


--------------------------------------------------------------------------------------------------------


 ion  position               nearest neighbor table
   1  0.967  0.358  0.320-
   2  0.982  0.732  0.701-
   3  0.026  0.296  0.683-
   4  0.032  0.794  0.144-
   5  0.176  0.176  0.952-
   6  0.322  0.719  0.013-
   7  0.829  0.222  0.033-
   8  0.709  0.702  0.983-
   9  0.222  0.992  0.229-
  10  0.578  0.962  0.710-
  11  0.845  0.972  0.835-
  12  0.810  0.022  0.221-
  13  0.155  0.713  0.451-
  14  0.310  0.170  0.548-
  15  0.712  0.810  0.511-
  16  0.702  0.215  0.492-
  17  0.212  0.500  0.708-
  18  0.299  0.518  0.202-
  19  0.668  0.464  0.184-
  20  0.793  0.536  0.668-
  21  0.462  0.320  0.850-
  22  0.467  0.806  0.326-
  23  0.525  0.189  0.286-
  24  0.518  0.672  0.785-
  25  0.494  0.504  0.498-  44 2.04  43 2.06  42 2.06  41 2.06
  26  0.507  0.004  1.000-  40 2.05  38 2.05  39 2.05  37 2.07
  27  0.999  0.504  0.997-  36 2.05  34 2.05  35 2.06  33 2.06
  28  0.010  0.006  0.504-  29 2.03  30 2.05  32 2.07  31 2.07
  29  0.145  0.901  0.627-  28 2.03
  30  0.115  0.149  0.387-  28 2.05
  31  0.909  0.863  0.379-  28 2.07
  32  0.871  0.111  0.629-  28 2.07
  33  0.875  0.607  0.137-  27 2.06
  34  0.874  0.395  0.865-  27 2.05
  35  0.115  0.648  0.891-  27 2.06
  36  0.118  0.371  0.112-  27 2.05
  37  0.640  0.129  0.886-  26 2.07
  38  0.620  0.882  0.132-  26 2.05
  39  0.377  0.136  0.104-  26 2.05
  40  0.393  0.893  0.860-  26 2.05
  41  0.630  0.616  0.378-  25 2.06
  42  0.602  0.390  0.642-  25 2.06
  43  0.370  0.649  0.593-  25 2.06
  44  0.379  0.371  0.380-  25 2.04
  45  0.743  0.765  0.748-
  46  0.753  0.252  0.260-
  47  0.252  0.755  0.235-
  48  0.250  0.273  0.752-
  49  0.988  0.015  0.029-
  50  0.006  0.518  0.538-
  51  0.522  0.013  0.479-
  52  0.499  0.534  0.998-
 
  LATTYP: Found a simple cubic cell.
 ALAT       =     9.6477607036
  
  Lattice vectors:
  
 A1 = (   9.6477607036,   0.0000000000,   0.0000000000)
 A2 = (   0.0000000000,   9.6477607036,   0.0000000000)
 A3 = (   0.0000000000,   0.0000000000,   9.6477607036)


Analysis of symmetry for initial positions (statically):
=====================================================================
 Subroutine PRICEL returns:
 Original cell was already a primitive cell.
 

 Routine SETGRP: Setting up the symmetry group for a 
 simple cubic supercell.


 Subroutine GETGRP returns: Found  1 space group operations
 (whereof  1 operations were pure point group operations)
 out of a pool of 48 trial point group operations.


The static configuration has the point symmetry C_1 .


Analysis of symmetry for dynamics (positions and initial velocities):
=====================================================================
 Subroutine PRICEL returns:
 Original cell was already a primitive cell.
 

 Routine SETGRP: Setting up the symmetry group for a 
 simple cubic supercell.


 Subroutine GETGRP returns: Found  1 space group operations
 (whereof  1 operations were pure point group operations)
 out of a pool of 48 trial point group operations.


The dynamic configuration has the point symmetry C_1 .


Analysis of structural, dynamic, and magnetic symmetry:
=====================================================================
 Subroutine PRICEL returns:
 Original cell was already a primitive cell.
 

 Routine SETGRP: Setting up the symmetry group for a 
 simple cubic supercell.


 Subroutine GETGRP returns: Found  1 space group operations
 (whereof  1 operations were pure point group operations)
 out of a pool of 48 trial point group operations.


The overall configuration has the point symmetry C_1 .


 Subroutine INISYM returns: Found  1 space group operations
 (whereof  1 operations are pure point group operations),
 and found     1 'primitive' translations


----------------------------------------------------------------------------------------

                                     Primitive cell                                     

  volume of cell :     898.0067

  direct lattice vectors                    reciprocal lattice vectors
     9.647760704  0.000000000  0.000000000     0.103650995  0.000000000  0.000000000
     0.000000000  9.647760704  0.000000000     0.000000000  0.103650995  0.000000000
     0.000000000  0.000000000  9.647760704     0.000000000  0.000000000  0.103650995

  length of vectors
     9.647760704  9.647760704  9.647760704     0.103650995  0.103650995  0.103650995

  position of ions in fractional coordinates (direct lattice)
     0.966660172  0.358287426  0.320383166
     0.981751440  0.731979034  0.701374366
     0.026003678  0.296117652  0.682879008
     0.031746470  0.793849347  0.144385272
     0.175869406  0.175759548  0.952246620
     0.322020653  0.718663497  0.012665520
     0.829120397  0.221727092  0.033430747
     0.709194795  0.701762362  0.982765198
     0.221622662  0.992201749  0.229050179
     0.578357884  0.962489411  0.710113574
     0.844844317  0.972455438  0.834901685
     0.809858432  0.022037450  0.221120372
     0.154786775  0.712627265  0.450631194
     0.310383705  0.170261739  0.548176154
     0.711745995  0.809595879  0.510989500
     0.702355353  0.214658326  0.491708140
     0.212453178  0.500355887  0.708261337
     0.298612134  0.517581229  0.201678343
     0.667733300  0.463777410  0.184330612
     0.792838748  0.535682307  0.667845045
     0.461590276  0.320085610  0.850060860
     0.467072712  0.805753806  0.326452938
     0.525369462  0.188803309  0.286008929
     0.518134754  0.672480478  0.784732186
     0.494025834  0.503785745  0.498149281
     0.507450293  0.004162882  0.999784806
     0.998991236  0.503829134  0.997456498
     0.010069569  0.005612000  0.504173767
     0.144507611  0.900659225  0.626625149
     0.114602683  0.148588379  0.386731572
     0.909177298  0.863457306  0.378942998
     0.871341172  0.110686439  0.629196573
     0.874612893  0.607261936  0.137311526
     0.873969337  0.394779322  0.865214426
     0.115358026  0.647587781  0.890523817
     0.117637865  0.370742575  0.112273061
     0.640390744  0.128718505  0.886440215
     0.620114055  0.881999610  0.132396472
     0.376839624  0.135935666  0.104381204
     0.392759007  0.893138615  0.859977912
     0.629977661  0.616254741  0.377910257
     0.602217150  0.389517482  0.641959522
     0.370331507  0.649303690  0.592567832
     0.379241488  0.370629370  0.379943867
     0.742929704  0.765198718  0.747787093
     0.753455050  0.252170904  0.259961002
     0.252132354  0.754909069  0.235430901
     0.250150119  0.272909275  0.752089746
     0.987971274  0.015036609  0.029048022
     0.005994449  0.518167197  0.537782857
     0.521648483  0.012705398  0.479142076
     0.499392660  0.534012287  0.998022448

  ion indices of the primitive-cell ions
   primitive index   ion index
                 1           1
                 2           2
                 3           3
                 4           4
                 5           5
                 6           6
                 7           7
                 8           8
                 9           9
                10          10
                11          11
                12          12
                13          13
                14          14
                15          15
                16          16
                17          17
                18          18
                19          19
                20          20
                21          21
                22          22
                23          23
                24          24
                25          25
                26          26
                27          27
                28          28
                29          29
                30          30
                31          31
                32          32
                33          33
                34          34
                35          35
                36          36
                37          37
                38          38
                39          39
                40          40
                41          41
                42          42
                43          43
                44          44
                45          45
                46          46
                47          47
                48          48
                49          49
                50          50
                51          51
                52          52

----------------------------------------------------------------------------------------

 
 
 KPOINTS: Automatic mesh                          

Automatic generation of k-mesh.
 Grid dimensions read from file:
 generate k-points for:    2    2    2

 Generating k-lattice:

  Cartesian coordinates                     Fractional coordinates (reciprocal lattice)
     0.051825498  0.000000000  0.000000000     0.500000000  0.000000000  0.000000000
     0.000000000  0.051825498  0.000000000     0.000000000  0.500000000  0.000000000
     0.000000000  0.000000000  0.051825498     0.000000000  0.000000000  0.500000000

  Length of vectors
     0.051825498  0.051825498  0.051825498

  Shift w.r.t. Gamma in fractional coordinates (k-lattice)
     0.500000000  0.500000000  0.500000000

 
 Subroutine IBZKPT returns following result:
 ===========================================
 
 Found      4 irreducible k-points:
 
 Following reciprocal coordinates:
            Coordinates               Weight
  0.250000  0.250000  0.250000      2.000000
 -0.250000  0.250000  0.250000      2.000000
 -0.250000 -0.250000  0.250000      2.000000
  0.250000 -0.250000  0.250000      2.000000
 
 Following cartesian coordinates:
            Coordinates               Weight
  0.025913  0.025913  0.025913      2.000000
 -0.025913  0.025913  0.025913      2.000000
 -0.025913 -0.025913  0.025913      2.000000
  0.025913 -0.025913  0.025913      2.000000
 


--------------------------------------------------------------------------------------------------------




 Dimension of arrays:
   k-points           NKPTS =      4   k-points in BZ     NKDIM =      4   number of bands    NBANDS=    176
   number of dos      NEDOS =    301   number of ions     NIONS =     52
   non local maximal  LDIM  =      6   non local SUM 2l+1 LMDIM =     18
   total plane-waves  NPLWV = 373248
   max r-space proj   IRMAX =   5799   max aug-charges    IRDMAX=  17740
   dimension x,y,z NGX =    72 NGY =   72 NGZ =   72
   dimension x,y,z NGXF=   144 NGYF=  144 NGZF=  144
   support grid    NGXF=   144 NGYF=  144 NGZF=  144
   ions per type =              24   4  20   4
   NGX,Y,Z   is equivalent  to a cutoff of  12.41, 12.41, 12.41 a.u.
   NGXF,Y,Z  is equivalent  to a cutoff of  24.81, 24.81, 24.81 a.u.

 SYSTEM =  unknown system                          
 POSCAR =  Li24 P4 S20 Cl4                         

 Startparameter for this run:
   NWRITE =      2    write-flag & timer
   PREC   = accu      normal or accurate (medium, high low for compatibility)
   ISTART =      0    job   : 0-new  1-cont  2-samecut
   ICHARG =      2    charge: 1-file 2-atom 10-const
   ISPIN  =      2    spin polarized calculation?
   LNONCOLLINEAR =      F non collinear calculations
   LSORBIT =      F    spin-orbit coupling
   INIWAV =      1    electr: 0-lowe 1-rand  2-diag
   LASPH  =      T    aspherical Exc in radial PAW
 Electronic Relaxation 1
   ENCUT  =  520.0 eV  38.22 Ry    6.18 a.u.  17.94 17.94 17.94*2*pi/ulx,y,z
   ENINI  =  520.0     initial cutoff
   ENAUG  = 1041.7 eV  augmentation charge cutoff
   NELM   =    100;   NELMIN=  2; NELMDL=-10     # of ELM steps 
   EDIFF  = 0.1E-05   stopping-criterion for ELM
   LREAL  =      T    real-space projection
   NLSPLINE    = F    spline interpolate recip. space projectors
   LCOMPAT=      F    compatible to vasp.4.4
   GGA_COMPAT  = T    GGA compatible to vasp.4.4-vasp.4.6
   LMAXPAW     = -100 max onsite density
   LMAXMIX     =    4 max onsite mixed and CHGCAR
   VOSKOWN=      0    Vosko Wilk Nusair interpolation
   ROPT   =   -0.00025  -0.00025  -0.00025  -0.00025
 Ionic relaxation
   EDIFFG = -.1E-02   stopping-criterion for IOM
   NSW    =   1000    number of steps for IOM
   NBLOCK =      1;   KBLOCK =   1000    inner block; outer block 
   IBRION =      2    ionic relax: 0-MD 1-quasi-New 2-CG
   NFREE  =      1    steps in history (QN), initial steepest desc. (CG)
   ISIF   =      2    stress and relaxation
   IWAVPR =     11    prediction:  0-non 1-charg 2-wave 3-comb
   ISYM   =      2    0-nonsym 1-usesym 2-fastsym
   LCORR  =      T    Harris-Foulkes like correction to forces

   POTIM  = 0.2000    time-step for ionic-motion
   TEIN   =    0.0    initial temperature
   TEBEG  =    0.0;   TEEND  =   0.0 temperature during run
   SMASS  =  -3.00    Nose mass-parameter (am)
   estimated Nose-frequenzy (Omega)   =  0.10E-29 period in steps = 0.31E+47 mass=  -0.213E-26a.u.
   SCALEE = 1.0000    scale energy and forces
   NPACO  =    256;   APACO  = 10.0  distance and # of slots for P.C.
   PSTRESS=    0.0 pullay stress

  Mass of Ions in am
   POMASS =   7.01 30.97 32.07 35.45
  Ionic Valenz
   ZVAL   =   3.00  5.00  6.00  7.00
  Atomic Wigner-Seitz radii
   RWIGS  =  -1.00 -1.00 -1.00 -1.00
  virtual crystal weights 
   VCA    =   1.00  1.00  1.00  1.00
   NELECT =     240.0000    total number of electrons
   NUPDOWN=      -1.0000    fix difference up-down

 DOS related values:
   EMIN   =  10.00;   EMAX   =-10.00  energy-range for DOS
   EFERMI =   0.00;   METHOD = LEGACY      
   ISMEAR =     0;   SIGMA  =   0.03  broadening in eV -4-tet -1-fermi 0-gaus

 Electronic relaxation 2 (details)
   IALGO  =     68    algorithm
   LDIAG  =      T    sub-space diagonalisation (order eigenvalues)
   LSUBROT=      F    optimize rotation matrix (better conditioning)
   TURBO    =      0    0=normal 1=particle mesh
   IRESTART =      0    0=no restart 2=restart with 2 vectors
   NREBOOT  =      0    no. of reboots
   NMIN     =      0    reboot dimension
   EREF     =   0.00    reference energy to select bands
   IMIX   =      4    mixing-type and parameters
     AMIX     =   0.40;   BMIX     =  1.00
     AMIX_MAG =   1.60;   BMIX_MAG =  1.00
     AMIN     =   0.10
     WC   =   100.;   INIMIX=   1;  MIXPRE=   1;  MAXMIX= -45

 Intra band minimization:
   WEIMIN = 0.0010     energy-eigenvalue tresh-hold
   EBREAK =  0.14E-08  absolut break condition
   DEPER  =   0.30     relativ break condition  

   TIME   =   0.40     timestep for ELM

  volume/ion in A,a.u.               =      17.27       116.54
  Fermi-wavevector in a.u.,A,eV,Ry     =   1.054513  1.992741 15.129655  1.111998
  Thomas-Fermi vector in A             =   2.189676
 
 Write flags
   LWAVE        =      F    write WAVECAR
   LDOWNSAMPLE  =      F    k-point downsampling of WAVECAR
   LCHARG       =      F    write CHGCAR
   LVTOT        =      F    write LOCPOT, total local potential
   LVHAR        =      F    write LOCPOT, Hartree potential only
   LELF         =      F    write electronic localiz. function (ELF)
   LORBIT       =      0    0 simple, 1 ext, 2 COOP (PROOUT), +10 PAW based schemes


 Dipole corrections
   LMONO  =      F    monopole corrections only (constant potential shift)
   LDIPOL =      F    correct potential (dipole corrections)
   IDIPOL =      0    1-x, 2-y, 3-z, 4-all directions 
   EPSILON=  1.0000000 bulk dielectric constant

 Exchange correlation treatment:
   GGA     =    PE    GGA type
   LEXCH   =     8    internal setting for exchange type
   LIBXC   =     F    Libxc                    
   VOSKOWN =     0    Vosko Wilk Nusair interpolation
   LHFCALC =     F    Hartree Fock is set to
   LHFONE  =     F    Hartree Fock one center treatment
   AEXX    =    0.0000 exact exchange contribution

 Linear response parameters
   LEPSILON=     F    determine dielectric tensor
   LRPA    =     F    only Hartree local field effects (RPA)
   LNABLA  =     F    use nabla operator in PAW spheres
   LVEL    =     F    velocity operator in full k-point grid
   CSHIFT  =0.1000    complex shift for real part using Kramers Kronig
   OMEGAMAX=  -1.0    maximum frequency
   DEG_THRESHOLD= 0.2000000E-02 threshold for treating states as degnerate
   RTIME   =   -0.100 relaxation time in fs
  (WPLASMAI=    0.000 imaginary part of plasma frequency in eV, 0.658/RTIME)
   DFIELD  = 0.0000000 0.0000000 0.0000000 field for delta impulse in time
 
  Optional k-point grid parameters
   LKPOINTS_OPT  =     F    use optional k-point grid
   KPOINTS_OPT_MODE=     1    mode for optional k-point grid
 
 Orbital magnetization related:
   ORBITALMAG=     F  switch on orbital magnetization
   LCHIMAG   =     F  perturbation theory with respect to B field
   DQ        =  0.001000  dq finite difference perturbation B field
   LLRAUG    =     F  two centre corrections for induced B field
   LBONE     =     F  B-component reconstruction in AE one-centre
   LVGVCALC  =     T  calculate vGv susceptibility
   LVGVAPPL  =     F  apply vGv susceptibility instead of pGv for G=0

 Random number generation:
   RANDOM_GENERATOR = DEFAULT
   PCG_SEED         = not used


--------------------------------------------------------------------------------------------------------


 conjugate gradient relaxation of ions
 charge density and potential will be updated during run
 spin polarized calculation
 RMM-DIIS sequential band-by-band and
  variant of blocked Davidson during initial phase
 perform sub-space diagonalisation
    before iterative eigenvector-optimisation
 modified Broyden-mixing scheme, WC =      100.0
 initial mixing is a Kerker type mixing with AMIX =  0.4000 and BMIX =      1.0000
 Hartree-type preconditioning will be used
 using additional bands           56
 real space projection scheme for non local part
 use partial core corrections
 calculate Harris-corrections to forces 
   (improved forces if not selfconsistent)
 use gradient corrections 
 use of overlap-Matrix (Vanderbilt PP)
 Gauss-broadening in eV      SIGMA  =   0.03


--------------------------------------------------------------------------------------------------------


  energy-cutoff  :      520.00
  volume of cell :      898.01
      direct lattice vectors                 reciprocal lattice vectors
     9.647760704  0.000000000  0.000000000     0.103650995  0.000000000  0.000000000
     0.000000000  9.647760704  0.000000000     0.000000000  0.103650995  0.000000000
     0.000000000  0.000000000  9.647760704     0.000000000  0.000000000  0.103650995

  length of vectors
     9.647760704  9.647760704  9.647760704     0.103650995  0.103650995  0.103650995


 
 k-points in units of 2pi/SCALE and weight: Automatic mesh                          
   0.02591275  0.02591275  0.02591275       0.250
  -0.02591275  0.02591275  0.02591275       0.250
  -0.02591275 -0.02591275  0.02591275       0.250
   0.02591275 -0.02591275  0.02591275       0.250
 
 k-points in reciprocal lattice and weights: Automatic mesh                          
   0.25000000  0.25000000  0.25000000       0.250
  -0.25000000  0.25000000  0.25000000       0.250
  -0.25000000 -0.25000000  0.25000000       0.250
   0.25000000 -0.25000000  0.25000000       0.250
 
 position of ions in fractional coordinates (direct lattice) 
   0.96666017  0.35828743  0.32038317
   0.98175144  0.73197903  0.70137437
   0.02600368  0.29611765  0.68287901
   0.03174647  0.79384935  0.14438527
   0.17586941  0.17575955  0.95224662
   0.32202065  0.71866350  0.01266552
   0.82912040  0.22172709  0.03343075
   0.70919480  0.70176236  0.98276520
   0.22162266  0.99220175  0.22905018
   0.57835788  0.96248941  0.71011357
   0.84484432  0.97245544  0.83490168
   0.80985843  0.02203745  0.22112037
   0.15478678  0.71262727  0.45063119
   0.31038371  0.17026174  0.54817615
   0.71174600  0.80959588  0.51098950
   0.70235535  0.21465833  0.49170814
   0.21245318  0.50035589  0.70826134
   0.29861213  0.51758123  0.20167834
   0.66773330  0.46377741  0.18433061
   0.79283875  0.53568231  0.66784504
   0.46159028  0.32008561  0.85006086
   0.46707271  0.80575381  0.32645294
   0.52536946  0.18880331  0.28600893
   0.51813475  0.67248048  0.78473219
   0.49402583  0.50378574  0.49814928
   0.50745029  0.00416288  0.99978481
   0.99899124  0.50382913  0.99745650
   0.01006957  0.00561200  0.50417377
   0.14450761  0.90065922  0.62662515
   0.11460268  0.14858838  0.38673157
   0.90917730  0.86345731  0.37894300
   0.87134117  0.11068644  0.62919657
   0.87461289  0.60726194  0.13731153
   0.87396934  0.39477932  0.86521443
   0.11535803  0.64758778  0.89052382
   0.11763786  0.37074257  0.11227306
   0.64039074  0.12871851  0.88644022
   0.62011406  0.88199961  0.13239647
   0.37683962  0.13593567  0.10438120
   0.39275901  0.89313862  0.85997791
   0.62997766  0.61625474  0.37791026
   0.60221715  0.38951748  0.64195952
   0.37033151  0.64930369  0.59256783
   0.37924149  0.37062937  0.37994387
   0.74292970  0.76519872  0.74778709
   0.75345505  0.25217090  0.25996100
   0.25213235  0.75490907  0.23543090
   0.25015012  0.27290927  0.75208975
   0.98797127  0.01503661  0.02904802
   0.00599445  0.51816720  0.53778286
   0.52164848  0.01270540  0.47914208
   0.49939266  0.53401229  0.99802245
 
 position of ions in cartesian coordinates  (Angst):
   9.32610602  3.45667135  3.09098012
   9.47170297  7.06195856  6.76669205
   0.25087726  2.85687225  6.58825326
   0.30628235  7.65886854  1.39299456
   1.69674595  1.69568606  9.18704752
   3.10677821  6.93349345  0.12219391
   7.99915519  2.13916993  0.32253185
   6.84214168  6.77043534  9.48148345
   2.13816240  9.57252504  2.20982131
   5.57985847  9.28586752  6.85100584
   8.15085580  9.38201736  8.05493167
   7.81332036  0.21261205  2.13331643
   1.49334577  6.87525733  4.34758192
   2.99450772  1.64264452  5.28867235
   6.86675505  7.81078731  4.92990442
   6.77615637  2.07097216  4.74388248
   2.04969742  4.82731387  6.83313590
   2.88093841  4.99349984  1.94574439
   6.44213109  4.47441347  1.77837763
   7.64911852  5.16813471  6.44320918
   4.45331252  3.08810937  8.20118376
   4.50620576  7.77371991  3.14953983
   5.06863885  1.82152915  2.75934570
   4.99884011  6.48793073  7.57090835
   4.76624303  4.86040431  4.80602506
   4.89575900  0.04016249  9.64568456
   9.63802839  4.86082292  9.62322160
   0.09714879  0.05414323  4.86414785
   1.39417485  8.68934467  6.04552949
   1.10565927  1.43354512  3.73109367
   8.77152500  8.33042947  3.65595137
   8.40649112  1.06787628  6.07033797
   8.43805590  5.85871784  1.32474875
   8.43184703  3.80873643  8.34738174
   1.11294663  6.24777194  8.59156069
   1.13494197  3.57683565  1.08318363
   6.17833666  1.24184534  8.55216308
   5.98271201  8.50932118  1.27732948
   3.63565852  1.31147477  1.00704488
   3.78924491  8.61678764  8.29686110
   6.07787372  5.94547827  3.64598773
   5.81004695  3.75797146  6.19347185
   3.57286976  6.26432663  5.71695265
   3.65883113  3.57574347  3.66560751
   7.16760801  7.38245412  7.21447093
   7.26915402  2.43288454  2.50804154
   2.43251262  7.28318205  2.27138100
   2.41338849  2.63296337  7.25598190
   9.53171044  0.14506960  0.28024837
   0.05783301  4.99915312  5.18840032
   5.03273973  0.12257864  4.62264810
   4.81802088  5.15202275  9.62868176
 


--------------------------------------------------------------------------------------------------------


 k-point   1 :   0.2500 0.2500 0.2500  plane waves:   24216
 k-point   2 :  -0.2500 0.2500 0.2500  plane waves:   24216
 k-point   3 :  -0.2500-0.2500 0.2500  plane waves:   24216
 k-point   4 :   0.2500-0.2500 0.2500  plane waves:   24216

 maximum and minimum number of plane-waves per node :       777      739

 maximum number of plane-waves:     24216
 maximum index in each direction: 
   IXMAX=   18   IYMAX=   18   IZMAX=   17
   IXMIN=  -18   IYMIN=  -18   IZMIN=  -18


 real space projection operators:
  total allocation   :      28454.62 KBytes
  max/ min on nodes  :       1238.70        744.97


 parallel 3D FFT for wavefunctions:
    minimum data exchange during FFTs selected (reduces bandwidth)
 parallel 3D FFT for charge:
    minimum data exchange during FFTs selected (reduces bandwidth)


 total amount of memory used by VASP MPI-rank0    48238. kBytes
=======================================================================

   base      :      30000. kBytes
   nonlr-proj:       6578. kBytes
   fftplans  :       1747. kBytes
   grid      :       5278. kBytes
   one-center:         62. kBytes
   wavefun   :       4573. kBytes
 
     INWAV:  cpu time      0.0000: real time      0.0000
 Broyden mixing: mesh for mixing (old mesh)
   NGX = 35   NGY = 35   NGZ = 35
  (NGX  =144   NGY  =144   NGZ  =144)
  gives a total of  42875 points

 initial charge density was supplied:
 charge density of overlapping atoms calculated
 number of electron     240.0000000 magnetization      52.0000000
 keeping initial charge density in first step


--------------------------------------------------------------------------------------------------------


 Maximum index for non-local projection operator          618
 Maximum index for augmentation-charges          945 (set IRDMAX)


--------------------------------------------------------------------------------------------------------


 First call to EWALD:  gamma=   0.184
 Maximum number of real-space cells 3x 3x 3
 Maximum number of reciprocal cells 3x 3x 3

    FEWALD:  cpu time      0.0029: real time      0.0034


--------------------------------------- Ionic step        1  -------------------------------------------




--------------------------------------- Iteration      1(   1)  ---------------------------------------


    POTLOK:  cpu time      0.0564: real time      0.0818
    SETDIJ:  cpu time      0.4078: real time      0.4159
     EDDAV:  cpu time      2.3040: real time      2.8077
       DOS:  cpu time      0.0028: real time      0.0040
    --------------------------------------------
      LOOP:  cpu time      2.7710: real time      3.3095

 eigenvalue-minimisations  :  3088
 total energy-change (2. order) : 0.1592703E+04  (-0.1139101E+05)
 number of electron     240.0000000 magnetization      52.0000000
 augmentation part      240.0000000 magnetization      52.0000000

 Free energy of the ion-electron system (eV)
  ---------------------------------------------------
  alpha Z        PSCENC =       302.28895693
  Ewald energy   TEWEN  =     -8826.81072626
  -Hartree energ DENC   =     -2108.95121757
  -exchange      EXHF   =         0.00000000
  -V(xc)+E(xc)   XCENC  =       534.44355083
  PAW double counting   =      8141.38806575    -8271.61346273
  entropy T*S    EENTRO =        -0.00531210
  eigenvalues    EBANDS =      -881.17723387
  atomic energy  EATOM  =     12703.13999606
  Solvation  Ediel_sol  =         0.00000000
  ---------------------------------------------------
  free energy    TOTEN  =      1592.70261703 eV

  energy without entropy =     1592.70792914  energy(sigma->0) =     1592.70527308


--------------------------------------------------------------------------------------------------------




--------------------------------------- Iteration      1(   2)  ---------------------------------------


     EDDAV:  cpu time      2.6778: real time      2.7022
       DOS:  cpu time      0.0004: real time      0.0004
    --------------------------------------------
      LOOP:  cpu time      2.6783: real time      2.7026

 eigenvalue-minimisations  :  3856
 total energy-change (2. order) :-0.1648848E+04  (-0.1551422E+04)
 number of electron     240.0000000 magnetization      52.0000000
 augmentation part      240.0000000 magnetization      52.0000000

 Free energy of the ion-electron system (eV)
  ---------------------------------------------------
  alpha Z        PSCENC =       302.28895693
  Ewald energy   TEWEN  =     -8826.81072626
  -Hartree energ DENC   =     -2108.95121757
  -exchange      EXHF   =         0.00000000
  -V(xc)+E(xc)   XCENC  =       534.44355083
  PAW double counting   =      8141.38806575    -8271.61346273
  entropy T*S    EENTRO =        -0.00000000
  eigenvalues    EBANDS =     -2530.03055677
  atomic energy  EATOM  =     12703.13999606
  Solvation  Ediel_sol  =         0.00000000
  ---------------------------------------------------
  free energy    TOTEN  =       -56.14539376 eV

  energy without entropy =      -56.14539376  energy(sigma->0) =      -56.14539376


--------------------------------------------------------------------------------------------------------




--------------------------------------- Iteration      1(   3)  ---------------------------------------


     EDDAV:  cpu time      2.6453: real time      2.6665
       DOS:  cpu time      0.0004: real time      0.0005
    --------------------------------------------
      LOOP:  cpu time      2.6457: real time      2.6669

 eigenvalue-minimisations  :  3776
 total energy-change (2. order) :-0.1720352E+03  (-0.1700673E+03)
 number of electron     240.0000000 magnetization      52.0000000
 augmentation part      240.0000000 magnetization      52.0000000

 Free energy of the ion-electron system (eV)
  ---------------------------------------------------
  alpha Z        PSCENC =       302.28895693
  Ewald energy   TEWEN  =     -8826.81072626
  -Hartree energ DENC   =     -2108.95121757
  -exchange      EXHF   =         0.00000000
  -V(xc)+E(xc)   XCENC  =       534.44355083
  PAW double counting   =      8141.38806575    -8271.61346273
  entropy T*S    EENTRO =        -0.00000000
  eigenvalues    EBANDS =     -2702.06576762
  atomic energy  EATOM  =     12703.13999606
  Solvation  Ediel_sol  =         0.00000000
  ---------------------------------------------------
  free energy    TOTEN  =      -228.18060461 eV

  energy without entropy =     -228.18060461  energy(sigma->0) =     -228.18060461


--------------------------------------------------------------------------------------------------------




--------------------------------------- Iteration      1(   4)  ---------------------------------------


     EDDAV:  cpu time      3.1943: real time      3.2213
       DOS:  cpu time      0.0004: real time      0.0004
    --------------------------------------------
      LOOP:  cpu time      3.1947: real time      3.2217

 eigenvalue-minimisations  :  4784
 total energy-change (2. order) :-0.1344697E+02  (-0.1342468E+02)
 number of electron     240.0000000 magnetization      52.0000000
 augmentation part      240.0000000 magnetization      52.0000000

 Free energy of the ion-electron system (eV)
  ---------------------------------------------------
  alpha Z        PSCENC =       302.28895693
  Ewald energy   TEWEN  =     -8826.81072626
  -Hartree energ DENC   =     -2108.95121757
  -exchange      EXHF   =         0.00000000
  -V(xc)+E(xc)   XCENC  =       534.44355083
  PAW double counting   =      8141.38806575    -8271.61346273
  entropy T*S    EENTRO =        -0.00000000
  eigenvalues    EBANDS =     -2715.51273706
  atomic energy  EATOM  =     12703.13999606
  Solvation  Ediel_sol  =         0.00000000
  ---------------------------------------------------
  free energy    TOTEN  =      -241.62757405 eV

  energy without entropy =     -241.62757405  energy(sigma->0) =     -241.62757405


--------------------------------------------------------------------------------------------------------




--------------------------------------- Iteration      1(   5)  ---------------------------------------


     EDDAV:  cpu time      2.9696: real time      2.9941
       DOS:  cpu time      0.0004: real time      0.0004
    --------------------------------------------
      LOOP:  cpu time      2.9700: real time      2.9945

 eigenvalue-minimisations  :  4400
 total energy-change (2. order) :-0.2079655E+00  (-0.2078602E+00)
 number of electron     240.0000000 magnetization      52.0000000
 augmentation part      240.0000000 magnetization      52.0000000

 Free energy of the ion-electron system (eV)
  ---------------------------------------------------
  alpha Z        PSCENC =       302.28895693
  Ewald energy   TEWEN  =     -8826.81072626
  -Hartree energ DENC   =     -2108.95121757
  -exchange      EXHF   =         0.00000000
  -V(xc)+E(xc)   XCENC  =       534.44355083
  PAW double counting   =      8141.38806575    -8271.61346273
  entropy T*S    EENTRO =        -0.00000000
  eigenvalues    EBANDS =     -2715.72070254
  atomic energy  EATOM  =     12703.13999606
  Solvation  Ediel_sol  =         0.00000000
  ---------------------------------------------------
  free energy    TOTEN  =      -241.83553953 eV

  energy without entropy =     -241.83553953  energy(sigma->0) =     -241.83553953


--------------------------------------------------------------------------------------------------------




--------------------------------------- Iteration      1(   6)  ---------------------------------------


     EDDAV:  cpu time      3.1301: real time      3.1576
       DOS:  cpu time      0.0004: real time      0.0004
    --------------------------------------------
      LOOP:  cpu time      3.1305: real time      3.1580

 eigenvalue-minimisations  :  4672
 total energy-change (2. order) :-0.1259998E-01  (-0.1259864E-01)
 number of electron     240.0000000 magnetization      52.0000000
 augmentation part      240.0000000 magnetization      52.0000000

 Free energy of the ion-electron system (eV)
  ---------------------------------------------------
  alpha Z        PSCENC =       302.28895693
  Ewald energy   TEWEN  =     -8826.81072626
  -Hartree energ DENC   =     -2108.95121757
  -exchange      EXHF   =         0.00000000
  -V(xc)+E(xc)   XCENC  =       534.44355083
  PAW double counting   =      8141.38806575    -8271.61346273
  entropy T*S    EENTRO =        -0.00000000
  eigenvalues    EBANDS =     -2715.73330252
  atomic energy  EATOM  =     12703.13999606
  Solvation  Ediel_sol  =         0.00000000
  ---------------------------------------------------
  free energy    TOTEN  =      -241.84813951 eV

  energy without entropy =     -241.84813951  energy(sigma->0) =     -241.84813951


--------------------------------------------------------------------------------------------------------




--------------------------------------- Iteration      1(   7)  ---------------------------------------


     EDDAV:  cpu time      3.0618: real time      3.0861
       DOS:  cpu time      0.0005: real time      0.0005
    --------------------------------------------
      LOOP:  cpu time      3.0623: real time      3.0866

 eigenvalue-minimisations  :  4528
 total energy-change (2. order) :-0.3896287E-03  (-0.3896043E-03)
 number of electron     240.0000000 magnetization      52.0000000
 augmentation part      240.0000000 magnetization      52.0000000

 Free energy of the ion-electron system (eV)
  ---------------------------------------------------
  alpha Z        PSCENC =       302.28895693
  Ewald energy   TEWEN  =     -8826.81072626
  -Hartree energ DENC   =     -2108.95121757
  -exchange      EXHF   =         0.00000000
  -V(xc)+E(xc)   XCENC  =       534.44355083
  PAW double counting   =      8141.38806575    -8271.61346273
  entropy T*S    EENTRO =        -0.00000000
  eigenvalues    EBANDS =     -2715.73369215
  atomic energy  EATOM  =     12703.13999606
  Solvation  Ediel_sol  =         0.00000000
  ---------------------------------------------------
  free energy    TOTEN  =      -241.84852914 eV

  energy without entropy =     -241.84852914  energy(sigma->0) =     -241.84852914


--------------------------------------------------------------------------------------------------------




--------------------------------------- Iteration      1(   8)  ---------------------------------------


     EDDAV:  cpu time      3.0921: real time      3.1385
       DOS:  cpu time      0.0004: real time      0.0004
    --------------------------------------------
      LOOP:  cpu time      3.0925: real time      3.1389

 eigenvalue-minimisations  :  4592
 total energy-change (2. order) :-0.2266099E-04  (-0.2266038E-04)
 number of electron     240.0000000 magnetization      52.0000000
 augmentation part      240.0000000 magnetization      52.0000000

 Free energy of the ion-electron system (eV)
  ---------------------------------------------------
  alpha Z        PSCENC =       302.28895693
  Ewald energy   TEWEN  =     -8826.81072626
  -Hartree energ DENC   =     -2108.95121757
  -exchange      EXHF   =         0.00000000
  -V(xc)+E(xc)   XCENC  =       534.44355083
  PAW double counting   =      8141.38806575    -8271.61346273
  entropy T*S    EENTRO =        -0.00000000
  eigenvalues    EBANDS =     -2715.73371481
  atomic energy  EATOM  =     12703.13999606
  Solvation  Ediel_sol  =         0.00000000
  ---------------------------------------------------
  free energy    TOTEN  =      -241.84855180 eV

  energy without entropy =     -241.84855180  energy(sigma->0) =     -241.84855180


--------------------------------------------------------------------------------------------------------




--------------------------------------- Iteration      1(   9)  ---------------------------------------


     EDDAV:  cpu time      2.9978: real time      3.0218
       DOS:  cpu time      0.0004: real time      0.0004
    --------------------------------------------
      LOOP:  cpu time      2.9982: real time      3.0222

 eigenvalue-minimisations  :  4448
 total energy-change (2. order) :-0.1465620E-05  (-0.1465441E-05)
 number of electron     240.0000000 magnetization      52.0000000
 augmentation part      240.0000000 magnetization      52.0000000

 Free energy of the ion-electron system (eV)
  ---------------------------------------------------
  alpha Z        PSCENC =       302.28895693
  Ewald energy   TEWEN  =     -8826.81072626
  -Hartree energ DENC   =     -2108.95121757
  -exchange      EXHF   =         0.00000000
  -V(xc)+E(xc)   XCENC  =       534.44355083
  PAW double counting   =      8141.38806575    -8271.61346273
  entropy T*S    EENTRO =        -0.00000000
  eigenvalues    EBANDS =     -2715.73371628
  atomic energy  EATOM  =     12703.13999606
  Solvation  Ediel_sol  =         0.00000000
  ---------------------------------------------------
  free energy    TOTEN  =      -241.84855327 eV

  energy without entropy =     -241.84855327  energy(sigma->0) =     -241.84855327


--------------------------------------------------------------------------------------------------------




--------------------------------------- Iteration      1(  10)  ---------------------------------------


     EDDAV:  cpu time      2.0158: real time      2.0319
       DOS:  cpu time      0.0004: real time      0.0004
    CHARGE:  cpu time      0.0678: real time      0.0739
    MIXING:  cpu time      0.0020: real time      0.0035
    --------------------------------------------
      LOOP:  cpu time      2.0860: real time      2.1097

 eigenvalue-minimisations  :  2648
 total energy-change (2. order) :-0.6312439E-07  (-0.6362270E-07)
 number of electron     239.9999996 magnetization      27.2213244
 augmentation part        1.4862442 magnetization      27.6639874

 Broyden mixing:
  rms(total) = 0.64148E+01    rms(broyden)= 0.64142E+01
  rms(prec ) = 0.66568E+01
  weight for this iteration     100.00

 Free energy of the ion-electron system (eV)
  ---------------------------------------------------
  alpha Z        PSCENC =       302.28895693
  Ewald energy   TEWEN  =     -8826.81072626
  -Hartree energ DENC   =     -2108.95121757
  -exchange      EXHF   =         0.00000000
  -V(xc)+E(xc)   XCENC  =       534.44355083
  PAW double counting   =      8141.38806575    -8271.61346273
  entropy T*S    EENTRO =        -0.00000000
  eigenvalues    EBANDS =     -2715.73371634
  atomic energy  EATOM  =     12703.13999606
  Solvation  Ediel_sol  =         0.00000000
  ---------------------------------------------------
  free energy    TOTEN  =      -241.84855333 eV

  energy without entropy =     -241.84855333  energy(sigma->0) =     -241.84855333


--------------------------------------------------------------------------------------------------------




--------------------------------------- Iteration      1(  11)  ---------------------------------------


    POTLOK:  cpu time      0.0545: real time      0.0553
    SETDIJ:  cpu time      0.4007: real time      0.4033
    EDDIAG:  cpu time      0.3647: real time      0.3676
  RMM-DIIS:  cpu time      1.1735: real time      1.1835
    ORTHCH:  cpu time      0.0679: real time      0.0686
       DOS:  cpu time      0.0006: real time      0.0006
    CHARGE:  cpu time      0.0649: real time      0.0673
    MIXING:  cpu time      0.0012: real time      0.0030
    --------------------------------------------
      LOOP:  cpu time      2.1280: real time      2.1492

 eigenvalue-minimisations  :  2816
 total energy-change (2. order) : 0.5434712E+01  (-0.4660986E+01)
 number of electron     239.9999996 magnetization      16.2908059
 augmentation part        1.6998374 magnetization      16.4712969

 Broyden mixing:
  rms(total) = 0.32983E+01    rms(broyden)= 0.32981E+01
  rms(prec ) = 0.34173E+01
  weight for this iteration     100.00

 eigenvalues of (default mixing * dielectric matrix)
  average eigenvalue GAMMA=   0.7251
  0.7251

 Free energy of the ion-electron system (eV)
  ---------------------------------------------------
  alpha Z        PSCENC =       302.28895693
  Ewald energy   TEWEN  =     -8826.81072626
  -Hartree energ DENC   =     -2157.45609873
  -exchange      EXHF   =         0.00000000
  -V(xc)+E(xc)   XCENC  =       542.55752828
  PAW double counting   =      8924.17734051    -9060.42256328
  entropy T*S    EENTRO =        -0.00000000
  eigenvalues    EBANDS =     -2663.88827435
  atomic energy  EATOM  =     12703.13999606
  Solvation  Ediel_sol  =         0.00000000
  ---------------------------------------------------
  free energy    TOTEN  =      -236.41384084 eV

  energy without entropy =     -236.41384084  energy(sigma->0) =     -236.41384084


--------------------------------------------------------------------------------------------------------




--------------------------------------- Iteration      1(  12)  ---------------------------------------


    POTLOK:  cpu time      0.0528: real time      0.0537
    SETDIJ:  cpu time      0.4042: real time      0.4066
    EDDIAG:  cpu time      0.3560: real time      0.3586
  RMM-DIIS:  cpu time      1.2278: real time      1.2381
    ORTHCH:  cpu time      0.0657: real time      0.0669
       DOS:  cpu time      0.0005: real time      0.0005
    CHARGE:  cpu time      0.0655: real time      0.0678
    MIXING:  cpu time      0.0011: real time      0.0011
    --------------------------------------------
      LOOP:  cpu time      2.1737: real time      2.1932

 eigenvalue-minimisations  :  2949
 total energy-change (2. order) :-0.1930332E+02  (-0.2123164E+01)
 number of electron     239.9999996 magnetization       0.4454087
 augmentation part        1.7957211 magnetization       0.7847617

 Broyden mixing:
  rms(total) = 0.20117E+01    rms(broyden)= 0.20117E+01
  rms(prec ) = 0.20746E+01
  weight for this iteration     100.00

 eigenvalues of (default mixing * dielectric matrix)
  average eigenvalue GAMMA=   1.1584
  1.6458  0.6711

 Free energy of the ion-electron system (eV)
  ---------------------------------------------------
  alpha Z        PSCENC =       302.28895693
  Ewald energy   TEWEN  =     -8826.81072626
  -Hartree energ DENC   =     -2181.65595538
  -exchange      EXHF   =         0.00000000
  -V(xc)+E(xc)   XCENC  =       536.24005363
  PAW double counting   =      9275.69606372    -9415.51239078
  entropy T*S    EENTRO =        -0.00000000
  eigenvalues    EBANDS =     -2649.10315799
  atomic energy  EATOM  =     12703.13999606
  Solvation  Ediel_sol  =         0.00000000
  ---------------------------------------------------
  free energy    TOTEN  =      -255.71716007 eV

  energy without entropy =     -255.71716007  energy(sigma->0) =     -255.71716007


--------------------------------------------------------------------------------------------------------




--------------------------------------- Iteration      1(  13)  ---------------------------------------


    POTLOK:  cpu time      0.0524: real time      0.0533
    SETDIJ:  cpu time      0.4050: real time      0.4069
    EDDIAG:  cpu time      0.3553: real time      0.3579
  RMM-DIIS:  cpu time      1.2085: real time      1.2188
    ORTHCH:  cpu time      0.0677: real time      0.0683
       DOS:  cpu time      0.0005: real time      0.0005
    CHARGE:  cpu time      0.0649: real time      0.0667
    MIXING:  cpu time      0.0010: real time      0.0010
    --------------------------------------------
      LOOP:  cpu time      2.1553: real time      2.1735

 eigenvalue-minimisations  :  2884
 total energy-change (2. order) :-0.2488502E+01  (-0.9420577E+00)
 number of electron     239.9999996 magnetization      -1.8141758
 augmentation part        1.8980511 magnetization      -1.7105494

 Broyden mixing:
  rms(total) = 0.66455E+00    rms(broyden)= 0.66455E+00
  rms(prec ) = 0.69835E+00
  weight for this iteration     100.00

 eigenvalues of (default mixing * dielectric matrix)
  average eigenvalue GAMMA=   1.3001
  2.4981  0.7486  0.6534

 Free energy of the ion-electron system (eV)
  ---------------------------------------------------
  alpha Z        PSCENC =       302.28895693
  Ewald energy   TEWEN  =     -8826.81072626
  -Hartree energ DENC   =     -2209.65164265
  -exchange      EXHF   =         0.00000000
  -V(xc)+E(xc)   XCENC  =       537.81863952
  PAW double counting   =      9777.74137182    -9921.51157553
  entropy T*S    EENTRO =        -0.00000000
  eigenvalues    EBANDS =     -2621.22068239
  atomic energy  EATOM  =     12703.13999606
  Solvation  Ediel_sol  =         0.00000000
  ---------------------------------------------------
  free energy    TOTEN  =      -258.20566250 eV

  energy without entropy =     -258.20566250  energy(sigma->0) =     -258.20566250


--------------------------------------------------------------------------------------------------------




--------------------------------------- Iteration      1(  14)  ---------------------------------------


    POTLOK:  cpu time      0.0523: real time      0.0532
    SETDIJ:  cpu time      0.4041: real time      0.4055
    EDDIAG:  cpu time      0.3544: real time      0.3565
  RMM-DIIS:  cpu time      4.6765: real time      4.7020
    ORTHCH:  cpu time      0.5784: real time      0.5823
       DOS:  cpu time      0.0094: real time      0.0107
    CHARGE:  cpu time      0.1052: real time      0.1180
    MIXING:  cpu time      0.0010: real time      0.0010
    --------------------------------------------
      LOOP:  cpu time      6.1812: real time      6.2293

 eigenvalue-minimisations  :  3815
 total energy-change (2. order) :-0.1973962E+00  (-0.1993974E+00)
 number of electron     239.9999996 magnetization      -0.8053388
 augmentation part        1.8653284 magnetization      -0.7777618

 Broyden mixing:
  rms(total) = 0.32403E+00    rms(broyden)= 0.32403E+00
  rms(prec ) = 0.36036E+00
  weight for this iteration     100.00

 eigenvalues of (default mixing * dielectric matrix)
  average eigenvalue GAMMA=   1.2674
  2.6096  1.1783  0.6899  0.5917

 Free energy of the ion-electron system (eV)
  ---------------------------------------------------
  alpha Z        PSCENC =       302.28895693
  Ewald energy   TEWEN  =     -8826.81072626
  -Hartree energ DENC   =     -2210.69485717
  -exchange      EXHF   =         0.00000000
  -V(xc)+E(xc)   XCENC  =       538.22631351
  PAW double counting   =      9849.84086077    -9994.37804928
  entropy T*S    EENTRO =        -0.00000000
  eigenvalues    EBANDS =     -2620.01555321
  atomic energy  EATOM  =     12703.13999606
  Solvation  Ediel_sol  =         0.00000000
  ---------------------------------------------------
  free energy    TOTEN  =      -258.40305865 eV

  energy without entropy =     -258.40305865  energy(sigma->0) =     -258.40305865


--------------------------------------------------------------------------------------------------------




--------------------------------------- Iteration      1(  15)  ---------------------------------------


    POTLOK:  cpu time      0.0739: real time      0.0832
    SETDIJ:  cpu time      0.4174: real time      0.4232
    EDDIAG:  cpu time      0.3571: real time      0.3596
  RMM-DIIS:  cpu time      1.2877: real time      1.2988
    ORTHCH:  cpu time      0.0698: real time      0.0708
       DOS:  cpu time      0.0005: real time      0.0005
    CHARGE:  cpu time      0.0654: real time      0.0661
    MIXING:  cpu time      0.0012: real time      0.0012
    --------------------------------------------
      LOOP:  cpu time      2.2730: real time      2.3033

 eigenvalue-minimisations  :  3038
 total energy-change (2. order) : 0.3319486E-01  (-0.3510302E-01)
 number of electron     239.9999996 magnetization      -0.2367184
 augmentation part        1.8169878 magnetization      -0.2093705

 Broyden mixing:
  rms(total) = 0.69874E-01    rms(broyden)= 0.69871E-01
  rms(prec ) = 0.82383E-01
  weight for this iteration     100.00

 eigenvalues of (default mixing * dielectric matrix)
  average eigenvalue GAMMA=   1.2688
  2.5435  1.5711  0.9453  0.6847  0.5993

 Free energy of the ion-electron system (eV)
  ---------------------------------------------------
  alpha Z        PSCENC =       302.28895693
  Ewald energy   TEWEN  =     -8826.81072626
  -Hartree energ DENC   =     -2205.95135398
  -exchange      EXHF   =         0.00000000
  -V(xc)+E(xc)   XCENC  =       537.87347076
  PAW double counting   =      9821.50920885    -9965.87029619
  entropy T*S    EENTRO =        -0.00000000
  eigenvalues    EBANDS =     -2624.54911996
  atomic energy  EATOM  =     12703.13999606
  Solvation  Ediel_sol  =         0.00000000
  ---------------------------------------------------
  free energy    TOTEN  =      -258.36986380 eV

  energy without entropy =     -258.36986380  energy(sigma->0) =     -258.36986380


--------------------------------------------------------------------------------------------------------




--------------------------------------- Iteration      1(  16)  ---------------------------------------


    POTLOK:  cpu time      0.0519: real time      0.0528
    SETDIJ:  cpu time      0.3987: real time      0.4000
    EDDIAG:  cpu time      0.3585: real time      0.3605
  RMM-DIIS:  cpu time      1.3000: real time      1.3108
    ORTHCH:  cpu time      0.0698: real time      0.0711
       DOS:  cpu time      0.0005: real time      0.0005
    CHARGE:  cpu time      0.0649: real time      0.0658
    MIXING:  cpu time      0.0011: real time      0.0011
    --------------------------------------------
      LOOP:  cpu time      2.2454: real time      2.2627

 eigenvalue-minimisations  :  3080
 total energy-change (2. order) :-0.2003827E-01  (-0.1131942E-01)
 number of electron     239.9999996 magnetization      -0.1233093
 augmentation part        1.7949958 magnetization      -0.1080508

 Broyden mixing:
  rms(total) = 0.31761E-01    rms(broyden)= 0.31759E-01
  rms(prec ) = 0.38762E-01
  weight for this iteration     100.00

 eigenvalues of (default mixing * dielectric matrix)
  average eigenvalue GAMMA=   1.2442
  2.4670  1.9101  1.0366  0.6197  0.7010  0.7305

 Free energy of the ion-electron system (eV)
  ---------------------------------------------------
  alpha Z        PSCENC =       302.28895693
  Ewald energy   TEWEN  =     -8826.81072626
  -Hartree energ DENC   =     -2205.42990841
  -exchange      EXHF   =         0.00000000
  -V(xc)+E(xc)   XCENC  =       537.80458969
  PAW double counting   =      9811.80047528    -9955.95310940
  entropy T*S    EENTRO =        -0.00000000
  eigenvalues    EBANDS =     -2625.23017596
  atomic energy  EATOM  =     12703.13999606
[...]
 -0.004   0.004   0.000   0.000   0.003  -0.000   0.000   0.000   0.000  -0.000   0.000  -0.000   0.000  -0.000
 -0.002   0.002   0.000   0.001  -0.000   0.004   0.000   0.000   0.000  -0.000  -0.000   0.000  -0.000  -0.000
  0.010  -0.011  -0.000   0.000  -0.002  -0.007   0.000  -0.000  -0.000   0.000   0.000  -0.000   0.000   0.000
  0.003  -0.004  -0.000   0.001   0.001  -0.002   0.000   0.000  -0.000   0.000   0.000   0.000   0.000   0.000
 -0.004   0.004   0.000   0.004  -0.002   0.005   0.000  -0.000   0.000  -0.000   0.000   0.000  -0.000  -0.000
 -0.000   0.000   0.000  -0.002   0.004  -0.006  -0.000   0.000  -0.000   0.000   0.000  -0.000   0.000  -0.000
  0.014  -0.014  -0.000  -0.000  -0.003  -0.004  -0.000  -0.000  -0.000   0.000   0.000  -0.000  -0.000   0.000
 total augmentation occupancy for first ion, spin component:           2
 -0.000   0.000  -0.000  -0.000   0.000   0.000   0.000  -0.000  -0.000  -0.000  -0.000  -0.000   0.000  -0.000
  0.000  -0.000   0.000   0.000  -0.000   0.000   0.000   0.000   0.000   0.000   0.000   0.000  -0.000   0.000
 -0.000   0.000   0.000   0.000  -0.000   0.000   0.000   0.000   0.000   0.000   0.000   0.000  -0.000   0.000
 -0.000   0.000   0.000  -0.000   0.000  -0.000  -0.000   0.000  -0.000  -0.000  -0.000  -0.000   0.000  -0.000
  0.000  -0.000  -0.000   0.000   0.000  -0.000  -0.000  -0.000  -0.000   0.000   0.000  -0.000   0.000   0.000
  0.000   0.000   0.000  -0.000  -0.000  -0.000   0.000  -0.000   0.000   0.000  -0.000  -0.000  -0.000  -0.000
  0.000   0.000   0.000  -0.000  -0.000   0.000  -0.000  -0.000   0.000  -0.000  -0.000  -0.000  -0.000  -0.000
 -0.000   0.000   0.000   0.000  -0.000  -0.000  -0.000  -0.000  -0.000   0.000   0.000  -0.000   0.000  -0.000
 -0.000   0.000   0.000  -0.000  -0.000   0.000   0.000  -0.000   0.000   0.000  -0.000   0.000  -0.000  -0.000
 -0.000   0.000   0.000  -0.000   0.000   0.000  -0.000   0.000   0.000  -0.000  -0.000   0.000  -0.000  -0.000
 -0.000   0.000   0.000  -0.000   0.000  -0.000  -0.000   0.000  -0.000  -0.000   0.000  -0.000   0.000  -0.000
 -0.000   0.000   0.000  -0.000  -0.000  -0.000  -0.000  -0.000   0.000   0.000  -0.000  -0.000   0.000  -0.000
  0.000  -0.000  -0.000   0.000   0.000  -0.000  -0.000   0.000  -0.000  -0.000   0.000   0.000   0.000  -0.000
 -0.000   0.000   0.000  -0.000   0.000  -0.000  -0.000  -0.000  -0.000  -0.000  -0.000  -0.000  -0.000  -0.000


------------------------ aborting loop because EDIFF is reached ----------------------------------------


    CHARGE:  cpu time      0.0648: real time      0.0661
    FORLOC:  cpu time      0.0038: real time      0.0038
    FORNL :  cpu time      0.4002: real time      0.4029
    STRESS:  cpu time      1.1990: real time      1.2068
    FORCOR:  cpu time      0.0504: real time      0.0507
    FORHAR:  cpu time      0.0086: real time      0.0087
    MIXING:  cpu time      0.0007: real time      0.0007
    OFIELD:  cpu time      0.0000: real time      0.0000

 ---------------------------------------------------------------------------------------------

         DFTD3 V3.0 Rev 1        
 Edisp (eV)  -13.62782

 E6    (eV) :    -8.3995
 E8    (eV) :    -5.2283
 % E8        : 38.37
    FORVDW:  cpu time      0.2922: real time      0.2940

  FORCE on cell =-STRESS in cart. coord.  units (eV):
  Direction    XX          YY          ZZ          XY          YZ          ZX
  --------------------------------------------------------------------------------------
  Alpha Z   302.28896   302.28896   302.28896
  Ewald   -2987.09972 -2933.76546 -2906.14716    37.31182   -50.78806    -6.62836
  Hartree   716.87598   738.15606   752.82959    17.14073   -23.43785   -20.52890
  E(xc)    -947.80928  -947.68110  -947.65730     0.07463    -0.11566     0.03798
  Local   -1443.94353 -1508.70484 -1555.17948   -52.64090    71.38971    31.22156
  n-local  1481.86754  1480.24778  1482.79834     0.35058    -0.80648     1.09792
  augment  -357.46165  -356.57585  -357.19898    -0.04213    -0.08892     0.07313
  Kinetic  3250.47205  3237.98601  3244.30919     0.05648     3.45582    -4.35867
  Fock        0.00000     0.00000     0.00000     0.00000     0.00000     0.00000
  vdW       -14.38296   -14.42631   -14.42029    -0.00913    -0.03748     0.01195
  -------------------------------------------------------------------------------------
  Total       0.80740    -2.47476     1.62286     2.24208    -0.42891     0.92661
  in kB       1.44051    -4.41534     2.89542     4.00021    -0.76524     1.65320
  external pressure =       -0.03 kB  Pullay stress =        0.00 kB


 VOLUME and BASIS-vectors are now :
 -----------------------------------------------------------------------------
  energy-cutoff  :      520.00
  volume of cell :      898.01
      direct lattice vectors                 reciprocal lattice vectors
     9.647760704  0.000000000  0.000000000     0.103650995  0.000000000  0.000000000
     0.000000000  9.647760704  0.000000000     0.000000000  0.103650995  0.000000000
     0.000000000  0.000000000  9.647760704     0.000000000  0.000000000  0.103650995

  length of vectors
     9.647760704  9.647760704  9.647760704     0.103650995  0.103650995  0.103650995


 FORCES acting on ions
    electron-ion (+dipol)            ewald-force                    non-local-force                 convergence-correction
 -----------------------------------------------------------------------------------------------
   -.562E+01 -.157E+02 -.155E+02   0.473E+01 0.141E+02 0.142E+02   0.885E+00 0.161E+01 0.130E+01   0.949E-04 -.182E-04 -.802E-04
   -.263E+01 -.593E+01 -.338E+01   0.272E+01 0.687E+01 0.427E+01   -.818E-01 -.939E+00 -.898E+00   0.106E-03 -.309E-04 -.624E-04
   0.188E+01 0.687E+01 0.721E+01   -.271E+00 -.771E+01 -.583E+01   -.161E+01 0.839E+00 -.138E+01   0.713E-04 0.822E-04 0.663E-04
   0.109E+01 -.474E+01 0.623E+01   -.127E+00 0.362E+01 -.519E+01   -.955E+00 0.112E+01 -.104E+01   -.182E-03 -.779E-04 0.544E-04
   0.345E+01 0.165E+02 0.725E+01   -.209E+01 -.146E+02 -.896E+01   -.135E+01 -.191E+01 0.171E+01   -.182E-04 0.910E-04 0.625E-05
   0.412E+01 0.157E+01 0.450E+01   -.505E+01 -.518E+00 -.351E+01   0.930E+00 -.105E+01 -.983E+00   0.115E-03 -.798E-04 0.907E-04
   -.112E+01 -.386E+01 0.311E+01   0.280E-01 0.465E+01 -.235E+01   0.110E+01 -.795E+00 -.756E+00   -.590E-05 -.708E-04 0.473E-04
   -.500E+01 0.368E+01 -.177E+01   0.585E+01 -.296E+01 0.183E+01   -.851E+00 -.735E+00 -.567E-01   0.197E-04 -.228E-04 0.186E-03
   -.922E+00 -.479E+01 0.476E+00   0.170E+01 0.421E+01 -.966E-01   -.783E+00 0.570E+00 -.382E+00   0.182E-03 0.961E-04 0.120E-03
   0.100E+02 -.877E+01 0.176E+02   -.101E+02 0.836E+01 -.166E+02   0.528E-01 0.402E+00 -.990E+00   0.158E-03 0.105E-03 0.650E-04
   -.199E+02 0.381E+01 -.592E+01   0.191E+02 -.397E+01 0.493E+01   0.823E+00 0.169E+00 0.988E+00   0.396E-04 -.925E-05 0.292E-03
   0.162E-02 0.264E+01 -.219E+01   -.666E+00 -.188E+01 0.303E+01   0.668E+00 -.756E+00 -.839E+00   -.815E-04 -.101E-03 -.137E-03
   0.106E+01 0.121E+02 0.732E+01   0.131E+00 -.110E+02 -.830E+01   -.119E+01 -.104E+01 0.985E+00   0.993E-04 0.646E-04 0.699E-04
   -.101E+02 0.138E+02 -.414E+01   0.839E+01 -.119E+02 0.597E+01   0.175E+01 -.183E+01 -.183E+01   -.181E-04 0.353E-04 -.213E-03
   0.537E+01 -.296E+01 0.673E+01   -.405E+01 0.171E+01 -.627E+01   -.133E+01 0.125E+01 -.456E+00   -.382E-04 -.211E-04 -.112E-03
   -.210E+00 -.685E+01 -.621E+01   0.149E+01 0.724E+01 0.555E+01   -.129E+01 -.388E+00 0.650E+00   -.815E-04 -.516E-04 -.129E-03
   -.686E+01 -.963E+00 -.179E+01   0.788E+01 -.884E+00 0.242E+01   -.103E+01 0.185E+01 -.633E+00   -.868E-05 0.676E-04 -.203E-04
   -.238E+01 0.930E+01 0.184E+01   0.133E+01 -.896E+01 -.704E+00   0.105E+01 -.344E+00 -.114E+01   -.522E-04 -.623E-04 0.122E-03
   0.110E+02 0.675E+01 0.886E+01   -.960E+01 -.754E+01 -.735E+01   -.136E+01 0.786E+00 -.151E+01   -.324E-04 -.258E-04 -.190E-06
   0.294E+00 0.468E+01 0.943E+01   -.131E+01 -.470E+01 -.862E+01   0.102E+01 0.181E-01 -.820E+00   0.156E-03 0.127E-03 0.609E-04
   -.163E+01 -.133E+01 -.125E+02   -.244E+00 0.741E+00 0.107E+02   0.187E+01 0.584E+00 0.178E+01   -.513E-04 -.144E-04 0.114E-03
   0.510E+01 -.695E+01 -.719E+01   -.610E+01 0.591E+01 0.576E+01   0.100E+01 0.103E+01 0.143E+01   0.135E-04 -.325E-04 -.118E-03
   0.834E+01 -.146E+01 0.181E+01   -.751E+01 0.266E+01 -.282E+01   -.828E+00 -.120E+01 0.102E+01   -.644E-04 -.984E-04 -.105E-03
   0.719E+01 0.931E+01 -.153E+01   -.686E+01 -.824E+01 0.491E+00   -.335E+00 -.108E+01 0.104E+01   0.253E-04 -.146E-03 0.545E-04
   0.501E+01 0.841E+01 0.421E+01   -.531E+01 -.846E+01 -.424E+01   0.304E+00 0.444E-01 0.269E-01   -.280E-03 0.149E-04 -.184E-03
   0.126E+02 -.683E+01 -.625E+01   -.129E+02 0.647E+01 0.615E+01   0.289E+00 0.371E+00 0.895E-01   0.297E-03 -.752E-04 0.401E-03
   -.949E+01 0.513E+00 -.132E+01   0.944E+01 -.997E+00 0.154E+01   0.514E-01 0.484E+00 -.208E+00   -.267E-04 -.277E-04 -.202E-03
   -.528E+01 -.875E+01 -.128E+01   0.646E+01 0.844E+01 0.183E+01   -.117E+01 0.305E+00 -.541E+00   0.965E-04 0.655E-04 -.185E-03
   -.750E+02 0.249E+01 -.653E+02   0.791E+02 -.342E+01 0.687E+02   -.414E+01 0.943E+00 -.337E+01   0.830E-04 -.317E-03 -.966E-04
   -.347E+02 -.581E+02 0.364E+02   0.372E+02 0.619E+02 -.389E+02   -.245E+01 -.382E+01 0.259E+01   0.171E-03 -.221E-04 -.845E-04
   0.235E+02 0.571E+02 0.373E+02   -.253E+02 -.613E+02 -.397E+02   0.176E+01 0.418E+01 0.243E+01   -.670E-04 0.140E-03 -.190E-03
   0.300E+02 -.368E+02 -.367E+02   -.331E+02 0.392E+02 0.401E+02   0.312E+01 -.246E+01 -.344E+01   0.271E-03 -.103E-03 -.630E-04
   0.278E+02 -.246E+02 -.655E+02   -.299E+02 0.266E+02 0.697E+02   0.207E+01 -.200E+01 -.418E+01   -.418E-03 0.122E-03 -.184E-03
   0.496E+02 0.369E+02 0.349E+02   -.533E+02 -.396E+02 -.375E+02   0.375E+01 0.270E+01 0.265E+01   0.788E-04 0.596E-04 0.107E-03
   -.399E+02 -.563E+02 0.217E+02   0.426E+02 0.606E+02 -.241E+02   -.264E+01 -.427E+01 0.244E+01   -.200E-03 -.410E-03 -.266E-03
   -.507E+02 0.430E+02 -.408E+02   0.534E+02 -.467E+02 0.437E+02   -.269E+01 0.371E+01 -.285E+01   0.142E-03 -.675E-04 -.351E-04
   -.253E+02 -.654E+02 0.323E+02   0.277E+02 0.689E+02 -.350E+02   -.238E+01 -.351E+01 0.275E+01   0.318E-03 0.359E-04 0.457E-03
   -.304E+02 0.383E+02 -.465E+02   0.331E+02 -.417E+02 0.499E+02   -.271E+01 0.336E+01 -.342E+01   0.553E-04 0.131E-04 0.645E-04
   0.442E+02 -.575E+02 -.211E+02   -.469E+02 0.617E+02 0.231E+02   0.263E+01 -.418E+01 -.194E+01   0.862E-04 -.966E-05 0.582E-03
   0.819E+02 0.684E+01 0.561E+02   -.860E+02 -.757E+01 -.600E+02   0.418E+01 0.729E+00 0.386E+01   0.447E-03 0.109E-03 0.317E-03
   -.551E+02 -.193E+02 0.397E+02   0.589E+02 0.211E+02 -.429E+02   -.374E+01 -.184E+01 0.319E+01   -.914E-04 0.202E-03 -.441E-03
   -.236E+02 0.489E+02 -.475E+02   0.260E+02 -.519E+02 0.513E+02   -.237E+01 0.298E+01 -.381E+01   -.388E-03 0.170E-03 -.430E-04
   0.419E+02 -.561E+02 -.184E+02   -.443E+02 0.605E+02 0.198E+02   0.248E+01 -.445E+01 -.142E+01   -.241E-03 -.242E-03 -.157E-03
   0.546E+02 0.374E+02 0.363E+02   -.584E+02 -.405E+02 -.387E+02   0.378E+01 0.311E+01 0.250E+01   -.186E-03 -.846E-04 -.508E-04
   -.101E+02 0.290E+01 -.467E+01   0.103E+02 -.284E+01 0.486E+01   -.113E+00 -.496E-01 -.188E+00   0.966E-04 -.168E-03 0.258E-03
   -.553E+01 -.179E+02 -.517E+01   0.585E+01 0.182E+02 0.530E+01   -.317E+00 -.217E+00 -.125E+00   -.212E-03 -.196E-03 -.449E-03
   0.151E+01 0.446E+01 -.108E+02   -.155E+01 -.459E+01 0.112E+02   0.330E-01 0.127E+00 -.337E+00   0.310E-03 0.101E-03 0.401E-03
   -.132E+02 0.271E+02 -.528E+01   0.135E+02 -.276E+02 0.526E+01   -.330E+00 0.484E+00 0.279E-01   -.189E-03 0.363E-03 -.790E-04
   -.383E+02 0.877E+01 0.230E+02   0.389E+02 -.887E+01 -.232E+02   -.640E+00 0.963E-01 0.175E+00   -.732E-03 0.275E-03 0.318E-04
   0.210E+01 0.168E+02 0.551E+02   -.212E+01 -.170E+02 -.561E+02   0.191E-01 0.238E+00 0.940E+00   0.440E-03 0.157E-03 0.413E-03
   0.333E+02 0.179E+01 -.493E+01   -.339E+02 -.190E+01 0.469E+01   0.537E+00 0.112E+00 0.246E+00   -.156E-03 0.127E-03 -.484E-03
   0.860E+01 0.431E+02 -.106E+02   -.874E+01 -.439E+02 0.108E+02   0.132E+00 0.804E+00 -.196E+00   0.444E-03 0.291E-03 -.120E-03
 -----------------------------------------------------------------------------------------------
   0.239E+01 0.387E+01 0.497E+01   -.231E-13 -.284E-13 -.160E-13   -.238E+01 -.388E+01 -.496E+01   0.596E-03 0.330E-03 0.926E-04
 
 
 POSITION                                       TOTAL-FORCE (eV/Angst)
 -----------------------------------------------------------------------------------
      9.32610      3.45684      3.09097        -0.000071      0.000500     -0.000077
      9.47169      7.06196      6.76663        -0.000066      0.000001     -0.000194
      0.25085      2.85689      6.58817        -0.000058      0.000020     -0.000252
      0.30631      7.65876      1.39292         0.000109     -0.000413     -0.000245
      1.69677      1.69556      9.18696         0.000096     -0.000386     -0.000357
      3.10681      6.93355      0.12218         0.000060      0.000229     -0.000088
      7.99936      2.13920      0.32259         0.000641      0.000107      0.000217
      6.84213      6.77036      9.48151         0.000005     -0.000238      0.000076
      2.13802      9.57254      2.20969        -0.000445      0.000056     -0.000453
      5.57994      9.28594      6.85106         0.000248      0.000210      0.000219
      8.15091      9.38196      8.05499         0.000174     -0.000177      0.000169
      7.81335      0.21254      2.13335         0.000112     -0.000218      0.000134
      1.49326      6.87531      4.34753        -0.000286      0.000161     -0.000216
      2.99453      1.64255      5.28867         0.000038     -0.000303      0.000011
      6.86667      7.81094      4.92991        -0.000241      0.000446      0.000075
      6.77614      2.07107      4.74394         0.000021      0.000297      0.000239
      2.04971      4.82736      6.83312         0.000063      0.000134     -0.000066
      2.88100      4.99347      1.94561         0.000164     -0.000129     -0.000443
      6.44203      4.47433      1.77838        -0.000304     -0.000338      0.000056
      7.64908      5.16818      6.44303        -0.000160      0.000093     -0.000597
      4.45328      3.08807      8.20131        -0.000159     -0.000180      0.000376
      4.50617      7.77369      3.14964        -0.000162     -0.000134      0.000305
      5.06866      1.82145      2.75942         0.000093     -0.000285      0.000178
      4.99882      6.48791      7.57089        -0.000105     -0.000050     -0.000122
      4.76626      4.86040      4.80607        -0.000301      0.000348     -0.000344
      4.89574      0.04012      9.64565         0.000443      0.000463      0.000497
      9.63802      4.86080      9.62321        -0.000208      0.000003     -0.000280
      0.09714      0.05417      4.86414         0.000086      0.000017      0.000098
      1.39427      8.68937      6.04564        -0.000130      0.000237     -0.000033
      1.10566      1.43365      3.73106        -0.000332     -0.000338      0.000259
      8.77153      8.33030      3.65596         0.000413      0.000159      0.000455
      8.40643      1.06787      6.07042         0.000225     -0.000366     -0.000268
      8.43800      5.85866      1.32488         0.000313     -0.000462     -0.000132
      8.43174      3.80875      8.34728         0.000201      0.000401      0.000186
      1.11296      6.24789      8.59154        -0.000382     -0.000216      0.000337
      1.13496      3.57673      1.08315        -0.000361      0.000131     -0.000484
      6.17847      1.24195      8.55222        -0.000113     -0.000366      0.000382
      5.98274      8.50924      1.27745        -0.000259     -0.000022     -0.000224
      3.63563      1.31160      1.00707         0.000192     -0.000157     -0.000223
      3.78923      8.61686      8.29681         0.000509      0.000523      0.000526
      6.07801      5.94552      3.64598        -0.000022     -0.000319      0.000463
      5.80998      3.75799      6.19357        -0.000507      0.000483     -0.000301
      3.57280      6.26449      5.71690         0.000257     -0.000086     -0.000308
      3.65879      3.57570      3.66552         0.000333      0.000269      0.000172
      7.16761      7.38245      7.21449        -0.000067      0.000001      0.000043
      7.26919      2.43285      2.50809         0.000070     -0.000163      0.000182
      2.43252      7.28316      2.27137        -0.000025     -0.000026     -0.000175
      2.41340      2.63298      7.25593        -0.000049      0.000010     -0.000024
      9.53184      0.14497      0.28030        -0.000004     -0.000084      0.000085
      0.05785      4.99914      5.18830        -0.000038     -0.000006      0.000163
      5.03269      0.12253      4.62269         0.000121      0.000067     -0.000005
      4.81794      5.15195      9.62875        -0.000134      0.000092      0.000008
 -----------------------------------------------------------------------------------
    total drift:                                0.007022     -0.004921      0.009952


--------------------------------------------------------------------------------------------------------



  FREE ENERGIE OF THE ION-ELECTRON SYSTEM (eV)
  ---------------------------------------------------
  free  energy   TOTEN  =      -272.02522517 eV

  energy  without entropy=     -272.02522517  energy(sigma->0) =     -272.02522517
 
 d Force = 0.1353727E-05[ 0.606E-06, 0.210E-05]  d Energy = 0.2137460E-05-0.784E-06
 d Force = 0.1804708E-01[ 0.180E-01, 0.180E-01]  d Ewald  = 0.1804708E-01 0.000E+00


--------------------------------------------------------------------------------------------------------


    POTLOK:  cpu time      0.4571: real time      0.4588


--------------------------------------------------------------------------------------------------------


 stress matrix after NEB project (eV)
      0.80740      2.24208      0.92661
      2.24208     -2.47476     -0.42891
      0.92660     -0.42891      1.62286
  FORCES: max atom, RMS     0.000899    0.000448
  FORCE total and by dimension    0.003231    0.000641
  Stress total and by dimension    4.642088    2.474762
 Conjugate gradient step on ions:
 trial-energy change:   -0.000002  1 .order   -0.000001   -0.000002   -0.000001
  (g-gl).g = 0.109E-05      g.g   = 0.136E-05  gl.gl    = 0.212E-05
 g(Force)  = 0.136E-05   g(Stress)= 0.000E+00 ortho     = 0.265E-06
 gamma     =   0.51641
 trial     =   1.40356
 opt step  =   1.97277  (harmonic =   1.97277) maximal distance =0.00009963
 next E    =  -272.025225   (d E  =  -0.00000)


--------------------------------------------------------------------------------------------------------


  
 reached required accuracy - stopping structural energy minimisation
     LOOP+:  cpu time      7.7124: real time      7.7890
    4ORBIT:  cpu time      0.0000: real time      0.0000

 total amount of memory used by VASP MPI-rank0    48238. kBytes
=======================================================================

   base      :      30000. kBytes
   nonlr-proj:       6578. kBytes
   fftplans  :       1747. kBytes
   grid      :       5278. kBytes
   one-center:         62. kBytes
   wavefun   :       4573. kBytes
 
  
  
 General timing and accounting informations for this job:
 ========================================================
  
                  Total CPU time used (sec):      118.488
                            User time (sec):      117.236
                          System time (sec):        1.252
                         Elapsed time (sec):      122.916
  
                   Maximum memory used (kb):      382664.
                   Average memory used (kb):          N/A
  
                          Minor page faults:        62494
                          Major page faults:          136
                 Voluntary context switches:         6314
