<?xml version="1.0" encoding="ISO-8859-1"?>
<modeling>
 <generator>
  <i name="program" type="string">vasp </i>
  <i name="version" type="string">6.4.1  </i>
  <i name="subversion" type="string">05Apr23 (build Jun 07 2023 15:38:11) complex                          parallel </i>
  <i name="platform" type="string">LinuxIFC </i>
  <i name="date" type="string">2023 10 19 </i>
  <i name="time" type="string">05:26:05 </i>
 </generator>
 <incar>
  <i type="string" name="PREC">Accu</i>
  <i type="string" name="ALGO">F</i>
  <i type="logical" name="LDIAG"> T  </i>
  <i type="int" name="ISPIN">     2</i>
  <i type="int" name="NELM">   100</i>
  <i type="int" name="NELMDL">   -10</i>
  <i type="int" name="IBRION">     2</i>
  <i name="EDIFF">      0.00000100</i>
  <i name="EDIFFG">     -0.00100000</i>
  <i type="int" name="NSW">  1000</i>
  <i type="int" name="ISIF">     2</i>
  <i name="ENCUT">    520.00000000</i>
  <i name="POTIM">      0.20000000</i>
  <i type="string" name="LREAL">Auto</i>
  <i type="logical" name="LPLANE"> T  </i>
  <i type="int" name="ISMEAR">     0</i>
  <i name="SIGMA">      0.03000000</i>
  <i type="int" name="LMAXMIX">     4</i>
  <i type="logical" name="LWAVE"> F  </i>
  <i type="logical" name="LCHARG"> F  </i>
  <i type="logical" name="LASPH"> T  </i>
  <i type="string" name="GGA">PE</i>
  <i type="int" name="IVDW">    12</i>
 </incar>
 <primitive_cell>
  <structure name="primitive_cell" >
   <crystal>
    <varray name="basis" >
     <v>       9.64776070       0.00000000       0.00000000 </v>
     <v>       0.00000000       9.64776070       0.00000000 </v>
     <v>       0.00000000       0.00000000       9.64776070 </v>
    </varray>
    <i name="volume">    898.00668353 </i>
    <varray name="rec_basis" >
     <v>       0.10365100       0.00000000       0.00000000 </v>
     <v>       0.00000000       0.10365100       0.00000000 </v>
     <v>       0.00000000       0.00000000       0.10365100 </v>
    </varray>
   </crystal>
   <varray name="positions" >
    <v>       0.96666017       0.35828743       0.32038317 </v>
    <v>       0.98175144       0.73197903       0.70137437 </v>
    <v>       0.02600368       0.29611765       0.68287901 </v>
    <v>       0.03174647       0.79384935       0.14438527 </v>
    <v>       0.17586941       0.17575955       0.95224662 </v>
    <v>       0.32202065       0.71866350       0.01266552 </v>
    <v>       0.82912040       0.22172709       0.03343075 </v>
    <v>       0.70919480       0.70176236       0.98276520 </v>
    <v>       0.22162266       0.99220175       0.22905018 </v>
    <v>       0.57835788       0.96248941       0.71011357 </v>
    <v>       0.84484432       0.97245544       0.83490168 </v>
    <v>       0.80985843       0.02203745       0.22112037 </v>
    <v>       0.15478678       0.71262727       0.45063119 </v>
    <v>       0.31038371       0.17026174       0.54817615 </v>
    <v>       0.71174600       0.80959588       0.51098950 </v>
    <v>       0.70235535       0.21465833       0.49170814 </v>
    <v>       0.21245318       0.50035589       0.70826134 </v>
    <v>       0.29861213       0.51758123       0.20167834 </v>
    <v>       0.66773330       0.46377741       0.18433061 </v>
    <v>       0.79283875       0.53568231       0.66784504 </v>
    <v>       0.46159028       0.32008561       0.85006086 </v>
    <v>       0.46707271       0.80575381       0.32645294 </v>
    <v>       0.52536946       0.18880331       0.28600893 </v>
    <v>       0.51813475       0.67248048       0.78473219 </v>
    <v>       0.49402583       0.50378574       0.49814928 </v>
    <v>       0.50745029       0.00416288       0.99978481 </v>
    <v>       0.99899124       0.50382913       0.99745650 </v>
    <v>       0.01006957       0.00561200       0.50417377 </v>
    <v>       0.14450761       0.90065922       0.62662515 </v>
    <v>       0.11460268       0.14858838       0.38673157 </v>
    <v>       0.90917730       0.86345731       0.37894300 </v>
    <v>       0.87134117       0.11068644       0.62919657 </v>
    <v>       0.87461289       0.60726194       0.13731153 </v>
    <v>       0.87396934       0.39477932       0.86521443 </v>
    <v>       0.11535803       0.64758778       0.89052382 </v>
    <v>       0.11763786       0.37074257       0.11227306 </v>
    <v>       0.64039074       0.12871851       0.88644022 </v>
    <v>       0.62011406       0.88199961       0.13239647 </v>
    <v>       0.37683962       0.13593567       0.10438120 </v>
    <v>       0.39275901       0.89313862       0.85997791 </v>
    <v>       0.62997766       0.61625474       0.37791026 </v>
    <v>       0.60221715       0.38951748       0.64195952 </v>
    <v>       0.37033151       0.64930369       0.59256783 </v>
    <v>       0.37924149       0.37062937       0.37994387 </v>
    <v>       0.74292970       0.76519872       0.74778709 </v>
    <v>       0.75345505       0.25217090       0.25996100 </v>
    <v>       0.25213235       0.75490907       0.23543090 </v>
    <v>       0.25015012       0.27290927       0.75208975 </v>
    <v>       0.98797127       0.01503661       0.02904802 </v>
    <v>       0.00599445       0.51816720       0.53778286 </v>
    <v>       0.52164848       0.01270540       0.47914208 </v>
    <v>       0.49939266       0.53401229       0.99802245 </v>
   </varray>
  </structure>
  <varray name="primitive_index" >
   <v type="int" >        1 </v>
   <v type="int" >        2 </v>
   <v type="int" >        3 </v>
   <v type="int" >        4 </v>
   <v type="int" >        5 </v>
   <v type="int" >        6 </v>
   <v type="int" >        7 </v>
   <v type="int" >        8 </v>
   <v type="int" >        9 </v>
   <v type="int" >       10 </v>
   <v type="int" >       11 </v>
   <v type="int" >       12 </v>
   <v type="int" >       13 </v>
   <v type="int" >       14 </v>
   <v type="int" >       15 </v>
   <v type="int" >       16 </v>
   <v type="int" >       17 </v>
   <v type="int" >       18 </v>
   <v type="int" >       19 </v>
   <v type="int" >       20 </v>
   <v type="int" >       21 </v>
   <v type="int" >       22 </v>
   <v type="int" >       23 </v>
   <v type="int" >       24 </v>
   <v type="int" >       25 </v>
   <v type="int" >       26 </v>
   <v type="int" >       27 </v>
   <v type="int" >       28 </v>
   <v type="int" >       29 </v>
   <v type="int" >       30 </v>
   <v type="int" >       31 </v>
   <v type="int" >       32 </v>
   <v type="int" >       33 </v>
   <v type="int" >       34 </v>
   <v type="int" >       35 </v>
   <v type="int" >       36 </v>
   <v type="int" >       37 </v>
   <v type="int" >       38 </v>
   <v type="int" >       39 </v>
   <v type="int" >       40 </v>
   <v type="int" >       41 </v>
   <v type="int" >       42 </v>
   <v type="int" >       43 </v>
   <v type="int" >       44 </v>
   <v type="int" >       45 </v>
   <v type="int" >       46 </v>
   <v type="int" >       47 </v>
   <v type="int" >       48 </v>
   <v type="int" >       49 </v>
   <v type="int" >       50 </v>
   <v type="int" >       51 </v>
   <v type="int" >       52 </v>
  </varray>
 </primitive_cell>
 <kpoints>
  <generation param="Monkhorst-Pack">
   <v type="int" name="divisions">       2        2        2 </v>
   <v name="usershift">      0.00000000       0.00000000       0.00000000 </v>
   <v name="genvec1">      0.50000000       0.00000000       0.00000000 </v>
   <v name="genvec2">      0.00000000       0.50000000       0.00000000 </v>
   <v name="genvec3">      0.00000000       0.00000000       0.50000000 </v>
   <v name="shift">      0.50000000       0.50000000       0.50000000 </v>
  </generation>
  <varray name="kpointlist" >
   <v>       0.25000000       0.25000000       0.25000000 </v>
   <v>      -0.25000000       0.25000000       0.25000000 </v>
   <v>      -0.25000000      -0.25000000       0.25000000 </v>
   <v>       0.25000000      -0.25000000       0.25000000 </v>
  </varray>
  <varray name="weights" >
   <v>       0.25000000 </v>
   <v>       0.25000000 </v>
   <v>       0.25000000 </v>
   <v>       0.25000000 </v>
  </varray>
 </kpoints>
 <parameters>
  <separator name="general" >
   <i type="string" name="SYSTEM">unknown system</i>
   <i type="logical" name="LCOMPAT"> F  </i>
  </separator>
  <separator name="electronic" >
   <i type="string" name="PREC">accu</i>
   <i name="ENMAX">    520.00000000</i>
   <i name="ENAUG">   1041.69900000</i>
   <i name="EDIFF">      0.00000100</i>
   <i type="int" name="IALGO">    68</i>
   <i type="int" name="IWAVPR">    11</i>
   <i type="int" name="NBANDS">   176</i>
   <i type="int" name="NBANDSLOW">    -1</i>
   <i type="int" name="NBANDSHIGH">    -1</i>
   <i name="NELECT">    240.00000000</i>
   <i type="int" name="TURBO">     0</i>
   <i type="int" name="IRESTART">     0</i>
   <i type="int" name="NREBOOT">     0</i>
   <i type="int" name="NMIN">     0</i>
   <i name="EREF">      0.00000000</i>
   <separator name="electronic smearing" >
    <i type="int" name="ISMEAR">     0</i>
    <i name="SIGMA">      0.03000000</i>
    <i name="KSPACING">      0.50000000</i>
    <i type="logical" name="KGAMMA"> T  </i>
    <i type="logical" name="KBLOWUP"> T  </i>
   </separator>
   <separator name="electronic projectors" >
    <i type="logical" name="LREAL"> T  </i>
    <v name="ROPT">     -0.00025000     -0.00025000     -0.00025000     -0.00025000</v>
    <i type="int" name="LMAXPAW">  -100</i>
    <i type="int" name="LMAXMIX">     4</i>
    <i type="logical" name="NLSPLINE"> F  </i>
   </separator>
   <separator name="electronic startup" >
    <i type="int" name="ISTART">     0</i>
    <i type="int" name="ICHARG">     2</i>
    <i type="int" name="INIWAV">     1</i>
   </separator>
   <separator name="electronic spin" >
    <i type="int" name="ISPIN">     2</i>
    <i type="logical" name="LNONCOLLINEAR"> F  </i>
    <v name="MAGMOM">      1.00000000      1.00000000      1.00000000      1.00000000      1.00000000      1.00000000      1.00000000      1.00000000      1.00000000      1.00000000      1.00000000      1.00000000      1.00000000      1.00000000      1.00000000      1.00000000      1.00000000      1.00000000      1.00000000      1.00000000
      1.00000000      1.00000000      1.00000000      1.00000000      1.00000000      1.00000000      1.00000000      1.00000000      1.00000000      1.00000000      1.00000000      1.00000000      1.00000000      1.00000000      1.00000000      1.00000000      1.00000000      1.00000000      1.00000000      1.00000000
      1.00000000      1.00000000      1.00000000      1.00000000      1.00000000      1.00000000      1.00000000      1.00000000      1.00000000      1.00000000      1.00000000      1.00000000</v>
    <i name="NUPDOWN">     -1.00000000</i>
    <i type="logical" name="LSORBIT"> F  </i>
    <v name="SAXIS">      0.00000000      0.00000000      1.00000000</v>
    <i type="logical" name="LSPIRAL"> F  </i>
    <v name="QSPIRAL">      0.00000000      0.00000000      0.00000000</v>
    <i type="logical" name="LZEROZ"> F  </i>
   </separator>
   <separator name="electronic exchange-correlation" >
    <i type="logical" name="LASPH"> T  </i>
    <i type="logical" name="LMETAGGA"> F  </i>
   </separator>
   <separator name="electronic convergence" >
    <i type="int" name="NELM">   100</i>
    <i type="int" name="NELMDL">   -10</i>
    <i type="int" name="NELMIN">     2</i>
    <i name="ENINI">    520.00000000</i>
    <separator name="electronic convergence detail" >
     <i type="logical" name="LDIAG"> T  </i>
     <i type="logical" name="LSUBROT"> F  </i>
     <i name="WEIMIN">      0.00100000</i>
     <i name="EBREAK">      0.00000000</i>
     <i name="DEPER">      0.30000000</i>
     <i type="int" name="NRMM">     4</i>
     <i name="TIME">      0.40000000</i>
    </separator>
   </separator>
   <separator name="electronic mixer" >
    <i name="AMIX">      0.40000000</i>
    <i name="BMIX">      1.00000000</i>
    <i name="AMIN">      0.10000000</i>
    <i name="AMIX_MAG">      1.60000000</i>
    <i name="BMIX_MAG">      1.00000000</i>
    <separator name="electronic mixer details" >
     <i type="int" name="IMIX">     4</i>
     <i type="logical" name="MIXFIRST"> F  </i>
     <i type="int" name="MAXMIX">   -45</i>
     <i name="WC">    100.00000000</i>
     <i type="int" name="INIMIX">     1</i>
     <i type="int" name="MIXPRE">     1</i>
     <i type="int" name="MREMOVE">     5</i>
    </separator>
   </separator>
   <separator name="electronic dipolcorrection" >
    <i type="logical" name="LDIPOL"> F  </i>
    <i type="logical" name="LMONO"> F  </i>
    <i type="int" name="IDIPOL">     0</i>
    <i name="EPSILON">      1.00000000</i>
    <v name="DIPOL">   -100.00000000   -100.00000000   -100.00000000</v>
    <i name="EFIELD">      0.00000000</i>
   </separator>
  </separator>
  <separator name="grids" >
   <i type="int" name="NGX">    72</i>
   <i type="int" name="NGY">    72</i>
   <i type="int" name="NGZ">    72</i>
   <i type="int" name="NGXF">   144</i>
   <i type="int" name="NGYF">   144</i>
   <i type="int" name="NGZF">   144</i>
   <i type="logical" name="ADDGRID"> F  </i>
  </separator>
  <separator name="ionic" >
   <i type="int" name="NSW">  1000</i>
   <i type="int" name="IBRION">     2</i>
   <i type="int" name="MDALGO">     0</i>
   <i type="int" name="ISIF">     2</i>
   <i name="PSTRESS">      0.00000000</i>
   <i name="EDIFFG">     -0.00100000</i>
   <i type="int" name="NFREE">     1</i>
   <i name="POTIM">      0.20000000</i>
   <i name="SMASS">     -3.00000000</i>
   <i name="SCALEE">      1.00000000</i>
  </separator>
  <separator name="ionic md" >
   <i name="TEBEG">      0.00010000</i>
   <i name="TEEND">      0.00010000</i>
   <i type="int" name="NBLOCK">     1</i>
   <i type="int" name="KBLOCK">  1000</i>
   <i type="int" name="NPACO">   256</i>
   <i name="APACO">     10.00000000</i>
  </separator>
  <separator name="symmetry" >
   <i type="int" name="ISYM">     2</i>
   <i name="SYMPREC">      0.00001000</i>
  </separator>
  <separator name="dos" >
   <i type="int" name="LORBIT">     0</i>
   <v name="RWIGS">     -1.00000000     -1.00000000     -1.00000000     -1.00000000</v>
   <i type="int" name="NEDOS">   301</i>
   <i name="EMIN">     10.00000000</i>
   <i name="EMAX">    -10.00000000</i>
   <i name="EFERMI">      0.00000000</i>
  </separator>
  <separator name="writing" >
   <i type="int" name="NWRITE">     2</i>
   <i type="logical" name="LWAVE"> F  </i>
   <i type="logical" name="LDOWNSAMPLE"> F  </i>
   <i type="logical" name="LCHARG"> F  </i>
   <i type="logical" name="LPARD"> F  </i>
   <i type="logical" name="LVTOT"> F  </i>
   <i type="logical" name="LVHAR"> F  </i>
   <i type="logical" name="LELF"> F  </i>
   <i type="logical" name="LOPTICS"> F  </i>
   <v name="STM">      0.00000000      0.00000000      0.00000000      0.00000000      0.00000000      0.00000000      0.00000000</v>
  </separator>
  <separator name="performance" >
   <i type="int" name="NPAR">     4</i>
   <i type="int" name="NSIM">     4</i>
   <i type="int" name="NBLK">    -1</i>
   <i type="logical" name="LPLANE"> T  </i>
   <i type="logical" name="LSCALAPACK"> T  </i>
   <i type="logical" name="LSCAAWARE"> F  </i>
   <i type="logical" name="LSCALU"> F  </i>
   <i type="logical" name="LASYNC"> F  </i>
   <i type="logical" name="LORBITALREAL"> F  </i>
  </separator>
  <separator name="miscellaneous" >
   <i type="int" name="IDIOT">     3</i>
   <i type="int" name="PHON_NSTRUCT">    -1</i>
   <i type="logical" name="LMUSIC"> F  </i>
   <v name="POMASS">      7.01000000     30.97400000     32.06600000     35.45300000</v>
   <v name="DARWINR">      0.00000000      0.00000000      0.00000000      0.00000000</v>
   <v name="DARWINV">      1.00000000      1.00000000      1.00000000      1.00000000</v>
   <i type="logical" name="LCORR"> T  </i>
  </separator>
  <i type="logical" name="GGA_COMPAT"> T  </i>
  <i type="logical" name="LBERRY"> F  </i>
  <i type="int" name="ICORELEVEL">     0</i>
  <i type="logical" name="LDAU"> F  </i>
  <i type="int" name="I_CONSTRAINED_M">     0</i>
  <separator name="electronic exchange-correlation" >
   <i type="string" name="GGA">PE</i>
   <i type="int" name="VOSKOWN">     0</i>
   <i type="logical" name="LHFCALC"> F  </i>
   <i type="string" name="PRECFOCK"></i>
   <i type="logical" name="LSYMGRAD"> F  </i>
   <i type="logical" name="LHFONE"> F  </i>
   <i type="logical" name="LRHFCALC"> F  </i>
   <i type="logical" name="LTHOMAS"> F  </i>
   <i type="logical" name="LMODELHF"> F  </i>
   <i type="logical" name="LFOCKACE"> F  </i>
   <i name="ENCUT4O">     -1.00000000</i>
   <i type="int" name="EXXOEP">     0</i>
   <i type="int" name="FOURORBIT">     0</i>
   <i name="AEXX">      0.00000000</i>
   <i name="HFALPHA">      0.00000000</i>
   <i name="MCALPHA">      0.00000000</i>
   <i name="ALDAX">      1.00000000</i>
   <i name="AGGAX">      1.00000000</i>
   <i name="ALDAC">      1.00000000</i>
   <i name="AGGAC">      1.00000000</i>
   <i type="int" name="NKREDX">     1</i>
   <i type="int" name="NKREDY">     1</i>
   <i type="int" name="NKREDZ">     1</i>
   <i type="logical" name="SHIFTRED"> F  </i>
   <i type="logical" name="ODDONLY"> F  </i>
   <i type="logical" name="EVENONLY"> F  </i>
   <i type="int" name="LMAXFOCK">     0</i>
   <i type="int" name="NMAXFOCKAE">     0</i>
   <i type="logical" name="LFOCKAEDFT"> F  </i>
   <i name="HFSCREEN">      0.00000000</i>
   <i name="HFSCREENC">      0.00000000</i>
   <i type="int" name="NBANDSGWLOW">     0</i>
  </separator>
  <separator name="vdW DFT" >
   <i type="logical" name="LUSE_VDW"> F  </i>
   <i type="int" name="IVDW_NL">     1</i>
   <i type="logical" name="LSPIN_VDW"> F  </i>
   <i name="Zab_VDW">     -0.84910000</i>
   <i name="PARAM1">      0.12340000</i>
   <i name="PARAM2">      1.00000000</i>
   <i name="PARAM3">      0.00000000</i>
  </separator>
  <separator name="model GW" >
   <i type="int" name="MODEL_GW">     0</i>
   <i name="MODEL_EPS0">     10.36161558</i>
   <i name="MODEL_ALPHA">      1.00000000</i>
  </separator>
  <separator name="linear response parameters" >
   <i type="logical" name="LEPSILON"> F  </i>
   <i type="logical" name="LRPA"> F  </i>
   <i type="logical" name="LNABLA"> F  </i>
   <i type="logical" name="LVEL"> F  </i>
   <i name="CSHIFT">      0.10000000</i>
   <i name="OMEGAMAX">     -1.00000000</i>
   <i name="DEG_THRESHOLD">      0.00200000</i>
   <i name="RTIME">     -0.10000000</i>
   <i name="WPLASMAI">      0.00000000</i>
   <v name="DFIELD">      0.00000000      0.00000000      0.00000000</v>
   <v name="WPLASMA">      0.00000000      0.00000000      0.00000000      0.00000000      0.00000000      0.00000000      0.00000000      0.00000000      0.00000000</v>
  </separator>
  <separator name="orbital magnetization" >
   <i type="logical" name="NUCIND"> F  </i>
   <v name="MAGPOS">      0.00000000      0.00000000      0.00000000</v>
   <i type="logical" name="LNICSALL"> T  </i>
   <i type="logical" name="ORBITALMAG"> F  </i>
   <i type="logical" name="LMAGBLOCH"> F  </i>
   <i type="logical" name="LCHIMAG"> F  </i>
   <i type="logical" name="LGAUGE"> T  </i>
   <i type="int" name="MAGATOM">     0</i>
   <v name="MAGDIPOL">      0.00000000      0.00000000      0.00000000</v>
   <v name="AVECCONST">      0.00000000      0.00000000      0.00000000</v>
  </separator>
  <separator name="response functions" >
   <i type="logical" name="LALL_IN_ONE"> F  </i>
   <i type="int" name="IALL_IN_ONE">    -1</i>
   <i type="int" name="NBANDS_WAVE">    -1</i>
   <i type="logical" name="LFINITE_TEMPERATURE"> F  </i>
   <i type="logical" name="LADDER"> F  </i>
   <i type="logical" name="LRPAFORCE"> F  </i>
   <i type="logical" name="LFXC"> F  </i>
   <i type="logical" name="LHARTREE"> T  </i>
   <i type="int" name="IBSE">     0</i>
   <v type="int" name="KPOINT">    -1     0     0     0</v>
   <i type="logical" name="LTCTC"> F  </i>
   <i type="logical" name="LTCTE"> F  </i>
   <i type="logical" name="LTETE"> F  </i>
   <i type="logical" name="LTRIPLET"> F  </i>
   <i type="logical" name="LFXCEPS"> F  </i>
   <i type="logical" name="LFXHEG"> F  </i>
   <i type="int" name="NATURALO">     2</i>
   <i type="logical" name="LHOLEGF"> F  </i>
   <i type="logical" name="L2ORDER"> F  </i>
   <i type="logical" name="LDMP1"> F  </i>
   <i type="logical" name="LMP2LT"> F  </i>
   <i type="logical" name="LSMP2LT"> F  </i>
   <i type="logical" name="LGWLF"> F  </i>
   <i name="ENCUTGW">     -1.60000002</i>
   <i name="ENCUTGWSOFT">     -1.60000002</i>
   <i name="ENCUTLF">     -1.00000000</i>
   <i type="logical" name="LESF_SPLINES"> F  </i>
   <i type="int" name="LMAXMP2">    -1</i>
   <i name="SCISSOR">      0.00000000</i>
   <i type="int" name="NOMEGA">     0</i>
   <i type="int" name="NOMEGAR">     0</i>
   <i type="int" name="NBANDSGW">    -1</i>
   <i type="int" name="NBANDSO">    -1</i>
   <i type="int" name="NBANDSV">    -1</i>
   <i type="int" name="NELMGW">     1</i>
   <i type="int" name="NELMHF">     1</i>
   <i type="int" name="DIM">     3</i>
   <i type="int" name="IESPILON">     4</i>
   <i type="int" name="ANTIRES">     0</i>
   <i name="OMEGAMAX">    -30.00000000</i>
   <i name="OMEGAMIN">    -30.00000000</i>
   <i name="OMEGATL">   -200.00000000</i>
   <i type="int" name="OMEGAGRID">     0</i>
   <i name="CSHIFT">     -0.10000000</i>
   <i type="logical" name="LSELFENERGY"> F  </i>
   <i type="logical" name="LSPECTRAL"> F  </i>
   <i type="logical" name="LSPECTRALGW"> F  </i>
   <i type="logical" name="LSINGLES"> F  </i>
   <i type="logical" name="LFERMIGW"> F  </i>
   <i type="logical" name="ODDONLYGW"> F  </i>
   <i type="logical" name="EVENONLYGW"> F  </i>
   <i type="int" name="NKREDLFX">     1</i>
   <i type="int" name="NKREDLFY">     1</i>
   <i type="int" name="NKREDLFZ">     1</i>
   <i type="int" name="MAXMEM">  2800</i>
   <i type="int" name="TELESCOPE">     0</i>
   <i type="int" name="NTAUPAR">    -1</i>
   <i type="int" name="NOMEGAPAR">    -1</i>
   <i name="DAMP_NEWTON">      0.80000001</i>
   <i name="LAMBDA">      1.00000000</i>
  </separator>
  <separator name="External order field" >
   <i name="OFIELD_KAPPA">      0.00000000</i>
   <v name="OFIELD_K">      0.00000000      0.00000000      0.00000000</v>
   <i name="OFIELD_Q6_NEAR">      0.00000000</i>
   <i name="OFIELD_Q6_FAR">      0.00000000</i>
   <i name="OFIELD_A">      0.00000000</i>
  </separator>
  <separator name="optional k-points parameters" >
   <i type="int" name="KPOINTS_OPT_MODE">     1</i>
   <i type="logical" name="LKPOINTS_OPT"> F  </i>
  </separator>
 </parameters>
 <atominfo>
  <atoms>      52 </atoms>
  <types>       4 </types>
  <array name="atoms" >
   <dimension dim="1">ion</dimension>
   <field type="string">element</field>
   <field type="int">atomtype</field>
   <set>
    <rc><c>Li</c><c>   1</c></rc>
    <rc><c>Li</c><c>   1</c></rc>
    <rc><c>Li</c><c>   1</c></rc>
    <rc><c>Li</c><c>   1</c></rc>
    <rc><c>Li</c><c>   1</c></rc>
    <rc><c>Li</c><c>   1</c></rc>
    <rc><c>Li</c><c>   1</c></rc>
    <rc><c>Li</c><c>   1</c></rc>
    <rc><c>Li</c><c>   1</c></rc>
    <rc><c>Li</c><c>   1</c></rc>
    <rc><c>Li</c><c>   1</c></rc>
    <rc><c>Li</c><c>   1</c></rc>
    <rc><c>Li</c><c>   1</c></rc>
    <rc><c>Li</c><c>   1</c></rc>
    <rc><c>Li</c><c>   1</c></rc>
    <rc><c>Li</c><c>   1</c></rc>
    <rc><c>Li</c><c>   1</c></rc>
    <rc><c>Li</c><c>   1</c></rc>
    <rc><c>Li</c><c>   1</c></rc>
    <rc><c>Li</c><c>   1</c></rc>
    <rc><c>Li</c><c>   1</c></rc>
    <rc><c>Li</c><c>   1</c></rc>
    <rc><c>Li</c><c>   1</c></rc>
    <rc><c>Li</c><c>   1</c></rc>
    <rc><c>P </c><c>   2</c></rc>
    <rc><c>P </c><c>   2</c></rc>
    <rc><c>P </c><c>   2</c></rc>
    <rc><c>P </c><c>   2</c></rc>
    <rc><c>S </c><c>   3</c></rc>
    <rc><c>S </c><c>   3</c></rc>
    <rc><c>S </c><c>   3</c></rc>
    <rc><c>S </c><c>   3</c></rc>
    <rc><c>S </c><c>   3</c></rc>
    <rc><c>S </c><c>   3</c></rc>
    <rc><c>S </c><c>   3</c></rc>
    <rc><c>S </c><c>   3</c></rc>
    <rc><c>S </c><c>   3</c></rc>
    <rc><c>S </c><c>   3</c></rc>
    <rc><c>S </c><c>   3</c></rc>
    <rc><c>S </c><c>   3</c></rc>
    <rc><c>S </c><c>   3</c></rc>
    <rc><c>S </c><c>   3</c></rc>
    <rc><c>S </c><c>   3</c></rc>
    <rc><c>S </c><c>   3</c></rc>
    <rc><c>S </c><c>   3</c></rc>
    <rc><c>S </c><c>   3</c></rc>
    <rc><c>S </c><c>   3</c></rc>
    <rc><c>S </c><c>   3</c></rc>
    <rc><c>Cl</c><c>   4</c></rc>
    <rc><c>Cl</c><c>   4</c></rc>
    <rc><c>Cl</c><c>   4</c></rc>
    <rc><c>Cl</c><c>   4</c></rc>
   </set>
  </array>
  <array name="atomtypes" >
   <dimension dim="1">type</dimension>
   <field type="int">atomspertype</field>
   <field type="string">element</field>
   <field>mass</field>
   <field>valence</field>
   <field type="string">pseudopotential</field>
   <set>
    <rc><c>  24</c><c>Li</c><c>      7.01000000</c><c>      3.00000000</c><c>  PAW_PBE Li_sv_GW 25Mar2010            </c></rc>
    <rc><c>   4</c><c>P </c><c>     30.97400000</c><c>      5.00000000</c><c>  PAW_PBE P_GW 19Mar2012                </c></rc>
    <rc><c>  20</c><c>S </c><c>     32.06600000</c><c>      6.00000000</c><c>  PAW_PBE S_GW 19Mar2012                </c></rc>
    <rc><c>   4</c><c>Cl</c><c>     35.45300000</c><c>      7.00000000</c><c>  PAW_PBE Cl_GW 19Mar2012               </c></rc>
   </set>
  </array>
 </atominfo>
 <structure name="initialpos" >
  <crystal>
   <varray name="basis" >
    <v>       9.64776070       0.00000000       0.00000000 </v>
    <v>       0.00000000       9.64776070       0.00000000 </v>
    <v>       0.00000000       0.00000000       9.64776070 </v>
   </varray>
   <i name="volume">    898.00668353 </i>
   <varray name="rec_basis" >
    <v>       0.10365100       0.00000000       0.00000000 </v>
    <v>       0.00000000       0.10365100       0.00000000 </v>
    <v>       0.00000000       0.00000000       0.10365100 </v>
   </varray>
  </crystal>
  <varray name="positions" >
   <v>       0.96666017       0.35828743       0.32038317 </v>
   <v>       0.98175144       0.73197903       0.70137437 </v>
   <v>       0.02600368       0.29611765       0.68287901 </v>
   <v>       0.03174647       0.79384935       0.14438527 </v>
   <v>       0.17586941       0.17575955       0.95224662 </v>
   <v>       0.32202065       0.71866350       0.01266552 </v>
   <v>       0.82912040       0.22172709       0.03343075 </v>
   <v>       0.70919480       0.70176236       0.98276520 </v>
   <v>       0.22162266       0.99220175       0.22905018 </v>
   <v>       0.57835788       0.96248941       0.71011357 </v>
   <v>       0.84484432       0.97245544       0.83490168 </v>
   <v>       0.80985843       0.02203745       0.22112037 </v>
   <v>       0.15478678       0.71262727       0.45063119 </v>
   <v>       0.31038371       0.17026174       0.54817615 </v>
   <v>       0.71174600       0.80959588       0.51098950 </v>
   <v>       0.70235535       0.21465833       0.49170814 </v>
   <v>       0.21245318       0.50035589       0.70826134 </v>
   <v>       0.29861213       0.51758123       0.20167834 </v>
   <v>       0.66773330       0.46377741       0.18433061 </v>
   <v>       0.79283875       0.53568231       0.66784504 </v>
   <v>       0.46159028       0.32008561       0.85006086 </v>
   <v>       0.46707271       0.80575381       0.32645294 </v>
   <v>       0.52536946       0.18880331       0.28600893 </v>
   <v>       0.51813475       0.67248048       0.78473219 </v>
   <v>       0.49402583       0.50378574       0.49814928 </v>
   <v>       0.50745029       0.00416288       0.99978481 </v>
   <v>       0.99899124       0.50382913       0.99745650 </v>
   <v>       0.01006957       0.00561200       0.50417377 </v>
   <v>       0.14450761       0.90065922       0.62662515 </v>
   <v>       0.11460268       0.14858838       0.38673157 </v>
   <v>       0.90917730       0.86345731       0.37894300 </v>
   <v>       0.87134117       0.11068644       0.62919657 </v>
   <v>       0.87461289       0.60726194       0.13731153 </v>
   <v>       0.87396934       0.39477932       0.86521443 </v>
   <v>       0.11535803       0.64758778       0.89052382 </v>
   <v>       0.11763786       0.37074257       0.11227306 </v>
   <v>       0.64039074       0.12871851       0.88644022 </v>
   <v>       0.62011406       0.88199961       0.13239647 </v>
   <v>       0.37683962       0.13593567       0.10438120 </v>
   <v>       0.39275901       0.89313862       0.85997791 </v>
   <v>       0.62997766       0.61625474       0.37791026 </v>
   <v>       0.60221715       0.38951748       0.64195952 </v>
   <v>       0.37033151       0.64930369       0.59256783 </v>
   <v>       0.37924149       0.37062937       0.37994387 </v>
   <v>       0.74292970       0.76519872       0.74778709 </v>
   <v>       0.75345505       0.25217090       0.25996100 </v>
   <v>       0.25213235       0.75490907       0.23543090 </v>
   <v>       0.25015012       0.27290927       0.75208975 </v>
   <v>       0.98797127       0.01503661       0.02904802 </v>
   <v>       0.00599445       0.51816720       0.53778286 </v>
   <v>       0.52164848       0.01270540       0.47914208 </v>
   <v>       0.49939266       0.53401229       0.99802245 </v>
  </varray>
 </structure>
 <calculation>
  <scstep>
   <time name="dav">    2.30    2.81</time>
   <time name="total">    2.77    3.31</time>
   <energy>
    <i name="alphaZ">    302.28895693 </i>
    <i name="ewald">  -8826.81072626 </i>
    <i name="hartreedc">  -2108.95121757 </i>
    <i name="XCdc">    534.44355083 </i>
    <i name="pawpsdc">   8141.38806575 </i>
    <i name="pawaedc">  -8271.61346273 </i>
    <i name="eentropy">     -0.00531210 </i>
    <i name="bandstr">   -881.17723387 </i>
    <i name="atom">  12703.13999606 </i>
    <i name="e_fr_energy">   1592.70261703 </i>
    <i name="e_wo_entrp">   1592.70792914 </i>
    <i name="e_0_energy">   1592.70527308 </i>
   </energy>
  </scstep>
  <scstep>
   <time name="dav">    2.68    2.70</time>
   <time name="total">    2.68    2.70</time>
   <energy>
    <i name="e_fr_energy">    -56.14539376 </i>
    <i name="e_wo_entrp">    -56.14539376 </i>
    <i name="e_0_energy">    -56.14539376 </i>
   </energy>
  </scstep>
  <scstep>
   <time name="dav">    2.65    2.67</time>
   <time name="total">    2.65    2.67</time>
   <energy>
    <i name="e_fr_energy">   -228.18060461 </i>
    <i name="e_wo_entrp">   -228.18060461 </i>
    <i name="e_0_energy">   -228.18060461 </i>
   </energy>
  </scstep>
  <scstep>
   <time name="dav">    3.19    3.22</time>
   <time name="total">    3.19    3.22</time>
   <energy>
    <i name="e_fr_energy">   -241.62757405 </i>
    <i name="e_wo_entrp">   -241.62757405 </i>
    <i name="e_0_energy">   -241.62757405 </i>
   </energy>
  </scstep>
  <scstep>
   <time name="dav">    2.97    2.99</time>
   <time name="total">    2.97    2.99</time>
   <energy>
    <i name="e_fr_energy">   -241.83553953 </i>
    <i name="e_wo_entrp">   -241.83553953 </i>
    <i name="e_0_energy">   -241.83553953 </i>
   </energy>
  </scstep>
  <scstep>
   <time name="dav">    3.13    3.16</time>
   <time name="total">    3.13    3.16</time>
   <energy>
    <i name="e_fr_energy">   -241.84813951 </i>
    <i name="e_wo_entrp">   -241.84813951 </i>
    <i name="e_0_energy">   -241.84813951 </i>
   </energy>
  </scstep>
  <scstep>
   <time name="dav">    3.06    3.09</time>
   <time name="total">    3.06    3.09</time>
   <energy>
    <i name="e_fr_energy">   -241.84852914 </i>
    <i name="e_wo_entrp">   -241.84852914 </i>
    <i name="e_0_energy">   -241.84852914 </i>
   </energy>
  </scstep>
  <scstep>
   <time name="dav">    3.09    3.14</time>
   <time name="total">    3.09    3.14</time>
   <energy>
    <i name="e_fr_energy">   -241.84855180 </i>
    <i name="e_wo_entrp">   -241.84855180 </i>
    <i name="e_0_energy">   -241.84855180 </i>
   </energy>
  </scstep>
  <scstep>
   <time name="dav">    3.00    3.02</time>
   <time name="total">    3.00    3.02</time>
   <energy>
    <i name="e_fr_energy">   -241.84855327 </i>
    <i name="e_wo_entrp">   -241.84855327 </i>
    <i name="e_0_energy">   -241.84855327 </i>
   </energy>
  </scstep>
  <scstep>
   <time name="dav">    2.02    2.03</time>
   <time name="total">    2.09    2.11</time>
   <energy>
    <i name="e_fr_energy">   -241.84855333 </i>
    <i name="e_wo_entrp">   -241.84855333 </i>
    <i name="e_0_energy">   -241.84855333 </i>
   </energy>
  </scstep>
  <scstep>
   <time name="diag">    0.36    0.37</time>
   <time name="diis">    1.17    1.18</time>
   <time name="orth">    0.07    0.07</time>
   <time name="total">    2.13    2.15</time>
   <energy>
    <i name="e_fr_energy">   -236.41384084 </i>
    <i name="e_wo_entrp">   -236.41384084 </i>
    <i name="e_0_energy">   -236.41384084 </i>
   </energy>
  </scstep>
  <scstep>
   <time name="diag">    0.36    0.36</time>
   <time name="diis">    1.23    1.24</time>
   <time name="orth">    0.07    0.07</time>
   <time name="total">    2.17    2.19</time>
   <energy>
    <i name="e_fr_energy">   -255.71716007 </i>
    <i name="e_wo_entrp">   -255.71716007 </i>
    <i name="e_0_energy">   -255.71716007 </i>
   </energy>
  </scstep>
  <scstep>
   <time name="diag">    0.36    0.36</time>
   <time name="diis">    1.21    1.22</time>
   <time name="orth">    0.07    0.07</time>
   <time name="total">    2.16    2.17</time>
   <energy>
    <i name="e_fr_energy">   -258.20566250 </i>
    <i name="e_wo_entrp">   -258.20566250 </i>
    <i name="e_0_energy">   -258.20566250 </i>
   </energy>
  </scstep>
  <scstep>
   <time name="diag">    0.35    0.36</time>
   <time name="diis">    4.68    4.70</time>
   <time name="orth">    0.58    0.58</time>
   <time name="total">    6.18    6.23</time>
   <energy>
    <i name="e_fr_energy">   -258.40305865 </i>
    <i name="e_wo_entrp">   -258.40305865 </i>
    <i name="e_0_energy">   -258.40305865 </i>
   </energy>
  </scstep>
  <scstep>
   <time name="diag">    0.36    0.36</time>
   <time name="diis">    1.29    1.30</time>
   <time name="orth">    0.07    0.07</time>
   <time name="total">    2.27    2.30</time>
   <energy>
    <i name="e_fr_energy">   -258.36986380 </i>
    <i name="e_wo_entrp">   -258.36986380 </i>
    <i name="e_0_energy">   -258.36986380 </i>
   </energy>
  </scstep>
  <scstep>
   <time name="diag">    0.36    0.36</time>
   <time name="diis">    1.30    1.31</time>
   <time name="orth">    0.07    0.07</time>
   <time name="total">    2.25    2.26</time>
   <energy>
    <i name="e_fr_energy">   -258.38990207 </i>
    <i name="e_wo_entrp">   -258.38990207 </i>
    <i name="e_0_energy">   -258.38990207 </i>
   </energy>
  </scstep>
  <scstep>
   <time name="diag">    0.36    0.36</time>
   <time name="diis">    1.48    1.49</time>
   <time name="orth">    0.07    0.07</time>
   <time name="total">    2.42    2.44</time>
   <energy>
    <i name="e_fr_energy">   -258.39561497 </i>
    <i name="e_wo_entrp">   -258.39561497 </i>
    <i name="e_0_energy">   -258.39561497 </i>
   </energy>
  </scstep>
  <scstep>
   <time name="diag">    0.36    0.36</time>
   <time name="diis">    1.46    1.47</time>
   <time name="orth">    0.07    0.07</time>
   <time name="total">    2.41    2.43</time>
   <energy>
    <i name="e_fr_energy">   -258.39680522 </i>
    <i name="e_wo_entrp">   -258.39680522 </i>
    <i name="e_0_energy">   -258.39680522 </i>
   </energy>
  </scstep>
  <scstep>
   <time name="diag">    0.37    0.39</time>
   <time name="diis">    1.60    1.61</time>
   <time name="orth">    0.07    0.07</time>
   <time name="total">    2.55    2.60</time>
   <energy>
    <i name="e_fr_energy">   -258.39727713 </i>
    <i name="e_wo_entrp">   -258.39727713 </i>
    <i name="e_0_energy">   -258.39727713 </i>
   </energy>
  </scstep>
  <scstep>
   <time name="diag">    0.36    0.36</time>
   <time name="diis">    1.60    1.62</time>
   <time name="orth">    0.07    0.07</time>
   <time name="total">    2.55    2.56</time>
   <energy>
    <i name="e_fr_energy">   -258.39737337 </i>
    <i name="e_wo_entrp">   -258.39737337 </i>
    <i name="e_0_energy">   -258.39737337 </i>
   </energy>
  </scstep>
  <scstep>
   <time name="diag">    0.36    0.36</time>
   <time name="diis">    1.37    1.38</time>
   <time name="orth">    0.07    0.07</time>
   <time name="total">    2.31    2.32</time>
   <energy>
    <i name="e_fr_energy">   -258.39738867 </i>
    <i name="e_wo_entrp">   -258.39738867 </i>
    <i name="e_0_energy">   -258.39738867 </i>
   </energy>
  </scstep>
  <scstep>
   <time name="diag">    0.36    0.36</time>
   <time name="diis">    1.62    1.63</time>
   <time name="orth">    0.07    0.07</time>
   <time name="total">    2.56    2.58</time>
   <energy>
    <i name="e_fr_energy">   -258.39739699 </i>
    <i name="e_wo_entrp">   -258.39739699 </i>
    <i name="e_0_energy">   -258.39739699 </i>
   </energy>
  </scstep>
  <scstep>
   <time name="diag">    0.36    0.36</time>
   <time name="diis">    1.34    1.35</time>
   <time name="orth">    0.07    0.07</time>
   <time name="total">    2.29    2.30</time>
   <energy>
    <i name="e_fr_energy">   -258.39739667 </i>
    <i name="e_wo_entrp">   -258.39739667 </i>
    <i name="e_0_energy">   -258.39739667 </i>
   </energy>
  </scstep>
  <scstep>
   <time name="diag">    0.36    0.36</time>
   <time name="diis">    1.05    1.06</time>
   <time name="orth">    0.07    0.07</time>
   <time name="total">    1.93    1.94</time>
   <energy>
    <i name="alphaZ">    302.28895693 </i>
    <i name="ewald">  -8826.81072626 </i>
    <i name="hartreedc">  -2207.99398995 </i>
    <i name="XCdc">    537.90171381 </i>
    <i name="pawpsdc">   9809.56814154 </i>
    <i name="pawaedc">  -9953.48249594 </i>
    <i name="eentropy">     -0.00000000 </i>
    <i name="bandstr">  -2623.00899190 </i>
    <i name="atom">  12703.13999606 </i>
    <i name="e_fr_energy">   -258.39739571 </i>
    <i name="e_wo_entrp">   -258.39739571 </i>
    <i name="e_0_energy">   -258.39739571 </i>
   </energy>
  </scstep>
  <structure>
   <crystal>
    <varray name="basis" >
     <v>       9.64776070       0.00000000       0.00000000 </v>
     <v>       0.00000000       9.64776070       0.00000000 </v>
     <v>       0.00000000       0.00000000       9.64776070 </v>
    </varray>
    <i name="volume">    898.00668353 </i>
    <varray name="rec_basis" >
     <v>       0.10365100       0.00000000       0.00000000 </v>
     <v>       0.00000000       0.10365100       0.00000000 </v>
     <v>       0.00000000       0.00000000       0.10365100 </v>
    </varray>
   </crystal>
   <varray name="positions" >
    <v>       0.96666017       0.35828743       0.32038317 </v>
    <v>       0.98175144       0.73197903       0.70137437 </v>
    <v>       0.02600368       0.29611765       0.68287901 </v>
    <v>       0.03174647       0.79384935       0.14438527 </v>
    <v>       0.17586941       0.17575955       0.95224662 </v>
    <v>       0.32202065       0.71866350       0.01266552 </v>
    <v>       0.82912040       0.22172709       0.03343075 </v>
    <v>       0.70919480       0.70176236       0.98276520 </v>
    <v>       0.22162266       0.99220175       0.22905018 </v>
    <v>       0.57835788       0.96248941       0.71011357 </v>
    <v>       0.84484432       0.97245544       0.83490168 </v>
    <v>       0.80985843       0.02203745       0.22112037 </v>
    <v>       0.15478678       0.71262727       0.45063119 </v>
    <v>       0.31038371       0.17026174       0.54817615 </v>
    <v>       0.71174600       0.80959588       0.51098950 </v>
    <v>       0.70235535       0.21465833       0.49170814 </v>
    <v>       0.21245318       0.50035589       0.70826134 </v>
    <v>       0.29861213       0.51758123       0.20167834 </v>
    <v>       0.66773330       0.46377741       0.18433061 </v>
    <v>       0.79283875       0.53568231       0.66784504 </v>
    <v>       0.46159028       0.32008561       0.85006086 </v>
    <v>       0.46707271       0.80575381       0.32645294 </v>
    <v>       0.52536946       0.18880331       0.28600893 </v>
    <v>       0.51813475       0.67248048       0.78473219 </v>
    <v>       0.49402583       0.50378574       0.49814928 </v>
    <v>       0.50745029       0.00416288       0.99978481 </v>
    <v>       0.99899124       0.50382913       0.99745650 </v>
    <v>       0.01006957       0.00561200       0.50417377 </v>
    <v>       0.14450761       0.90065922       0.62662515 </v>
    <v>       0.11460268       0.14858838       0.38673157 </v>
    <v>       0.90917730       0.86345731       0.37894300 </v>
    <v>       0.87134117       0.11068644       0.62919657 </v>
    <v>       0.87461289       0.60726194       0.13731153 </v>
    <v>       0.87396934       0.39477932       0.86521443 </v>
    <v>       0.11535803       0.64758778       0.89052382 </v>
    <v>       0.11763786       0.37074257       0.11227306 </v>
    <v>       0.64039074       0.12871851       0.88644022 </v>
    <v>       0.62011406       0.88199961       0.13239647 </v>
    <v>       0.37683962       0.13593567       0.10438120 </v>
    <v>       0.39275901       0.89313862       0.85997791 </v>
    <v>       0.62997766       0.61625474       0.37791026 </v>
    <v>       0.60221715       0.38951748       0.64195952 </v>
    <v>       0.37033151       0.64930369       0.59256783 </v>
    <v>       0.37924149       0.37062937       0.37994387 </v>
    <v>       0.74292970       0.76519872       0.74778709 </v>
    <v>       0.75345505       0.25217090       0.25996100 </v>
    <v>       0.25213235       0.75490907       0.23543090 </v>
    <v>       0.25015012       0.27290927       0.75208975 </v>
    <v>       0.98797127       0.01503661       0.02904802 </v>
    <v>       0.00599445       0.51816720       0.53778286 </v>
    <v>       0.52164848       0.01270540       0.47914208 </v>
    <v>       0.49939266       0.53401229       0.99802245 </v>
   </varray>
  </structure>
  <varray name="forces" >
   <v>      -0.00004031       0.00173764      -0.00014357 </v>
   <v>      -0.00012954      -0.00002450      -0.00064113 </v>
   <v>      -0.00027114       0.00016818      -0.00084467 </v>
   <v>       0.00023666      -0.00106975      -0.00077487 </v>
   <v>       0.00019118      -0.00127124      -0.00094388 </v>
   <v>       0.00032902       0.00060950      -0.00019870 </v>
   <v>       0.00206388       0.00037138       0.00062321 </v>
   <v>      -0.00009459      -0.00073354       0.00024436 </v>
   <v>      -0.00152981       0.00019673      -0.00133536 </v>
   <v>       0.00080605       0.00072185       0.00063818 </v>
   <v>       0.00056439      -0.00060619       0.00053406 </v>
   <v>       0.00027858      -0.00072360       0.00036460 </v>
   <v>      -0.00083959       0.00057042      -0.00059630 </v>
   <v>       0.00027967      -0.00097215       0.00001018 </v>
   <v>      -0.00084153       0.00158506       0.00003968 </v>
   <v>      -0.00016891       0.00102559       0.00067542 </v>
   <v>       0.00013371       0.00051260      -0.00017711 </v>
   <v>       0.00064480      -0.00035010      -0.00143286 </v>
   <v>      -0.00100971      -0.00082329       0.00003393 </v>
   <v>      -0.00045872       0.00048874      -0.00176584 </v>
   <v>      -0.00033978      -0.00037509       0.00130952 </v>
   <v>      -0.00040232      -0.00025614       0.00101030 </v>
   <v>       0.00019208      -0.00079680       0.00080618 </v>
   <v>      -0.00018151      -0.00014354      -0.00016045 </v>
   <v>       0.00057978      -0.00056029       0.00117844 </v>
   <v>      -0.00078843      -0.00115675      -0.00138397 </v>
   <v>       0.00008586      -0.00033007      -0.00005180 </v>
   <v>      -0.00056604       0.00055726      -0.00025107 </v>
   <v>       0.00157078      -0.00017379       0.00161175 </v>
   <v>       0.00022889       0.00135397      -0.00060117 </v>
   <v>      -0.00016604      -0.00156738      -0.00009919 </v>
   <v>      -0.00075567       0.00000926       0.00091951 </v>
   <v>      -0.00085260      -0.00038209       0.00170388 </v>
   <v>      -0.00142359      -0.00009913      -0.00136157 </v>
   <v>       0.00039661       0.00154271      -0.00043884 </v>
   <v>       0.00033620      -0.00123404      -0.00015211 </v>
   <v>       0.00169269       0.00144019       0.00036300 </v>
   <v>       0.00072386      -0.00116395       0.00175612 </v>
   <v>      -0.00065884       0.00176319       0.00061144 </v>
   <v>       0.00005252       0.00100195      -0.00020541 </v>
   <v>       0.00178106       0.00077965      -0.00048621 </v>
   <v>      -0.00073726       0.00026402       0.00086425 </v>
   <v>      -0.00110441       0.00208797      -0.00035302 </v>
   <v>      -0.00076772      -0.00081181      -0.00130794 </v>
   <v>       0.00003556      -0.00005182       0.00013829 </v>
   <v>       0.00042239      -0.00028272       0.00042665 </v>
   <v>       0.00008182      -0.00020162      -0.00000022 </v>
   <v>       0.00015389       0.00007143      -0.00047964 </v>
   <v>       0.00148377      -0.00106025       0.00043613 </v>
   <v>       0.00015507      -0.00020071      -0.00129874 </v>
   <v>      -0.00061389      -0.00054461       0.00043278 </v>
   <v>      -0.00075880      -0.00089233       0.00075379 </v>
  </varray>
  <varray name="stress" >
   <v>       1.48595952       3.99980168       1.65182890 </v>
   <v>       3.99980090      -4.36753540      -0.76710147 </v>
   <v>       1.65182868      -0.76710187       2.93980691 </v>
  </varray>
  <energy>
   <i name="e_fr_energy">   -272.02521861 </i>
   <i name="e_wo_entrp">   -272.02521861 </i>
   <i name="e_0_energy">   -272.02521861 </i>
  </energy>
  <time name="totalsc">   67.90   69.08</time>
 </calculation>
 <calculation>
  <scstep>
   <time name="dav">    2.34    2.36</time>
   <time name="total">    2.86    2.88</time>
   <energy>
    <i name="alphaZ">    302.28895693 </i>
    <i name="ewald">  -8826.85334400 </i>
    <i name="hartreedc">  -2207.96378432 </i>
    <i name="XCdc">    537.90079603 </i>
    <i name="pawpsdc">   9809.54071031 </i>
    <i name="pawaedc">  -9953.45495681 </i>
    <i name="eentropy">     -0.00000000 </i>
    <i name="bandstr">  -2622.99577111 </i>
    <i name="atom">  12703.13999606 </i>
    <i name="e_fr_energy">   -258.39739690 </i>
    <i name="e_wo_entrp">   -258.39739690 </i>
    <i name="e_0_energy">   -258.39739690 </i>
   </energy>
  </scstep>
  <scstep>
   <time name="diag">    0.36    0.37</time>
   <time name="diis">    0.98    0.98</time>
   <time name="orth">    0.07    0.07</time>
   <time name="total">    1.86    1.88</time>
   <energy>
    <i name="alphaZ">    302.28895693 </i>
    <i name="ewald">  -8826.85334400 </i>
    <i name="hartreedc">  -2207.96409650 </i>
    <i name="XCdc">    537.90055599 </i>
    <i name="pawpsdc">   9809.48698189 </i>
    <i name="pawaedc">  -9953.40071884 </i>
    <i name="eentropy">     -0.00000000 </i>
    <i name="bandstr">  -2622.99572869 </i>
    <i name="atom">  12703.13999606 </i>
    <i name="e_fr_energy">   -258.39739716 </i>
    <i name="e_wo_entrp">   -258.39739716 </i>
    <i name="e_0_energy">   -258.39739716 </i>
   </energy>
  </scstep>
  <structure>
   <crystal>
    <varray name="basis" >
     <v>       9.64776070       0.00000000       0.00000000 </v>
     <v>       0.00000000       9.64776070       0.00000000 </v>
     <v>       0.00000000       0.00000000       9.64776070 </v>
    </varray>
    <i name="volume">    898.00668353 </i>
    <varray name="rec_basis" >
     <v>       0.10365100       0.00000000       0.00000000 </v>
     <v>       0.00000000       0.10365100       0.00000000 </v>
     <v>       0.00000000       0.00000000       0.10365100 </v>
    </varray>
   </crystal>
   <varray name="positions" >
    <v>       0.96666009       0.35829090       0.32038288 </v>
    <v>       0.98175118       0.73197898       0.70137308 </v>
    <v>       0.02600314       0.29611799       0.68287732 </v>
    <v>       0.03174694       0.79384721       0.14438372 </v>
    <v>       0.17586979       0.17575701       0.95224473 </v>
    <v>       0.32202131       0.71866472       0.01266512 </v>
    <v>       0.82912453       0.22172783       0.03343199 </v>
    <v>       0.70919461       0.70176090       0.98276569 </v>
    <v>       0.22161960       0.99220214       0.22904751 </v>
    <v>       0.57835950       0.96249086       0.71011485 </v>
    <v>       0.84484545       0.97245423       0.83490275 </v>
    <v>       0.80985899       0.02203600       0.22112110 </v>
    <v>       0.15478510       0.71262841       0.45063000 </v>
    <v>       0.31038426       0.17025979       0.54817617 </v>
    <v>       0.71174431       0.80959905       0.51098958 </v>
    <v>       0.70235502       0.21466038       0.49170949 </v>
    <v>       0.21245345       0.50035691       0.70826098 </v>
    <v>       0.29861342       0.51758053       0.20167548 </v>
    <v>       0.66773128       0.46377576       0.18433068 </v>
    <v>       0.79283783       0.53568328       0.66784151 </v>
    <v>       0.46158960       0.32008486       0.85006348 </v>
    <v>       0.46707191       0.80575329       0.32645496 </v>
    <v>       0.52536985       0.18880172       0.28601054 </v>
    <v>       0.51813439       0.67248019       0.78473187 </v>
    <v>       0.49402699       0.50378462       0.49815164 </v>
    <v>       0.50744872       0.00416057       0.99978204 </v>
    <v>       0.99899141       0.50382847       0.99745639 </v>
    <v>       0.01006844       0.00561311       0.50417326 </v>
    <v>       0.14451075       0.90065888       0.62662837 </v>
    <v>       0.11460314       0.14859109       0.38673037 </v>
    <v>       0.90917697       0.86345417       0.37894280 </v>
    <v>       0.87133966       0.11068646       0.62919841 </v>
    <v>       0.87461119       0.60726117       0.13731493 </v>
    <v>       0.87396649       0.39477912       0.86521170 </v>
    <v>       0.11535882       0.64759087       0.89052294 </v>
    <v>       0.11763854       0.37074011       0.11227276 </v>
    <v>       0.64039413       0.12872139       0.88644094 </v>
    <v>       0.62011550       0.88199728       0.13239998 </v>
    <v>       0.37683831       0.13593919       0.10438243 </v>
    <v>       0.39275911       0.89314062       0.85997750 </v>
    <v>       0.62998122       0.61625630       0.37790928 </v>
    <v>       0.60221567       0.38951801       0.64196125 </v>
    <v>       0.37032930       0.64930787       0.59256713 </v>
    <v>       0.37923995       0.37062775       0.37994125 </v>
    <v>       0.74292978       0.76519861       0.74778737 </v>
    <v>       0.75345589       0.25217034       0.25996186 </v>
    <v>       0.25213252       0.75490867       0.23543090 </v>
    <v>       0.25015043       0.27290942       0.75208879 </v>
    <v>       0.98797424       0.01503449       0.02904889 </v>
    <v>       0.00599476       0.51816680       0.53778026 </v>
    <v>       0.52164725       0.01270431       0.47914294 </v>
    <v>       0.49939114       0.53401050       0.99802396 </v>
   </varray>
  </structure>
  <varray name="forces" >
   <v>      -0.00006154       0.00104452      -0.00011000 </v>
   <v>      -0.00003345      -0.00000861      -0.00037377 </v>
   <v>      -0.00012950       0.00011520      -0.00052404 </v>
   <v>       0.00014506      -0.00069099      -0.00049707 </v>
   <v>       0.00012607      -0.00078469      -0.00057013 </v>
   <v>       0.00015097       0.00029853      -0.00005608 </v>
   <v>       0.00125539       0.00017713       0.00039643 </v>
   <v>      -0.00003746      -0.00044717       0.00017631 </v>
   <v>      -0.00088435       0.00012089      -0.00084142 </v>
   <v>       0.00056587       0.00043934       0.00032800 </v>
   <v>       0.00034989      -0.00038231       0.00035729 </v>
   <v>       0.00014386      -0.00045140       0.00017908 </v>
   <v>      -0.00051974       0.00033768      -0.00033880 </v>
   <v>       0.00015199      -0.00060332      -0.00004581 </v>
   <v>      -0.00052595       0.00093639       0.00002198 </v>
   <v>      -0.00009501       0.00055525       0.00033713 </v>
   <v>       0.00005911       0.00030161      -0.00013964 </v>
   <v>       0.00040898      -0.00022033      -0.00086965 </v>
   <v>      -0.00062404      -0.00055060       0.00002686 </v>
   <v>      -0.00021308       0.00031393      -0.00111684 </v>
   <v>      -0.00026178      -0.00028888       0.00085436 </v>
   <v>      -0.00022297      -0.00019800       0.00059178 </v>
   <v>       0.00009870      -0.00052501       0.00041950 </v>
   <v>      -0.00011089      -0.00014310      -0.00014091 </v>
   <v>       0.00003046       0.00001480       0.00025782 </v>
   <v>       0.00008433      -0.00031425      -0.00012919 </v>
   <v>      -0.00009991      -0.00020781      -0.00020217 </v>
   <v>       0.00003849       0.00009909      -0.00002999 </v>
   <v>       0.00039688       0.00013733       0.00056470 </v>
   <v>       0.00000557       0.00053845      -0.00028254 </v>
   <v>       0.00006263      -0.00082343       0.00015204 </v>
   <v>      -0.00045926      -0.00008513       0.00054481 </v>
   <v>      -0.00026188      -0.00037766       0.00075684 </v>
   <v>      -0.00060711       0.00014715      -0.00066022 </v>
   <v>       0.00002518       0.00071624      -0.00019640 </v>
   <v>       0.00006407      -0.00069520      -0.00031459 </v>
   <v>       0.00079049       0.00046757       0.00046932 </v>
   <v>       0.00014323      -0.00046849       0.00058447 </v>
   <v>      -0.00001589       0.00070592       0.00014061 </v>
   <v>      -0.00020483       0.00024849      -0.00042624 </v>
   <v>       0.00077669       0.00020704       0.00008384 </v>
   <v>      -0.00029965       0.00001408       0.00070066 </v>
   <v>      -0.00039944       0.00100569      -0.00036107 </v>
   <v>      -0.00014270      -0.00018170      -0.00052364 </v>
   <v>      -0.00001161      -0.00004035       0.00011478 </v>
   <v>       0.00016618      -0.00039546       0.00025304 </v>
   <v>       0.00006363      -0.00009339      -0.00014666 </v>
   <v>      -0.00006601       0.00016109      -0.00028040 </v>
   <v>       0.00012807      -0.00031350       0.00037110 </v>
   <v>       0.00019818       0.00000121       0.00035918 </v>
   <v>       0.00024686      -0.00001847       0.00000162 </v>
   <v>      -0.00038876       0.00020464       0.00013372 </v>
  </varray>
  <varray name="stress" >
   <v>       1.46695078       4.00058800       1.65321835 </v>
   <v>       4.00058760      -4.38703895      -0.76628795 </v>
   <v>       1.65321825      -0.76628833       2.92178636 </v>
  </varray>
  <energy>
   <i name="e_fr_energy">   -272.02522071 </i>
   <i name="e_wo_entrp">   -272.02522071 </i>
   <i name="e_0_energy">   -272.02522071 </i>
  </energy>
  <time name="totalsc">    7.81    7.91</time>
 </calculation>
 <calculation>
  <scstep>
   <time name="dav">    2.31    2.33</time>
   <time name="total">    2.83    2.85</time>
   <energy>
    <i name="alphaZ">    302.28895693 </i>
    <i name="ewald">  -8826.88732592 </i>
    <i name="hartreedc">  -2207.93735637 </i>
    <i name="XCdc">    537.89971171 </i>
    <i name="pawpsdc">   9809.45459247 </i>
    <i name="pawaedc">  -9953.36784807 </i>
    <i name="eentropy">     -0.00000000 </i>
    <i name="bandstr">  -2622.98812438 </i>
    <i name="atom">  12703.13999606 </i>
    <i name="e_fr_energy">   -258.39739757 </i>
    <i name="e_wo_entrp">   -258.39739757 </i>
    <i name="e_0_energy">   -258.39739757 </i>
   </energy>
  </scstep>
  <scstep>
   <time name="diag">    0.36    0.37</time>
   <time name="diis">    0.88    0.89</time>
   <time name="orth">    0.07    0.07</time>
   <time name="total">    1.77    1.79</time>
   <energy>
    <i name="alphaZ">    302.28895693 </i>
    <i name="ewald">  -8826.88732592 </i>
    <i name="hartreedc">  -2207.93512526 </i>
    <i name="XCdc">    537.89952305 </i>
    <i name="pawpsdc">   9809.40862536 </i>
    <i name="pawaedc">  -9953.32159007 </i>
    <i name="eentropy">     -0.00000000 </i>
    <i name="bandstr">  -2622.99045778 </i>
    <i name="atom">  12703.13999606 </i>
    <i name="e_fr_energy">   -258.39739763 </i>
    <i name="e_wo_entrp">   -258.39739763 </i>
    <i name="e_0_energy">   -258.39739763 </i>
   </energy>
  </scstep>
  <structure>
   <crystal>
    <varray name="basis" >
     <v>       9.64776070       0.00000000       0.00000000 </v>
     <v>       0.00000000       9.64776070       0.00000000 </v>
     <v>       0.00000000       0.00000000       9.64776070 </v>
    </varray>
    <i name="volume">    898.00668353 </i>
    <varray name="rec_basis" >
     <v>       0.10365100       0.00000000       0.00000000 </v>
     <v>       0.00000000       0.10365100       0.00000000 </v>
     <v>       0.00000000       0.00000000       0.10365100 </v>
    </varray>
   </crystal>
   <varray name="positions" >
    <v>       0.96666003       0.35829367       0.32038265 </v>
    <v>       0.98175097       0.73197895       0.70137206 </v>
    <v>       0.02600270       0.29611826       0.68287597 </v>
    <v>       0.03174732       0.79384550       0.14438249 </v>
    <v>       0.17587009       0.17575498       0.95224323 </v>
    <v>       0.32202184       0.71866569       0.01266481 </v>
    <v>       0.82912782       0.22172843       0.03343299 </v>
    <v>       0.70919446       0.70175973       0.98276608 </v>
    <v>       0.22161716       0.99220246       0.22904538 </v>
    <v>       0.57836078       0.96249201       0.71011587 </v>
    <v>       0.84484635       0.97245326       0.83490360 </v>
    <v>       0.80985943       0.02203485       0.22112168 </v>
    <v>       0.15478376       0.71262932       0.45062905 </v>
    <v>       0.31038471       0.17025824       0.54817619 </v>
    <v>       0.71174297       0.80960158       0.51098964 </v>
    <v>       0.70235475       0.21466201       0.49171057 </v>
    <v>       0.21245366       0.50035773       0.70826070 </v>
    <v>       0.29861445       0.51757997       0.20167319 </v>
    <v>       0.66772967       0.46377445       0.18433073 </v>
    <v>       0.79283710       0.53568406       0.66783870 </v>
    <v>       0.46158905       0.32008426       0.85006557 </v>
    <v>       0.46707127       0.80575289       0.32645657 </v>
    <v>       0.52537015       0.18880044       0.28601183 </v>
    <v>       0.51813410       0.67247996       0.78473161 </v>
    <v>       0.49402792       0.50378373       0.49815352 </v>
    <v>       0.50744746       0.00415872       0.99977983 </v>
    <v>       0.99899154       0.50382795       0.99745631 </v>
    <v>       0.01006753       0.00561400       0.50417286 </v>
    <v>       0.14451326       0.90065860       0.62663094 </v>
    <v>       0.11460351       0.14859325       0.38672941 </v>
    <v>       0.90917670       0.86345167       0.37894264 </v>
    <v>       0.87133846       0.11068647       0.62919988 </v>
    <v>       0.87460983       0.60726056       0.13731765 </v>
    <v>       0.87396422       0.39477897       0.86520953 </v>
    <v>       0.11535945       0.64759333       0.89052224 </v>
    <v>       0.11763907       0.37073814       0.11227251 </v>
    <v>       0.64039683       0.12872368       0.88644152 </v>
    <v>       0.62011666       0.88199543       0.13240279 </v>
    <v>       0.37683726       0.13594200       0.10438340 </v>
    <v>       0.39275920       0.89314222       0.85997717 </v>
    <v>       0.62998406       0.61625754       0.37790851 </v>
    <v>       0.60221450       0.38951843       0.64196263 </v>
    <v>       0.37032754       0.64931120       0.59256656 </v>
    <v>       0.37923873       0.37062645       0.37993916 </v>
    <v>       0.74292983       0.76519853       0.74778759 </v>
    <v>       0.75345657       0.25216989       0.25996254 </v>
    <v>       0.25213265       0.75490834       0.23543090 </v>
    <v>       0.25015067       0.27290953       0.75208802 </v>
    <v>       0.98797661       0.01503280       0.02904959 </v>
    <v>       0.00599501       0.51816648       0.53777819 </v>
    <v>       0.52164628       0.01270344       0.47914363 </v>
    <v>       0.49938993       0.53400908       0.99802516 </v>
   </varray>
  </structure>
  <varray name="forces" >
   <v>      -0.00007499       0.00132438      -0.00011706 </v>
   <v>      -0.00002456       0.00002020      -0.00043885 </v>
   <v>      -0.00012803       0.00012877      -0.00059086 </v>
   <v>       0.00019459      -0.00083634      -0.00061780 </v>
   <v>       0.00017368      -0.00097983      -0.00069045 </v>
   <v>       0.00014708       0.00031286      -0.00001872 </v>
   <v>       0.00154516       0.00024083       0.00048701 </v>
   <v>      -0.00001940      -0.00047402       0.00023369 </v>
   <v>      -0.00111106       0.00017475      -0.00106511 </v>
   <v>       0.00071766       0.00058005       0.00038394 </v>
   <v>       0.00044794      -0.00044891       0.00044271 </v>
   <v>       0.00014600      -0.00048073       0.00018741 </v>
   <v>      -0.00062654       0.00040673      -0.00040742 </v>
   <v>       0.00017489      -0.00073010      -0.00005075 </v>
   <v>      -0.00066057       0.00115033       0.00001668 </v>
   <v>      -0.00009034       0.00070095       0.00040999 </v>
   <v>       0.00007889       0.00032717      -0.00015719 </v>
   <v>       0.00052317      -0.00026580      -0.00107269 </v>
   <v>      -0.00076925      -0.00065464       0.00004078 </v>
   <v>      -0.00025808       0.00040789      -0.00139427 </v>
   <v>      -0.00032507      -0.00035149       0.00107435 </v>
   <v>      -0.00027361      -0.00023509       0.00072583 </v>
   <v>       0.00011203      -0.00064630       0.00049159 </v>
   <v>      -0.00011927      -0.00017015      -0.00018681 </v>
   <v>      -0.00038588       0.00046748      -0.00043514 </v>
   <v>       0.00063336       0.00039245       0.00080386 </v>
   <v>      -0.00024443      -0.00006732      -0.00025542 </v>
   <v>       0.00045486      -0.00014493       0.00018522 </v>
   <v>      -0.00004336       0.00053091       0.00019387 </v>
   <v>      -0.00018677       0.00033357      -0.00008857 </v>
   <v>       0.00023816      -0.00067250       0.00036220 </v>
   <v>      -0.00034500      -0.00018650       0.00044427 </v>
   <v>      -0.00000219      -0.00064162       0.00052838 </v>
   <v>      -0.00039682       0.00038399      -0.00039242 </v>
   <v>      -0.00021413       0.00051185       0.00003333 </v>
   <v>      -0.00008817      -0.00056567      -0.00047326 </v>
   <v>       0.00048350       0.00020473       0.00071170 </v>
   <v>      -0.00021506      -0.00016055       0.00016544 </v>
   <v>       0.00032518       0.00032074      -0.00022753 </v>
   <v>      -0.00045933       0.00014634      -0.00068394 </v>
   <v>       0.00048164      -0.00009353       0.00046188 </v>
   <v>      -0.00026981      -0.00005327       0.00083916 </v>
   <v>      -0.00008437       0.00071076      -0.00061678 </v>
   <v>       0.00019503       0.00017693      -0.00019986 </v>
   <v>      -0.00002573      -0.00002343       0.00014427 </v>
   <v>       0.00024534      -0.00039608       0.00033404 </v>
   <v>       0.00004503      -0.00010977      -0.00017796 </v>
   <v>      -0.00001660       0.00012941      -0.00031901 </v>
   <v>       0.00030859      -0.00059052       0.00057509 </v>
   <v>       0.00017678      -0.00003295       0.00004376 </v>
   <v>       0.00012107      -0.00011435       0.00011919 </v>
   <v>      -0.00051122       0.00004232       0.00023823 </v>
  </varray>
  <varray name="stress" >
   <v>       1.45605286       4.00112406       1.65374363 </v>
   <v>       4.00112333      -4.39828819      -0.76565627 </v>
   <v>       1.65374355      -0.76565663       2.91150264 </v>
  </varray>
  <energy>
   <i name="e_fr_energy">   -272.02522169 </i>
   <i name="e_wo_entrp">   -272.02522169 </i>
   <i name="e_0_energy">   -272.02522169 </i>
  </energy>
  <time name="totalsc">    7.69    7.79</time>
 </calculation>
 <calculation>
  <scstep>
   <time name="dav">    2.47    2.48</time>
   <time name="total">    2.99    3.01</time>
   <energy>
    <i name="alphaZ">    302.28895693 </i>
    <i name="ewald">  -8826.95528147 </i>
    <i name="hartreedc">  -2207.88027712 </i>
    <i name="XCdc">    537.89806179 </i>
    <i name="pawpsdc">   9809.38243408 </i>
    <i name="pawaedc">  -9953.29522916 </i>
    <i name="eentropy">     -0.00000000 </i>
    <i name="bandstr">  -2622.97605839 </i>
    <i name="atom">  12703.13999606 </i>
    <i name="e_fr_energy">   -258.39739728 </i>
    <i name="e_wo_entrp">   -258.39739728 </i>
    <i name="e_0_energy">   -258.39739728 </i>
   </energy>
  </scstep>
  <scstep>
   <time name="diag">    0.36    0.36</time>
   <time name="diis">    1.22    1.23</time>
   <time name="orth">    0.07    0.07</time>
   <time name="total">    2.10    2.12</time>
   <energy>
    <i name="alphaZ">    302.28895693 </i>
    <i name="ewald">  -8826.95528147 </i>
    <i name="hartreedc">  -2207.87651398 </i>
    <i name="XCdc">    537.89784964 </i>
    <i name="pawpsdc">   9809.31716181 </i>
    <i name="pawaedc">  -9953.22973386 </i>
    <i name="eentropy">     -0.00000000 </i>
    <i name="bandstr">  -2622.97983293 </i>
    <i name="atom">  12703.13999606 </i>
    <i name="e_fr_energy">   -258.39739781 </i>
    <i name="e_wo_entrp">   -258.39739781 </i>
    <i name="e_0_energy">   -258.39739781 </i>
   </energy>
  </scstep>
  <structure>
   <crystal>
    <varray name="basis" >
     <v>       9.64776070       0.00000000       0.00000000 </v>
     <v>       0.00000000       9.64776070       0.00000000 </v>
     <v>       0.00000000       0.00000000       9.64776070 </v>
    </varray>
    <i name="volume">    898.00668353 </i>
    <varray name="rec_basis" >
     <v>       0.10365100       0.00000000       0.00000000 </v>
     <v>       0.00000000       0.10365100       0.00000000 </v>
     <v>       0.00000000       0.00000000       0.10365100 </v>
    </varray>
   </crystal>
   <varray name="positions" >
    <v>       0.96665990       0.35829922       0.32038219 </v>
    <v>       0.98175056       0.73197887       0.70137002 </v>
    <v>       0.02600184       0.29611879       0.68287328 </v>
    <v>       0.03174808       0.79384209       0.14438001 </v>
    <v>       0.17587070       0.17575092       0.95224022 </v>
    <v>       0.32202289       0.71866763       0.01266417 </v>
    <v>       0.82913440       0.22172961       0.03343498 </v>
    <v>       0.70919415       0.70175739       0.98276686 </v>
    <v>       0.22161228       0.99220308       0.22904112 </v>
    <v>       0.57836335       0.96249431       0.71011790 </v>
    <v>       0.84484815       0.97245133       0.83490531 </v>
    <v>       0.80986032       0.02203254       0.22112285 </v>
    <v>       0.15478108       0.71263114       0.45062715 </v>
    <v>       0.31038560       0.17025514       0.54817622 </v>
    <v>       0.71174029       0.80960663       0.51098977 </v>
    <v>       0.70235421       0.21466528       0.49171272 </v>
    <v>       0.21245409       0.50035937       0.70826014 </v>
    <v>       0.29861651       0.51757885       0.20166862 </v>
    <v>       0.66772645       0.46377182       0.18433084 </v>
    <v>       0.79283564       0.53568562       0.66783306 </v>
    <v>       0.46158797       0.32008307       0.85006975 </v>
    <v>       0.46706998       0.80575207       0.32645979 </v>
    <v>       0.52537077       0.18879790       0.28601440 </v>
    <v>       0.51813352       0.67247950       0.78473110 </v>
    <v>       0.49402977       0.50378194       0.49815728 </v>
    <v>       0.50744494       0.00415503       0.99977542 </v>
    <v>       0.99899182       0.50382689       0.99745615 </v>
    <v>       0.01006573       0.00561578       0.50417206 </v>
    <v>       0.14451827       0.90065805       0.62663608 </v>
    <v>       0.11460424       0.14859757       0.38672749 </v>
    <v>       0.90917617       0.86344667       0.37894233 </v>
    <v>       0.87133604       0.11068650       0.62920281 </v>
    <v>       0.87460711       0.60725934       0.13732309 </v>
    <v>       0.87395968       0.39477865       0.86520519 </v>
    <v>       0.11536072       0.64759825       0.89052084 </v>
    <v>       0.11764015       0.37073420       0.11227203 </v>
    <v>       0.64040223       0.12872828       0.88644268 </v>
    <v>       0.62011897       0.88199171       0.13240839 </v>
    <v>       0.37683515       0.13594763       0.10438535 </v>
    <v>       0.39275936       0.89314541       0.85997652 </v>
    <v>       0.62998975       0.61626003       0.37790696 </v>
    <v>       0.60221215       0.38951927       0.64196539 </v>
    <v>       0.37032401       0.64931786       0.59256544 </v>
    <v>       0.37923628       0.37062386       0.37993499 </v>
    <v>       0.74292995       0.76519837       0.74778803 </v>
    <v>       0.75345792       0.25216899       0.25996390 </v>
    <v>       0.25213291       0.75490770       0.23543090 </v>
    <v>       0.25015116       0.27290976       0.75208649 </v>
    <v>       0.98798134       0.01502941       0.02905098 </v>
    <v>       0.00599550       0.51816584       0.53777404 </v>
    <v>       0.52164432       0.01270170       0.47914501 </v>
    <v>       0.49938751       0.53400623       0.99802756 </v>
   </varray>
  </structure>
  <varray name="forces" >
   <v>      -0.00008877       0.00075273      -0.00007582 </v>
   <v>       0.00006917       0.00005588      -0.00030034 </v>
   <v>      -0.00001778       0.00009075      -0.00035498 </v>
   <v>       0.00012247      -0.00053187      -0.00036341 </v>
   <v>       0.00015960      -0.00055380      -0.00035348 </v>
   <v>       0.00002623       0.00011250       0.00013152 </v>
   <v>       0.00086444       0.00008747       0.00030450 </v>
   <v>       0.00003439      -0.00026513       0.00027677 </v>
   <v>      -0.00057314       0.00015562      -0.00065306 </v>
   <v>       0.00055901       0.00040989       0.00011724 </v>
   <v>       0.00025716      -0.00022585       0.00030622 </v>
   <v>       0.00004592      -0.00029394       0.00005793 </v>
   <v>      -0.00032854       0.00021884      -0.00016493 </v>
   <v>       0.00005256      -0.00040305      -0.00011142 </v>
   <v>      -0.00040072       0.00058024      -0.00002001 </v>
   <v>      -0.00000724       0.00032422       0.00012736 </v>
   <v>       0.00004654       0.00020451      -0.00012491 </v>
   <v>       0.00033289      -0.00016036      -0.00057133 </v>
   <v>      -0.00044005      -0.00039068       0.00006825 </v>
   <v>      -0.00004156       0.00027454      -0.00086258 </v>
   <v>      -0.00026251      -0.00027953       0.00071460 </v>
   <v>      -0.00009871      -0.00018780       0.00037795 </v>
   <v>       0.00001745      -0.00039886       0.00015045 </v>
   <v>      -0.00008479      -0.00018585      -0.00020093 </v>
   <v>      -0.00126843       0.00141457      -0.00191549 </v>
   <v>       0.00185214       0.00188736       0.00281216 </v>
   <v>      -0.00055441       0.00021878      -0.00036437 </v>
   <v>       0.00139172      -0.00072418       0.00061262 </v>
   <v>      -0.00141862       0.00126633      -0.00108251 </v>
   <v>      -0.00060468      -0.00051897       0.00047008 </v>
   <v>       0.00063632       0.00006757       0.00074985 </v>
   <v>       0.00003505      -0.00039020       0.00000421 </v>
   <v>       0.00073092      -0.00098830      -0.00042666 </v>
   <v>       0.00045003       0.00083576       0.00047688 </v>
   <v>      -0.00075963      -0.00035620       0.00052941 </v>
   <v>      -0.00048582       0.00000302      -0.00074708 </v>
   <v>      -0.00056433      -0.00084473       0.00103705 </v>
   <v>      -0.00109941       0.00073908      -0.00115454 </v>
   <v>       0.00119695      -0.00092537      -0.00106190 </v>
   <v>      -0.00094865      -0.00049784      -0.00115496 </v>
   <v>      -0.00064565      -0.00090848       0.00130483 </v>
   <v>       0.00006469      -0.00031271       0.00087042 </v>
   <v>       0.00079886      -0.00042922      -0.00094887 </v>
   <v>       0.00107795       0.00104227       0.00078362 </v>
   <v>      -0.00008356      -0.00000232       0.00011539 </v>
   <v>       0.00014113      -0.00033453       0.00028394 </v>
   <v>      -0.00000422      -0.00005040      -0.00026416 </v>
   <v>      -0.00008795       0.00010251      -0.00016935 </v>
   <v>      -0.00024327      -0.00017703       0.00036028 </v>
   <v>       0.00007828       0.00001571       0.00046496 </v>
   <v>       0.00034891       0.00009285      -0.00001072 </v>
   <v>      -0.00027831       0.00038420      -0.00005069 </v>
  </varray>
  <varray name="stress" >
   <v>       1.43634309       4.00222944       1.65577890 </v>
   <v>       4.00222890      -4.41851424      -0.76405822 </v>
   <v>       1.65577880      -0.76405846       2.89335427 </v>
  </varray>
  <energy>
   <i name="e_fr_energy">   -272.02522290 </i>
   <i name="e_wo_entrp">   -272.02522290 </i>
   <i name="e_0_energy">   -272.02522290 </i>
  </energy>
  <time name="totalsc">    8.18    8.26</time>
 </calculation>
 <calculation>
  <scstep>
   <time name="dav">    2.28    2.30</time>
   <time name="total">    2.80    2.82</time>
   <energy>
    <i name="alphaZ">    302.28895693 </i>
    <i name="ewald">  -8826.93347636 </i>
    <i name="hartreedc">  -2207.89188076 </i>
    <i name="XCdc">    537.89815260 </i>
    <i name="pawpsdc">   9809.27399096 </i>
    <i name="pawaedc">  -9953.18634089 </i>
    <i name="eentropy">     -0.00000000 </i>
    <i name="bandstr">  -2622.98679636 </i>
    <i name="atom">  12703.13999606 </i>
    <i name="e_fr_energy">   -258.39739783 </i>
    <i name="e_wo_entrp">   -258.39739783 </i>
    <i name="e_0_energy">   -258.39739783 </i>
   </energy>
  </scstep>
  <scstep>
   <time name="diag">    0.36    0.37</time>
   <time name="diis">    0.75    0.76</time>
   <time name="orth">    0.07    0.07</time>
   <time name="total">    1.64    1.65</time>
   <energy>
    <i name="alphaZ">    302.28895693 </i>
    <i name="ewald">  -8826.93347636 </i>
    <i name="hartreedc">  -2207.89220224 </i>
    <i name="XCdc">    537.89818594 </i>
    <i name="pawpsdc">   9809.27938279 </i>
    <i name="pawaedc">  -9953.19169894 </i>
    <i name="eentropy">     -0.00000000 </i>
    <i name="bandstr">  -2622.98654214 </i>
    <i name="atom">  12703.13999606 </i>
    <i name="e_fr_energy">   -258.39739796 </i>
    <i name="e_wo_entrp">   -258.39739796 </i>
    <i name="e_0_energy">   -258.39739796 </i>
   </energy>
  </scstep>
  <structure>
   <crystal>
    <varray name="basis" >
     <v>       9.64776070       0.00000000       0.00000000 </v>
     <v>       0.00000000       9.64776070       0.00000000 </v>
     <v>       0.00000000       0.00000000       9.64776070 </v>
    </varray>
    <i name="volume">    898.00668353 </i>
    <varray name="rec_basis" >
     <v>       0.10365100       0.00000000       0.00000000 </v>
     <v>       0.00000000       0.10365100       0.00000000 </v>
     <v>       0.00000000       0.00000000       0.10365100 </v>
    </varray>
   </crystal>
   <varray name="positions" >
    <v>       0.96665994       0.35829744       0.32038234 </v>
    <v>       0.98175069       0.73197889       0.70137067 </v>
    <v>       0.02600212       0.29611862       0.68287414 </v>
    <v>       0.03174783       0.79384318       0.14438081 </v>
    <v>       0.17587051       0.17575222       0.95224118 </v>
    <v>       0.32202255       0.71866701       0.01266438 </v>
    <v>       0.82913229       0.22172923       0.03343434 </v>
    <v>       0.70919425       0.70175814       0.98276661 </v>
    <v>       0.22161385       0.99220288       0.22904248 </v>
    <v>       0.57836253       0.96249357       0.71011725 </v>
    <v>       0.84484757       0.97245195       0.83490476 </v>
    <v>       0.80986004       0.02203328       0.22112247 </v>
    <v>       0.15478194       0.71263055       0.45062776 </v>
    <v>       0.31038532       0.17025614       0.54817621 </v>
    <v>       0.71174115       0.80960501       0.51098973 </v>
    <v>       0.70235438       0.21466423       0.49171203 </v>
    <v>       0.21245395       0.50035884       0.70826032 </v>
    <v>       0.29861585       0.51757921       0.20167009 </v>
    <v>       0.66772748       0.46377267       0.18433081 </v>
    <v>       0.79283611       0.53568512       0.66783487 </v>
    <v>       0.46158832       0.32008345       0.85006841 </v>
    <v>       0.46707039       0.80575233       0.32645876 </v>
    <v>       0.52537057       0.18879872       0.28601357 </v>
    <v>       0.51813371       0.67247965       0.78473126 </v>
    <v>       0.49402917       0.50378252       0.49815607 </v>
    <v>       0.50744575       0.00415622       0.99977683 </v>
    <v>       0.99899173       0.50382723       0.99745620 </v>
    <v>       0.01006631       0.00561521       0.50417232 </v>
    <v>       0.14451666       0.90065822       0.62663443 </v>
    <v>       0.11460400       0.14859618       0.38672811 </v>
    <v>       0.90917634       0.86344828       0.37894243 </v>
    <v>       0.87133682       0.11068649       0.62920187 </v>
    <v>       0.87460798       0.60725973       0.13732134 </v>
    <v>       0.87396114       0.39477875       0.86520658 </v>
    <v>       0.11536031       0.64759667       0.89052129 </v>
    <v>       0.11763980       0.37073546       0.11227218 </v>
    <v>       0.64040050       0.12872680       0.88644231 </v>
    <v>       0.62011823       0.88199290       0.13240659 </v>
    <v>       0.37683583       0.13594582       0.10438473 </v>
    <v>       0.39275931       0.89314439       0.85997673 </v>
    <v>       0.62998792       0.61625923       0.37790746 </v>
    <v>       0.60221290       0.38951900       0.64196450 </v>
    <v>       0.37032514       0.64931572       0.59256580 </v>
    <v>       0.37923706       0.37062469       0.37993633 </v>
    <v>       0.74292991       0.76519842       0.74778789 </v>
    <v>       0.75345748       0.25216928       0.25996346 </v>
    <v>       0.25213283       0.75490791       0.23543090 </v>
    <v>       0.25015101       0.27290969       0.75208698 </v>
    <v>       0.98797982       0.01503050       0.02905054 </v>
    <v>       0.00599534       0.51816604       0.53777537 </v>
    <v>       0.52164495       0.01270226       0.47914457 </v>
    <v>       0.49938829       0.53400715       0.99802679 </v>
   </varray>
  </structure>
  <varray name="forces" >
   <v>      -0.00012299       0.00228369      -0.00018723 </v>
   <v>      -0.00010314       0.00000800      -0.00090668 </v>
   <v>      -0.00025182       0.00026679      -0.00116277 </v>
   <v>       0.00033958      -0.00145389      -0.00107690 </v>
   <v>       0.00028069      -0.00166953      -0.00120190 </v>
   <v>       0.00038907       0.00074783      -0.00010133 </v>
   <v>       0.00271266       0.00044967       0.00087214 </v>
   <v>      -0.00007445      -0.00098122       0.00041008 </v>
   <v>      -0.00198288       0.00026243      -0.00182098 </v>
   <v>       0.00119153       0.00102558       0.00071733 </v>
   <v>       0.00081587      -0.00080431       0.00080455 </v>
   <v>       0.00034284      -0.00089907       0.00044435 </v>
   <v>      -0.00116072       0.00076849      -0.00076421 </v>
   <v>       0.00032290      -0.00132585      -0.00005153 </v>
   <v>      -0.00114995       0.00203619       0.00005359 </v>
   <v>      -0.00015204       0.00126603       0.00075559 </v>
   <v>       0.00018788       0.00068699      -0.00029508 </v>
   <v>       0.00089168      -0.00040329      -0.00185515 </v>
   <v>      -0.00134586      -0.00112487       0.00009490 </v>
   <v>      -0.00051692       0.00070186      -0.00241016 </v>
[...]
       <r>     8.0374    10.5008   145.0452 </r>
       <r>     8.2307    13.9791   147.7493 </r>
       <r>     8.4241    12.4244   150.1519 </r>
       <r>     8.6175    15.4106   153.1323 </r>
       <r>     8.8109    13.4027   155.7265 </r>
       <r>     9.0043    18.0140   159.2105 </r>
       <r>     9.1976    15.1534   162.1468 </r>
       <r>     9.3910    19.9576   166.0062 </r>
       <r>     9.5844    16.7801   169.2518 </r>
       <r>     9.7778    18.0672   172.7472 </r>
       <r>     9.9711    13.8909   175.4343 </r>
       <r>    10.1645     2.9154   176.0000 </r>
       <r>    10.3579     0.0000   176.0000 </r>
       <r>    10.5513     0.0000   176.0000 </r>
       <r>    10.7446     0.0000   176.0000 </r>
       <r>    10.9380     0.0000   176.0000 </r>
       <r>    11.1314     0.0000   176.0000 </r>
       <r>    11.3248     0.0000   176.0000 </r>
       <r>    11.5181     0.0000   176.0000 </r>
       <r>    11.7115     0.0000   176.0000 </r>
       <r>    11.9049     0.0000   176.0000 </r>
       <r>    12.0983     0.0000   176.0000 </r>
       <r>    12.2916     0.0000   176.0000 </r>
       <r>    12.4850     0.0000   176.0000 </r>
       <r>    12.6784     0.0000   176.0000 </r>
      </set>
      <set comment="spin 2">
       <r>   -45.3343     0.0000     0.0000 </r>
       <r>   -45.1409     0.0000     0.0000 </r>
       <r>   -44.9476     0.0000     0.0000 </r>
       <r>   -44.7542     0.0000     0.0000 </r>
       <r>   -44.5608     0.0000     0.0000 </r>
       <r>   -44.3674     0.0000     0.0000 </r>
       <r>   -44.1741     0.0000     0.0000 </r>
       <r>   -43.9807     0.0000     0.0000 </r>
       <r>   -43.7873     0.0000     0.0000 </r>
       <r>   -43.5939     0.0000     0.0000 </r>
       <r>   -43.4006     0.0000     0.0000 </r>
       <r>   -43.2072     0.0000     0.0000 </r>
       <r>   -43.0138     0.0000     0.0000 </r>
       <r>   -42.8204     0.0000     0.0000 </r>
       <r>   -42.6271    10.0929     1.9517 </r>
       <r>   -42.4337    43.2422    10.3142 </r>
       <r>   -42.2403    45.9683    19.2034 </r>
       <r>   -42.0469    15.9377    22.2854 </r>
       <r>   -41.8535     8.8292    23.9928 </r>
       <r>   -41.6602     0.0000    24.0000 </r>
       <r>   -41.4668     0.0000    24.0000 </r>
       <r>   -41.2734     0.0000    24.0000 </r>
       <r>   -41.0800     0.0000    24.0000 </r>
       <r>   -40.8867     0.0000    24.0000 </r>
       <r>   -40.6933     0.0000    24.0000 </r>
       <r>   -40.4999     0.0000    24.0000 </r>
       <r>   -40.3065     0.0000    24.0000 </r>
       <r>   -40.1132     0.0000    24.0000 </r>
       <r>   -39.9198     0.0000    24.0000 </r>
       <r>   -39.7264     0.0000    24.0000 </r>
       <r>   -39.5330     0.0000    24.0000 </r>
       <r>   -39.3397     0.0000    24.0000 </r>
       <r>   -39.1463     0.0000    24.0000 </r>
       <r>   -38.9529     0.0000    24.0000 </r>
       <r>   -38.7595     0.0000    24.0000 </r>
       <r>   -38.5662     0.0000    24.0000 </r>
       <r>   -38.3728     0.0000    24.0000 </r>
       <r>   -38.1794     0.0000    24.0000 </r>
       <r>   -37.9860     0.0000    24.0000 </r>
       <r>   -37.7927     0.0000    24.0000 </r>
       <r>   -37.5993     0.0000    24.0000 </r>
       <r>   -37.4059     0.0000    24.0000 </r>
       <r>   -37.2125     0.0000    24.0000 </r>
       <r>   -37.0192     0.0000    24.0000 </r>
       <r>   -36.8258     0.0000    24.0000 </r>
       <r>   -36.6324     0.0000    24.0000 </r>
       <r>   -36.4390     0.0000    24.0000 </r>
       <r>   -36.2457     0.0000    24.0000 </r>
       <r>   -36.0523     0.0000    24.0000 </r>
       <r>   -35.8589     0.0000    24.0000 </r>
       <r>   -35.6655     0.0000    24.0000 </r>
       <r>   -35.4722     0.0000    24.0000 </r>
       <r>   -35.2788     0.0000    24.0000 </r>
       <r>   -35.0854     0.0000    24.0000 </r>
       <r>   -34.8920     0.0000    24.0000 </r>
       <r>   -34.6986     0.0000    24.0000 </r>
       <r>   -34.5053     0.0000    24.0000 </r>
       <r>   -34.3119     0.0000    24.0000 </r>
       <r>   -34.1185     0.0000    24.0000 </r>
       <r>   -33.9251     0.0000    24.0000 </r>
       <r>   -33.7318     0.0000    24.0000 </r>
       <r>   -33.5384     0.0000    24.0000 </r>
       <r>   -33.3450     0.0000    24.0000 </r>
       <r>   -33.1516     0.0000    24.0000 </r>
       <r>   -32.9583     0.0000    24.0000 </r>
       <r>   -32.7649     0.0000    24.0000 </r>
       <r>   -32.5715     0.0000    24.0000 </r>
       <r>   -32.3781     0.0000    24.0000 </r>
       <r>   -32.1848     0.0000    24.0000 </r>
       <r>   -31.9914     0.0000    24.0000 </r>
       <r>   -31.7980     0.0000    24.0000 </r>
       <r>   -31.6046     0.0000    24.0000 </r>
       <r>   -31.4113     0.0000    24.0000 </r>
       <r>   -31.2179     0.0000    24.0000 </r>
       <r>   -31.0245     0.0000    24.0000 </r>
       <r>   -30.8311     0.0000    24.0000 </r>
       <r>   -30.6378     0.0000    24.0000 </r>
       <r>   -30.4444     0.0000    24.0000 </r>
       <r>   -30.2510     0.0000    24.0000 </r>
       <r>   -30.0576     0.0000    24.0000 </r>
       <r>   -29.8643     0.0000    24.0000 </r>
       <r>   -29.6709     0.0000    24.0000 </r>
       <r>   -29.4775     0.0000    24.0000 </r>
       <r>   -29.2841     0.0000    24.0000 </r>
       <r>   -29.0908     0.0000    24.0000 </r>
       <r>   -28.8974     0.0000    24.0000 </r>
       <r>   -28.7040     0.0000    24.0000 </r>
       <r>   -28.5106     0.0000    24.0000 </r>
       <r>   -28.3173     0.0000    24.0000 </r>
       <r>   -28.1239     0.0000    24.0000 </r>
       <r>   -27.9305     0.0000    24.0000 </r>
       <r>   -27.7371     0.0000    24.0000 </r>
       <r>   -27.5438     0.0000    24.0000 </r>
       <r>   -27.3504     0.0000    24.0000 </r>
       <r>   -27.1570     0.0000    24.0000 </r>
       <r>   -26.9636     0.0000    24.0000 </r>
       <r>   -26.7702     0.0000    24.0000 </r>
       <r>   -26.5769     0.0000    24.0000 </r>
       <r>   -26.3835     0.0000    24.0000 </r>
       <r>   -26.1901     0.0000    24.0000 </r>
       <r>   -25.9967     0.0000    24.0000 </r>
       <r>   -25.8034     0.0000    24.0000 </r>
       <r>   -25.6100     0.0000    24.0000 </r>
       <r>   -25.4166     0.0000    24.0000 </r>
       <r>   -25.2232     0.0000    24.0000 </r>
       <r>   -25.0299     0.0000    24.0000 </r>
       <r>   -24.8365     0.0000    24.0000 </r>
       <r>   -24.6431     0.0000    24.0000 </r>
       <r>   -24.4497     0.0000    24.0000 </r>
       <r>   -24.2564     0.0000    24.0000 </r>
       <r>   -24.0630     0.0000    24.0000 </r>
       <r>   -23.8696     0.0000    24.0000 </r>
       <r>   -23.6762     0.0000    24.0000 </r>
       <r>   -23.4829     0.0000    24.0000 </r>
       <r>   -23.2895     0.0000    24.0000 </r>
       <r>   -23.0961     0.0000    24.0000 </r>
       <r>   -22.9027     0.0000    24.0000 </r>
       <r>   -22.7094     0.0000    24.0000 </r>
       <r>   -22.5160     0.0000    24.0000 </r>
       <r>   -22.3226     0.0000    24.0000 </r>
       <r>   -22.1292     0.0000    24.0000 </r>
       <r>   -21.9359     0.0000    24.0000 </r>
       <r>   -21.7425     0.0000    24.0000 </r>
       <r>   -21.5491     0.0000    24.0000 </r>
       <r>   -21.3557     0.0000    24.0000 </r>
       <r>   -21.1624     0.0000    24.0000 </r>
       <r>   -20.9690     0.0000    24.0000 </r>
       <r>   -20.7756     0.0000    24.0000 </r>
       <r>   -20.5822     0.0000    24.0000 </r>
       <r>   -20.3889     0.0000    24.0000 </r>
       <r>   -20.1955     0.0000    24.0000 </r>
       <r>   -20.0021     0.0000    24.0000 </r>
       <r>   -19.8087     0.0000    24.0000 </r>
       <r>   -19.6153     0.0000    24.0000 </r>
       <r>   -19.4220     0.0000    24.0000 </r>
       <r>   -19.2286     0.0000    24.0000 </r>
       <r>   -19.0352     0.0000    24.0000 </r>
       <r>   -18.8418     0.0000    24.0000 </r>
       <r>   -18.6485     0.0000    24.0000 </r>
       <r>   -18.4551     0.0000    24.0000 </r>
       <r>   -18.2617     0.0000    24.0000 </r>
       <r>   -18.0683     0.0000    24.0000 </r>
       <r>   -17.8750     0.0000    24.0000 </r>
       <r>   -17.6816     0.0000    24.0000 </r>
       <r>   -17.4882     0.0000    24.0000 </r>
       <r>   -17.2948     0.0000    24.0000 </r>
       <r>   -17.1015     0.0000    24.0000 </r>
       <r>   -16.9081     0.0000    24.0000 </r>
       <r>   -16.7147     0.0000    24.0000 </r>
       <r>   -16.5213     0.0000    24.0000 </r>
       <r>   -16.3280     0.0000    24.0000 </r>
       <r>   -16.1346     0.0000    24.0000 </r>
       <r>   -15.9412     0.0000    24.0000 </r>
       <r>   -15.7478     0.0000    24.0000 </r>
       <r>   -15.5545     0.0000    24.0000 </r>
       <r>   -15.3611     0.0000    24.0000 </r>
       <r>   -15.1677     0.0000    24.0000 </r>
       <r>   -14.9743     0.0000    24.0000 </r>
       <r>   -14.7810     0.0000    24.0000 </r>
       <r>   -14.5876     0.0000    24.0000 </r>
       <r>   -14.3942     0.0000    24.0000 </r>
       <r>   -14.2008     0.0000    24.0000 </r>
       <r>   -14.0075     0.0000    24.0000 </r>
       <r>   -13.8141     0.0000    24.0000 </r>
       <r>   -13.6207     0.0000    24.0000 </r>
       <r>   -13.4273     0.0000    24.0000 </r>
       <r>   -13.2340     0.0000    24.0000 </r>
       <r>   -13.0406     1.9708    24.3811 </r>
       <r>   -12.8472    17.9072    27.8439 </r>
       <r>   -12.6538    15.3920    30.8205 </r>
       <r>   -12.4604     6.0976    32.0000 </r>
       <r>   -12.2671     0.0000    32.0000 </r>
       <r>   -12.0737     0.0000    32.0000 </r>
       <r>   -11.8803     0.0000    32.0000 </r>
       <r>   -11.6869     0.0000    32.0000 </r>
       <r>   -11.4936     0.0000    32.0000 </r>
       <r>   -11.3002     0.0000    32.0000 </r>
       <r>   -11.1068     0.0000    32.0000 </r>
       <r>   -10.9134     0.0000    32.0000 </r>
       <r>   -10.7201     0.0000    32.0000 </r>
       <r>   -10.5267     0.0000    32.0000 </r>
       <r>   -10.3333     0.0002    32.0000 </r>
       <r>   -10.1399    15.4431    34.9863 </r>
       <r>    -9.9466    21.8665    39.2171 </r>
       <r>    -9.7532    21.0682    43.2957 </r>
       <r>    -9.5598     3.6417    44.0000 </r>
       <r>    -9.3664     0.0000    44.0000 </r>
       <r>    -9.1731     0.0000    44.0000 </r>
       <r>    -8.9797     0.0000    44.0000 </r>
       <r>    -8.7863     1.7801    44.3442 </r>
       <r>    -8.5929     3.3911    45.0000 </r>
       <r>    -8.3996     0.0983    45.0190 </r>
       <r>    -8.2062    10.2442    47.0000 </r>
       <r>    -8.0128     0.0000    47.0000 </r>
       <r>    -7.8194     0.0000    47.0000 </r>
       <r>    -7.6261     0.0111    47.0022 </r>
       <r>    -7.4327     5.1601    48.0000 </r>
       <r>    -7.2393     0.0000    48.0000 </r>
       <r>    -7.0459     0.0000    48.0000 </r>
       <r>    -6.8526     0.0000    48.0000 </r>
       <r>    -6.6592     0.0000    48.0000 </r>
       <r>    -6.4658     0.0000    48.0000 </r>
       <r>    -6.2724     0.0000    48.0000 </r>
       <r>    -6.0791     1.1314    48.2188 </r>
       <r>    -5.8857     4.0399    49.0000 </r>
       <r>    -5.6923     1.2541    49.2425 </r>
       <r>    -5.4989    11.3715    51.4415 </r>
       <r>    -5.3055     2.8883    52.0000 </r>
       <r>    -5.1122     0.0000    52.0000 </r>
       <r>    -4.9188     0.0000    52.0000 </r>
       <r>    -4.7254     0.0000    52.0000 </r>
       <r>    -4.5320     0.0000    52.0000 </r>
       <r>    -4.3387     0.0000    52.0000 </r>
       <r>    -4.1453     0.0000    52.0000 </r>
       <r>    -3.9519     0.0000    52.0000 </r>
       <r>    -3.7585     0.0000    52.0000 </r>
       <r>    -3.5652     0.0000    52.0000 </r>
       <r>    -3.3718     0.0000    52.0000 </r>
       <r>    -3.1784     3.2541    52.6293 </r>
       <r>    -2.9850    12.2597    55.0000 </r>
       <r>    -2.7917     3.7758    55.7302 </r>
       <r>    -2.5983    11.6509    57.9832 </r>
       <r>    -2.4049    10.9308    60.1018 </r>
       <r>    -2.2115    15.2370    63.0498 </r>
       <r>    -2.0182     4.9120    64.0000 </r>
       <r>    -1.8248     0.0000    64.0000 </r>
       <r>    -1.6314     0.9640    64.1864 </r>
       <r>    -1.4380    18.5975    67.7827 </r>
       <r>    -1.2447    25.2967    72.6745 </r>
       <r>    -1.0513    16.7822    75.9214 </r>
       <r>    -0.8579     0.4063    76.0000 </r>
       <r>    -0.6645     0.0005    76.0001 </r>
       <r>    -0.4712    10.5461    78.0394 </r>
       <r>    -0.2778    12.1672    80.3935 </r>
       <r>    -0.0844    16.1760    83.5216 </r>
       <r>     0.1090    24.8447    88.3293 </r>
       <r>     0.3023    22.7555    92.7360 </r>
       <r>     0.4957    15.5359    95.7433 </r>
       <r>     0.6891     3.3995    96.4016 </r>
       <r>     0.8825    15.5536    99.4093 </r>
       <r>     1.0758    18.6855   103.0253 </r>
       <r>     1.2692    20.1785   106.9301 </r>
       <r>     1.4626    22.4151   111.2655 </r>
       <r>     1.6560    21.5367   115.4319 </r>
       <r>     1.8494     8.1403   117.0073 </r>
       <r>     2.0427     5.7101   118.1134 </r>
       <r>     2.2361     9.7560   120.0000 </r>
       <r>     2.4295     0.0000   120.0000 </r>
       <r>     2.6229     0.0000   120.0000 </r>
       <r>     2.8162     0.0000   120.0000 </r>
       <r>     3.0096     0.0000   120.0000 </r>
       <r>     3.2030     0.0000   120.0000 </r>
       <r>     3.3964     0.0000   120.0000 </r>
       <r>     3.5897     0.0000   120.0000 </r>
       <r>     3.7831     0.0000   120.0000 </r>
       <r>     3.9765     0.0000   120.0000 </r>
       <r>     4.1699     0.0000   120.0000 </r>
       <r>     4.3632     0.0000   120.0000 </r>
       <r>     4.5566     5.1401   120.9940 </r>
       <r>     4.7500     0.0000   121.0000 </r>
       <r>     4.9434     0.0000   121.0000 </r>
       <r>     5.1367     0.0001   121.0000 </r>
       <r>     5.3301     5.7662   122.1151 </r>
       <r>     5.5235     9.7331   123.9984 </r>
       <r>     5.7169     0.0000   124.0000 </r>
       <r>     5.9102     0.9000   124.1740 </r>
       <r>     6.1036    14.5695   126.9914 </r>
       <r>     6.2970    13.2797   129.5603 </r>
       <r>     6.4904     2.3322   130.0115 </r>
       <r>     6.6837    12.8919   132.5045 </r>
       <r>     6.8771     8.8406   134.2173 </r>
       <r>     7.0705     9.2594   136.0079 </r>
       <r>     7.2639     5.6719   137.1051 </r>
       <r>     7.4572     6.4984   138.3617 </r>
       <r>     7.6506    10.8509   140.4629 </r>
       <r>     7.8440    13.1918   143.0145 </r>
       <r>     8.0374    10.5008   145.0452 </r>
       <r>     8.2307    13.9791   147.7493 </r>
       <r>     8.4241    12.4244   150.1519 </r>
       <r>     8.6175    15.4106   153.1323 </r>
       <r>     8.8109    13.4027   155.7265 </r>
       <r>     9.0043    18.0140   159.2105 </r>
       <r>     9.1976    15.1534   162.1468 </r>
       <r>     9.3910    19.9556   166.0058 </r>
       <r>     9.5844    16.7915   169.2535 </r>
       <r>     9.7778    17.9883   172.7337 </r>
       <r>     9.9711    14.2042   175.4817 </r>
       <r>    10.1645     2.6765   176.0000 </r>
       <r>    10.3579     0.0000   176.0000 </r>
       <r>    10.5513     0.0000   176.0000 </r>
       <r>    10.7446     0.0000   176.0000 </r>
       <r>    10.9380     0.0000   176.0000 </r>
       <r>    11.1314     0.0000   176.0000 </r>
       <r>    11.3248     0.0000   176.0000 </r>
       <r>    11.5181     0.0000   176.0000 </r>
       <r>    11.7115     0.0000   176.0000 </r>
       <r>    11.9049     0.0000   176.0000 </r>
       <r>    12.0983     0.0000   176.0000 </r>
       <r>    12.2916     0.0000   176.0000 </r>
       <r>    12.4850     0.0000   176.0000 </r>
       <r>    12.6784     0.0000   176.0000 </r>
      </set>
     </set>
    </array>
   </total>
  </dos>
 </calculation>
 <structure name="finalpos" >
  <crystal>
   <varray name="basis" >
    <v>       9.64776070       0.00000000       0.00000000 </v>
    <v>       0.00000000       9.64776070       0.00000000 </v>
    <v>       0.00000000       0.00000000       9.64776070 </v>
   </varray>
   <i name="volume">    898.00668353 </i>
   <varray name="rec_basis" >
    <v>       0.10365100       0.00000000       0.00000000 </v>
    <v>       0.00000000       0.10365100       0.00000000 </v>
    <v>       0.00000000       0.00000000       0.10365100 </v>
   </varray>
  </crystal>
  <varray name="positions" >
   <v>       0.96665955       0.35830503       0.32038164 </v>
   <v>       0.98175037       0.73197891       0.70136770 </v>
   <v>       0.02600127       0.29611946       0.68287041 </v>
   <v>       0.03174891       0.79383830       0.14437731 </v>
   <v>       0.17587147       0.17574671       0.95223708 </v>
   <v>       0.32202382       0.71866940       0.01266399 </v>
   <v>       0.82914129       0.22173069       0.03343719 </v>
   <v>       0.70919401       0.70175498       0.98276796 </v>
   <v>       0.22160739       0.99220379       0.22903653 </v>
   <v>       0.57836651       0.96249697       0.71011967 </v>
   <v>       0.84485016       0.97244934       0.83490739 </v>
   <v>       0.80986114       0.02203029       0.22112384 </v>
   <v>       0.15477822       0.71263308       0.45062530 </v>
   <v>       0.31038636       0.17025186       0.54817597 </v>
   <v>       0.71173737       0.80961173       0.51098991 </v>
   <v>       0.70235381       0.21466841       0.49171454 </v>
   <v>       0.21245450       0.50036095       0.70825942 </v>
   <v>       0.29861874       0.51757781       0.20166394 </v>
   <v>       0.66772304       0.46376891       0.18433110 </v>
   <v>       0.79283447       0.53568743       0.66782689 </v>
   <v>       0.46158651       0.32008154       0.85007441 </v>
   <v>       0.46706865       0.80575098       0.32646307 </v>
   <v>       0.52537142       0.18879496       0.28601662 </v>
   <v>       0.51813288       0.67247872       0.78473027 </v>
   <v>       0.49402715       0.50378505       0.49815372 </v>
   <v>       0.50744882       0.00415847       0.99978117 </v>
   <v>       0.99899046       0.50382707       0.99745516 </v>
   <v>       0.01006872       0.00561463       0.50417332 </v>
   <v>       0.14451742       0.90066134       0.62663628 </v>
   <v>       0.11460290       0.14859884       0.38672763 </v>
   <v>       0.90917760       0.86344384       0.37894432 </v>
   <v>       0.87133460       0.11068547       0.62920461 </v>
   <v>       0.87460731       0.60725574       0.13732522 </v>
   <v>       0.87395807       0.39478087       0.86520355 </v>
   <v>       0.11535936       0.64760024       0.89052135 </v>
   <v>       0.11763954       0.37073168       0.11226947 </v>
   <v>       0.64040431       0.12872900       0.88644633 </v>
   <v>       0.62011729       0.88199146       0.13240856 </v>
   <v>       0.37683708       0.13594861       0.10438373 </v>
   <v>       0.39275714       0.89314609       0.85997288 </v>
   <v>       0.62999158       0.61625908       0.37790966 </v>
   <v>       0.60221063       0.38951900       0.64196974 </v>
   <v>       0.37032411       0.64932068       0.59256220 </v>
   <v>       0.37923763       0.37062518       0.37993468 </v>
   <v>       0.74292964       0.76519818       0.74778872 </v>
   <v>       0.75345920       0.25216727       0.25996552 </v>
   <v>       0.25213315       0.75490722       0.23543009 </v>
   <v>       0.25015121       0.27291050       0.75208482 </v>
   <v>       0.98798432       0.01502621       0.02905319 </v>
   <v>       0.00599624       0.51816539       0.53777231 </v>
   <v>       0.52164379       0.01270060       0.47914637 </v>
   <v>       0.49938475       0.53400519       0.99802911 </v>
  </varray>
 </structure>
</modeling>
