unknown system                          
           1
     9.647761    0.000000    0.000000
     0.000000    9.647761    0.000000
     0.000000    0.000000    9.647761
   Li   P    S    Cl
    24     4    20     4
Direct configuration=     1
   0.96666017  0.35828743  0.32038317
   0.98175144  0.73197903  0.70137437
   0.02600368  0.29611765  0.68287901
   0.03174647  0.79384935  0.14438527
   0.17586941  0.17575955  0.95224662
   0.32202065  0.71866350  0.01266552
   0.82912040  0.22172709  0.03343075
   0.70919480  0.70176236  0.98276520
   0.22162266  0.99220175  0.22905018
   0.57835788  0.96248941  0.71011357
   0.84484432  0.97245544  0.83490168
   0.80985843  0.02203745  0.22112037
   0.15478678  0.71262727  0.45063119
   0.31038371  0.17026174  0.54817615
   0.71174600  0.80959588  0.51098950
   0.70235535  0.21465833  0.49170814
   0.21245318  0.50035589  0.70826134
   0.29861213  0.51758123  0.20167834
   0.66773330  0.46377741  0.18433061
   0.79283875  0.53568231  0.66784504
   0.46159028  0.32008561  0.85006086
   0.46707271  0.80575381  0.32645294
   0.52536946  0.18880331  0.28600893
   0.51813475  0.67248048  0.78473219
   0.49402583  0.50378574  0.49814928
   0.50745029  0.00416288  0.99978481
   0.99899124  0.50382913  0.99745650
   0.01006957  0.00561200  0.50417377
   0.14450761  0.90065922  0.62662515
   0.11460268  0.14858838  0.38673157
   0.90917730  0.86345731  0.37894300
   0.87134117  0.11068644  0.62919657
   0.87461289  0.60726194  0.13731153
   0.87396934  0.39477932  0.86521443
   0.11535803  0.64758778  0.89052382
   0.11763786  0.37074257  0.11227306
   0.64039074  0.12871851  0.88644022
   0.62011406  0.88199961  0.13239647
   0.37683962  0.13593567  0.10438120
   0.39275901  0.89313862  0.85997791
   0.62997766  0.61625474  0.37791026
   0.60221715  0.38951748  0.64195952
   0.37033151  0.64930369  0.59256783
   0.37924149  0.37062937  0.37994387
   0.74292970  0.76519872  0.74778709
   0.75345505  0.25217090  0.25996100
   0.25213235  0.75490907  0.23543090
   0.25015012  0.27290927  0.75208975
   0.98797127  0.01503661  0.02904802
   0.00599445  0.51816720  0.53778286
   0.52164848  0.01270540  0.47914208
   0.49939266  0.53401229  0.99802245
Direct configuration=     2
   0.96666009  0.35829090  0.32038288
   0.98175118  0.73197898  0.70137308
   0.02600314  0.29611799  0.68287732
   0.03174694  0.79384721  0.14438372
   0.17586979  0.17575701  0.95224473
   0.32202131  0.71866472  0.01266512
   0.82912453  0.22172783  0.03343199
   0.70919461  0.70176090  0.98276569
   0.22161960  0.99220214  0.22904751
   0.57835950  0.96249086  0.71011485
   0.84484545  0.97245423  0.83490275
   0.80985899  0.02203600  0.22112110
   0.15478510  0.71262841  0.45063000
   0.31038426  0.17025979  0.54817617
   0.71174431  0.80959905  0.51098958
   0.70235502  0.21466038  0.49170949
   0.21245345  0.50035691  0.70826098
   0.29861342  0.51758053  0.20167548
   0.66773128  0.46377576  0.18433068
   0.79283783  0.53568328  0.66784151
   0.46158960  0.32008486  0.85006348
   0.46707191  0.80575329  0.32645496
   0.52536985  0.18880172  0.28601054
   0.51813439  0.67248019  0.78473187
   0.49402699  0.50378462  0.49815164
   0.50744872  0.00416057  0.99978204
   0.99899141  0.50382847  0.99745639
   0.01006844  0.00561311  0.50417326
   0.14451075  0.90065888  0.62662837
   0.11460314  0.14859109  0.38673037
   0.90917697  0.86345417  0.37894280
   0.87133966  0.11068646  0.62919841
   0.87461119  0.60726117  0.13731493
   0.87396649  0.39477912  0.86521170
   0.11535882  0.64759087  0.89052294
   0.11763854  0.37074011  0.11227276
   0.64039413  0.12872139  0.88644094
   0.62011550  0.88199728  0.13239998
   0.37683831  0.13593919  0.10438243
   0.39275911  0.89314062  0.85997750
   0.62998122  0.61625630  0.37790928
   0.60221567  0.38951801  0.64196125
   0.37032930  0.64930787  0.59256713
   0.37923995  0.37062775  0.37994125
   0.74292978  0.76519861  0.74778737
   0.75345589  0.25217034  0.25996186
   0.25213252  0.75490867  0.23543090
   0.25015043  0.27290942  0.75208879
   0.98797424  0.01503449  0.02904889
   0.00599476  0.51816680  0.53778026
   0.52164725  0.01270431  0.47914294
   0.49939114  0.53401050  0.99802396
Direct configuration=     3
   0.96666003  0.35829367  0.32038265
   0.98175097  0.73197895  0.70137206
   0.02600270  0.29611826  0.68287597
   0.03174732  0.79384550  0.14438249
   0.17587009  0.17575498  0.95224323
   0.32202184  0.71866569  0.01266481
   0.82912782  0.22172843  0.03343299
   0.70919446  0.70175973  0.98276608
   0.22161716  0.99220246  0.22904538
   0.57836078  0.96249201  0.71011587
   0.84484635  0.97245326  0.83490360
   0.80985943  0.02203485  0.22112168
   0.15478376  0.71262932  0.45062905
   0.31038471  0.17025824  0.54817619
   0.71174297  0.80960158  0.51098964
   0.70235475  0.21466201  0.49171057
   0.21245366  0.50035773  0.70826070
   0.29861445  0.51757997  0.20167319
   0.66772967  0.46377445  0.18433073
   0.79283710  0.53568406  0.66783870
   0.46158905  0.32008426  0.85006557
   0.46707127  0.80575289  0.32645657
   0.52537015  0.18880044  0.28601183
   0.51813410  0.67247996  0.78473161
   0.49402792  0.50378373  0.49815352
   0.50744746  0.00415872  0.99977983
   0.99899154  0.50382795  0.99745631
   0.01006753  0.00561400  0.50417286
   0.14451326  0.90065860  0.62663094
   0.11460351  0.14859325  0.38672941
   0.90917670  0.86345167  0.37894264
   0.87133846  0.11068647  0.62919988
   0.87460983  0.60726056  0.13731765
   0.87396422  0.39477897  0.86520953
   0.11535945  0.64759333  0.89052224
   0.11763907  0.37073814  0.11227251
   0.64039683  0.12872368  0.88644152
   0.62011666  0.88199543  0.13240279
   0.37683726  0.13594200  0.10438340
   0.39275920  0.89314222  0.85997717
   0.62998406  0.61625754  0.37790851
   0.60221450  0.38951843  0.64196263
   0.37032754  0.64931120  0.59256656
   0.37923873  0.37062645  0.37993916
   0.74292983  0.76519853  0.74778759
   0.75345657  0.25216989  0.25996254
   0.25213265  0.75490834  0.23543090
   0.25015067  0.27290953  0.75208802
   0.98797661  0.01503280  0.02904959
   0.00599501  0.51816648  0.53777819
   0.52164628  0.01270344  0.47914363
   0.49938993  0.53400908  0.99802516
Direct configuration=     4
   0.96665990  0.35829922  0.32038219
   0.98175056  0.73197887  0.70137002
   0.02600184  0.29611879  0.68287328
   0.03174808  0.79384209  0.14438001
   0.17587070  0.17575092  0.95224022
   0.32202289  0.71866763  0.01266417
   0.82913440  0.22172961  0.03343498
   0.70919415  0.70175739  0.98276686
   0.22161228  0.99220308  0.22904112
   0.57836335  0.96249431  0.71011790
   0.84484815  0.97245133  0.83490531
   0.80986032  0.02203254  0.22112285
   0.15478108  0.71263114  0.45062715
   0.31038560  0.17025514  0.54817622
   0.71174029  0.80960663  0.51098977
   0.70235421  0.21466528  0.49171272
   0.21245409  0.50035937  0.70826014
   0.29861651  0.51757885  0.20166862
   0.66772645  0.46377182  0.18433084
   0.79283564  0.53568562  0.66783306
   0.46158797  0.32008307  0.85006975
   0.46706998  0.80575207  0.32645979
   0.52537077  0.18879790  0.28601440
   0.51813352  0.67247950  0.78473110
   0.49402977  0.50378194  0.49815728
   0.50744494  0.00415503  0.99977542
   0.99899182  0.50382689  0.99745615
   0.01006573  0.00561578  0.50417206
   0.14451827  0.90065805  0.62663608
   0.11460424  0.14859757  0.38672749
   0.90917617  0.86344667  0.37894233
   0.87133604  0.11068650  0.62920281
   0.87460711  0.60725934  0.13732309
   0.87395968  0.39477865  0.86520519
   0.11536072  0.64759825  0.89052084
   0.11764015  0.37073420  0.11227203
   0.64040223  0.12872828  0.88644268
   0.62011897  0.88199171  0.13240839
   0.37683515  0.13594763  0.10438535
   0.39275936  0.89314541  0.85997652
   0.62998975  0.61626003  0.37790696
   0.60221215  0.38951927  0.64196539
   0.37032401  0.64931786  0.59256544
   0.37923628  0.37062386  0.37993499
   0.74292995  0.76519837  0.74778803
   0.75345792  0.25216899  0.25996390
   0.25213291  0.75490770  0.23543090
   0.25015116  0.27290976  0.75208649
   0.98798134  0.01502941  0.02905098
   0.00599550  0.51816584  0.53777404
   0.52164432  0.01270170  0.47914501
   0.49938751  0.53400623  0.99802756
Direct configuration=     5
   0.96665994  0.35829744  0.32038234
   0.98175069  0.73197889  0.70137067
   0.02600212  0.29611862  0.68287414
   0.03174783  0.79384318  0.14438081
   0.17587051  0.17575222  0.95224118
   0.32202255  0.71866701  0.01266438
   0.82913229  0.22172923  0.03343434
   0.70919425  0.70175814  0.98276661
   0.22161385  0.99220288  0.22904248
   0.57836253  0.96249357  0.71011725
   0.84484757  0.97245195  0.83490476
   0.80986004  0.02203328  0.22112247
   0.15478194  0.71263055  0.45062776
   0.31038532  0.17025614  0.54817621
   0.71174115  0.80960501  0.51098973
   0.70235438  0.21466423  0.49171203
   0.21245395  0.50035884  0.70826032
   0.29861585  0.51757921  0.20167009
   0.66772748  0.46377267  0.18433081
   0.79283611  0.53568512  0.66783487
   0.46158832  0.32008345  0.85006841
   0.46707039  0.80575233  0.32645876
   0.52537057  0.18879872  0.28601357
   0.51813371  0.67247965  0.78473126
   0.49402917  0.50378252  0.49815607
   0.50744575  0.00415622  0.99977683
   0.99899173  0.50382723  0.99745620
   0.01006631  0.00561521  0.50417232
   0.14451666  0.90065822  0.62663443
   0.11460400  0.14859618  0.38672811
   0.90917634  0.86344828  0.37894243
   0.87133682  0.11068649  0.62920187
   0.87460798  0.60725973  0.13732134
   0.87396114  0.39477875  0.86520658
   0.11536031  0.64759667  0.89052129
   0.11763980  0.37073546  0.11227218
   0.64040050  0.12872680  0.88644231
   0.62011823  0.88199290  0.13240659
   0.37683583  0.13594582  0.10438473
   0.39275931  0.89314439  0.85997673
   0.62998792  0.61625923  0.37790746
   0.60221290  0.38951900  0.64196450
   0.37032514  0.64931572  0.59256580
   0.37923706  0.37062469  0.37993633
   0.74292991  0.76519842  0.74778789
   0.75345748  0.25216928  0.25996346
   0.25213283  0.75490791  0.23543090
   0.25015101  0.27290969  0.75208698
   0.98797982  0.01503050  0.02905054
   0.00599534  0.51816604  0.53777537
   0.52164495  0.01270226  0.47914457
   0.49938829  0.53400715  0.99802679
Direct configuration=     6
   0.96665991  0.35829883  0.32038222
   0.98175059  0.73197887  0.70137016
   0.02600190  0.29611876  0.68287346
   0.03174802  0.79384233  0.14438019
   0.17587066  0.17575121  0.95224043
   0.32202281  0.71866750  0.01266422
   0.82913394  0.22172953  0.03343484
   0.70919417  0.70175755  0.98276680
   0.22161262  0.99220304  0.22904142
   0.57836317  0.96249415  0.71011776
   0.84484802  0.97245146  0.83490519
   0.80986026  0.02203270  0.22112276
   0.15478127  0.71263101  0.45062728
   0.31038554  0.17025536  0.54817622
   0.71174047  0.80960628  0.51098976
   0.70235424  0.21466506  0.49171257
   0.21245406  0.50035925  0.70826018
   0.29861637  0.51757893  0.20166894
   0.66772667  0.46377201  0.18433083
   0.79283574  0.53568551  0.66783346
   0.46158805  0.32008315  0.85006945
   0.46707007  0.80575213  0.32645957
   0.52537072  0.18879808  0.28601422
   0.51813356  0.67247954  0.78473113
   0.49402964  0.50378207  0.49815701
   0.50744512  0.00415529  0.99977572
   0.99899180  0.50382697  0.99745616
   0.01006585  0.00561566  0.50417212
   0.14451792  0.90065808  0.62663573
   0.11460419  0.14859726  0.38672763
   0.90917621  0.86344702  0.37894235
   0.87133621  0.11068650  0.62920261
   0.87460730  0.60725943  0.13732271
   0.87396000  0.39477867  0.86520549
   0.11536063  0.64759790  0.89052094
   0.11764007  0.37073448  0.11227206
   0.64040185  0.12872796  0.88644260
   0.62011881  0.88199197  0.13240800
   0.37683530  0.13594724  0.10438522
   0.39275935  0.89314519  0.85997656
   0.62998935  0.61625986  0.37790707
   0.60221231  0.38951921  0.64196519
   0.37032426  0.64931739  0.59256552
   0.37923645  0.37062404  0.37993528
   0.74292994  0.76519838  0.74778800
   0.75345782  0.25216905  0.25996380
   0.25213289  0.75490775  0.23543090
   0.25015113  0.27290974  0.75208660
   0.98798101  0.01502965  0.02905088
   0.00599547  0.51816588  0.53777433
   0.52164445  0.01270182  0.47914492
   0.49938768  0.53400643  0.99802739
Direct configuration=     7
   0.96665955  0.35830503  0.32038164
   0.98175037  0.73197891  0.70136770
   0.02600127  0.29611946  0.68287041
   0.03174891  0.79383830  0.14437731
   0.17587147  0.17574671  0.95223708
   0.32202382  0.71866940  0.01266399
   0.82914129  0.22173069  0.03343719
   0.70919401  0.70175498  0.98276796
   0.22160739  0.99220379  0.22903653
   0.57836651  0.96249697  0.71011967
   0.84485016  0.97244934  0.83490739
   0.80986114  0.02203029  0.22112384
   0.15477822  0.71263308  0.45062530
   0.31038636  0.17025186  0.54817597
   0.71173737  0.80961173  0.51098991
   0.70235381  0.21466841  0.49171454
   0.21245450  0.50036095  0.70825942
   0.29861874  0.51757781  0.20166394
   0.66772304  0.46376891  0.18433110
   0.79283447  0.53568743  0.66782689
   0.46158651  0.32008154  0.85007441
   0.46706865  0.80575098  0.32646307
   0.52537142  0.18879496  0.28601662
   0.51813288  0.67247872  0.78473027
   0.49402715  0.50378505  0.49815372
   0.50744882  0.00415847  0.99978117
   0.99899046  0.50382707  0.99745516
   0.01006872  0.00561463  0.50417332
   0.14451742  0.90066134  0.62663628
   0.11460290  0.14859884  0.38672763
   0.90917760  0.86344384  0.37894432
   0.87133460  0.11068547  0.62920461
   0.87460731  0.60725574  0.13732522
   0.87395807  0.39478087  0.86520355
   0.11535936  0.64760024  0.89052135
   0.11763954  0.37073168  0.11226947
   0.64040431  0.12872900  0.88644633
   0.62011729  0.88199146  0.13240856
   0.37683708  0.13594861  0.10438373
   0.39275714  0.89314609  0.85997288
   0.62999158  0.61625908  0.37790966
   0.60221063  0.38951900  0.64196974
   0.37032411  0.64932068  0.59256220
   0.37923763  0.37062518  0.37993468
   0.74292964  0.76519818  0.74778872
   0.75345920  0.25216727  0.25996552
   0.25213315  0.75490722  0.23543009
   0.25015121  0.27291050  0.75208482
   0.98798432  0.01502621  0.02905319
   0.00599624  0.51816539  0.53777231
   0.52164379  0.01270060  0.47914637
   0.49938475  0.53400519  0.99802911
