  52  52   0  16
  0.1775564E+02  0.9737479E-09  0.9737479E-09  0.9737479E-09  0.2000000E-15
  1.000000000000000E-004
  CAR 
 unknown system                          
     12.34238587    -45.68322593  301      2.13954913      1.00000000
    -45.683  0.0000E+00  0.0000E+00  0.0000E+00  0.0000E+00
    -45.490  0.0000E+00  0.0000E+00  0.0000E+00  0.0000E+00
    -45.296  0.0000E+00  0.0000E+00  0.0000E+00  0.0000E+00
    -45.103  0.0000E+00  0.0000E+00  0.0000E+00  0.0000E+00
    -44.910  0.0000E+00  0.0000E+00  0.0000E+00  0.0000E+00
    -44.716  0.0000E+00  0.0000E+00  0.0000E+00  0.0000E+00
    -44.523  0.0000E+00  0.0000E+00  0.0000E+00  0.0000E+00
    -44.329  0.0000E+00  0.0000E+00  0.0000E+00  0.0000E+00
    -44.136  0.0000E+00  0.0000E+00  0.0000E+00  0.0000E+00
    -43.942  0.0000E+00  0.0000E+00  0.0000E+00  0.0000E+00
    -43.749  0.0000E+00  0.0000E+00  0.0000E+00  0.0000E+00
    -43.556  0.0000E+00  0.0000E+00  0.0000E+00  0.0000E+00
    -43.362  0.0000E+00  0.0000E+00  0.0000E+00  0.0000E+00
    -43.169  0.1691E-10  0.1691E-10  0.3270E-11  0.3270E-11
    -42.975  0.5168E-02  0.5168E-02  0.9995E-03  0.9995E-03
    -42.782  0.1819E-01  0.1819E-01  0.4518E-02  0.4518E-02
    -42.589  0.4404E-01  0.4404E-01  0.1304E-01  0.1304E-01
    -42.395  0.3073E-01  0.3073E-01  0.1900E-01  0.1900E-01
    -42.202  0.2579E-01  0.2579E-01  0.2399E-01  0.2399E-01
    -42.008  0.0000E+00  0.0000E+00  0.2400E-01  0.2400E-01
    -41.815  0.0000E+00  0.0000E+00  0.2400E-01  0.2400E-01
    -41.621  0.0000E+00  0.0000E+00  0.2400E-01  0.2400E-01
    -41.428  0.0000E+00  0.0000E+00  0.2400E-01  0.2400E-01
    -41.235  0.0000E+00  0.0000E+00  0.2400E-01  0.2400E-01
    -41.041  0.0000E+00  0.0000E+00  0.2400E-01  0.2400E-01
    -40.848  0.0000E+00  0.0000E+00  0.2400E-01  0.2400E-01
    -40.654  0.0000E+00  0.0000E+00  0.2400E-01  0.2400E-01
    -40.461  0.0000E+00  0.0000E+00  0.2400E-01  0.2400E-01
    -40.268  0.0000E+00  0.0000E+00  0.2400E-01  0.2400E-01
    -40.074  0.0000E+00  0.0000E+00  0.2400E-01  0.2400E-01
    -39.881  0.0000E+00  0.0000E+00  0.2400E-01  0.2400E-01
    -39.687  0.0000E+00  0.0000E+00  0.2400E-01  0.2400E-01
    -39.494  0.0000E+00  0.0000E+00  0.2400E-01  0.2400E-01
    -39.300  0.0000E+00  0.0000E+00  0.2400E-01  0.2400E-01
    -39.107  0.0000E+00  0.0000E+00  0.2400E-01  0.2400E-01
    -38.914  0.0000E+00  0.0000E+00  0.2400E-01  0.2400E-01
    -38.720  0.0000E+00  0.0000E+00  0.2400E-01  0.2400E-01
    -38.527  0.0000E+00  0.0000E+00  0.2400E-01  0.2400E-01
    -38.333  0.0000E+00  0.0000E+00  0.2400E-01  0.2400E-01
    -38.140  0.0000E+00  0.0000E+00  0.2400E-01  0.2400E-01
    -37.946  0.0000E+00  0.0000E+00  0.2400E-01  0.2400E-01
    -37.753  0.0000E+00  0.0000E+00  0.2400E-01  0.2400E-01
    -37.560  0.0000E+00  0.0000E+00  0.2400E-01  0.2400E-01
    -37.366  0.0000E+00  0.0000E+00  0.2400E-01  0.2400E-01
    -37.173  0.0000E+00  0.0000E+00  0.2400E-01  0.2400E-01
    -36.979  0.0000E+00  0.0000E+00  0.2400E-01  0.2400E-01
    -36.786  0.0000E+00  0.0000E+00  0.2400E-01  0.2400E-01
    -36.593  0.0000E+00  0.0000E+00  0.2400E-01  0.2400E-01
    -36.399  0.0000E+00  0.0000E+00  0.2400E-01  0.2400E-01
    -36.206  0.0000E+00  0.0000E+00  0.2400E-01  0.2400E-01
    -36.012  0.0000E+00  0.0000E+00  0.2400E-01  0.2400E-01
    -35.819  0.0000E+00  0.0000E+00  0.2400E-01  0.2400E-01
    -35.625  0.0000E+00  0.0000E+00  0.2400E-01  0.2400E-01
    -35.432  0.0000E+00  0.0000E+00  0.2400E-01  0.2400E-01
    -35.239  0.0000E+00  0.0000E+00  0.2400E-01  0.2400E-01
    -35.045  0.0000E+00  0.0000E+00  0.2400E-01  0.2400E-01
    -34.852  0.0000E+00  0.0000E+00  0.2400E-01  0.2400E-01
    -34.658  0.0000E+00  0.0000E+00  0.2400E-01  0.2400E-01
    -34.465  0.0000E+00  0.0000E+00  0.2400E-01  0.2400E-01
    -34.272  0.0000E+00  0.0000E+00  0.2400E-01  0.2400E-01
    -34.078  0.0000E+00  0.0000E+00  0.2400E-01  0.2400E-01
    -33.885  0.0000E+00  0.0000E+00  0.2400E-01  0.2400E-01
    -33.691  0.0000E+00  0.0000E+00  0.2400E-01  0.2400E-01
    -33.498  0.0000E+00  0.0000E+00  0.2400E-01  0.2400E-01
    -33.304  0.0000E+00  0.0000E+00  0.2400E-01  0.2400E-01
    -33.111  0.0000E+00  0.0000E+00  0.2400E-01  0.2400E-01
    -32.918  0.0000E+00  0.0000E+00  0.2400E-01  0.2400E-01
    -32.724  0.0000E+00  0.0000E+00  0.2400E-01  0.2400E-01
    -32.531  0.0000E+00  0.0000E+00  0.2400E-01  0.2400E-01
    -32.337  0.0000E+00  0.0000E+00  0.2400E-01  0.2400E-01
    -32.144  0.0000E+00  0.0000E+00  0.2400E-01  0.2400E-01
    -31.950  0.0000E+00  0.0000E+00  0.2400E-01  0.2400E-01
    -31.757  0.0000E+00  0.0000E+00  0.2400E-01  0.2400E-01
    -31.564  0.0000E+00  0.0000E+00  0.2400E-01  0.2400E-01
    -31.370  0.0000E+00  0.0000E+00  0.2400E-01  0.2400E-01
    -31.177  0.0000E+00  0.0000E+00  0.2400E-01  0.2400E-01
    -30.983  0.0000E+00  0.0000E+00  0.2400E-01  0.2400E-01
    -30.790  0.0000E+00  0.0000E+00  0.2400E-01  0.2400E-01
    -30.597  0.0000E+00  0.0000E+00  0.2400E-01  0.2400E-01
    -30.403  0.0000E+00  0.0000E+00  0.2400E-01  0.2400E-01
    -30.210  0.0000E+00  0.0000E+00  0.2400E-01  0.2400E-01
    -30.016  0.0000E+00  0.0000E+00  0.2400E-01  0.2400E-01
    -29.823  0.0000E+00  0.0000E+00  0.2400E-01  0.2400E-01
    -29.629  0.0000E+00  0.0000E+00  0.2400E-01  0.2400E-01
    -29.436  0.0000E+00  0.0000E+00  0.2400E-01  0.2400E-01
    -29.243  0.0000E+00  0.0000E+00  0.2400E-01  0.2400E-01
    -29.049  0.0000E+00  0.0000E+00  0.2400E-01  0.2400E-01
    -28.856  0.0000E+00  0.0000E+00  0.2400E-01  0.2400E-01
    -28.662  0.0000E+00  0.0000E+00  0.2400E-01  0.2400E-01
    -28.469  0.0000E+00  0.0000E+00  0.2400E-01  0.2400E-01
    -28.276  0.0000E+00  0.0000E+00  0.2400E-01  0.2400E-01
    -28.082  0.0000E+00  0.0000E+00  0.2400E-01  0.2400E-01
    -27.889  0.0000E+00  0.0000E+00  0.2400E-01  0.2400E-01
    -27.695  0.0000E+00  0.0000E+00  0.2400E-01  0.2400E-01
    -27.502  0.0000E+00  0.0000E+00  0.2400E-01  0.2400E-01
    -27.308  0.0000E+00  0.0000E+00  0.2400E-01  0.2400E-01
    -27.115  0.0000E+00  0.0000E+00  0.2400E-01  0.2400E-01
    -26.922  0.0000E+00  0.0000E+00  0.2400E-01  0.2400E-01
    -26.728  0.0000E+00  0.0000E+00  0.2400E-01  0.2400E-01
    -26.535  0.0000E+00  0.0000E+00  0.2400E-01  0.2400E-01
    -26.341  0.0000E+00  0.0000E+00  0.2400E-01  0.2400E-01
    -26.148  0.0000E+00  0.0000E+00  0.2400E-01  0.2400E-01
    -25.955  0.0000E+00  0.0000E+00  0.2400E-01  0.2400E-01
    -25.761  0.0000E+00  0.0000E+00  0.2400E-01  0.2400E-01
    -25.568  0.0000E+00  0.0000E+00  0.2400E-01  0.2400E-01
    -25.374  0.0000E+00  0.0000E+00  0.2400E-01  0.2400E-01
    -25.181  0.0000E+00  0.0000E+00  0.2400E-01  0.2400E-01
    -24.987  0.0000E+00  0.0000E+00  0.2400E-01  0.2400E-01
    -24.794  0.0000E+00  0.0000E+00  0.2400E-01  0.2400E-01
    -24.601  0.0000E+00  0.0000E+00  0.2400E-01  0.2400E-01
    -24.407  0.0000E+00  0.0000E+00  0.2400E-01  0.2400E-01
    -24.214  0.0000E+00  0.0000E+00  0.2400E-01  0.2400E-01
    -24.020  0.0000E+00  0.0000E+00  0.2400E-01  0.2400E-01
    -23.827  0.0000E+00  0.0000E+00  0.2400E-01  0.2400E-01
    -23.633  0.0000E+00  0.0000E+00  0.2400E-01  0.2400E-01
    -23.440  0.0000E+00  0.0000E+00  0.2400E-01  0.2400E-01
    -23.247  0.0000E+00  0.0000E+00  0.2400E-01  0.2400E-01
    -23.053  0.0000E+00  0.0000E+00  0.2400E-01  0.2400E-01
    -22.860  0.0000E+00  0.0000E+00  0.2400E-01  0.2400E-01
    -22.666  0.0000E+00  0.0000E+00  0.2400E-01  0.2400E-01
    -22.473  0.0000E+00  0.0000E+00  0.2400E-01  0.2400E-01
    -22.280  0.0000E+00  0.0000E+00  0.2400E-01  0.2400E-01
    -22.086  0.0000E+00  0.0000E+00  0.2400E-01  0.2400E-01
    -21.893  0.0000E+00  0.0000E+00  0.2400E-01  0.2400E-01
    -21.699  0.0000E+00  0.0000E+00  0.2400E-01  0.2400E-01
    -21.506  0.0000E+00  0.0000E+00  0.2400E-01  0.2400E-01
    -21.312  0.0000E+00  0.0000E+00  0.2400E-01  0.2400E-01
    -21.119  0.0000E+00  0.0000E+00  0.2400E-01  0.2400E-01
    -20.926  0.0000E+00  0.0000E+00  0.2400E-01  0.2400E-01
    -20.732  0.0000E+00  0.0000E+00  0.2400E-01  0.2400E-01
    -20.539  0.0000E+00  0.0000E+00  0.2400E-01  0.2400E-01
    -20.345  0.0000E+00  0.0000E+00  0.2400E-01  0.2400E-01
    -20.152  0.0000E+00  0.0000E+00  0.2400E-01  0.2400E-01
    -19.959  0.0000E+00  0.0000E+00  0.2400E-01  0.2400E-01
    -19.765  0.0000E+00  0.0000E+00  0.2400E-01  0.2400E-01
    -19.572  0.0000E+00  0.0000E+00  0.2400E-01  0.2400E-01
    -19.378  0.0000E+00  0.0000E+00  0.2400E-01  0.2400E-01
    -19.185  0.0000E+00  0.0000E+00  0.2400E-01  0.2400E-01
    -18.991  0.0000E+00  0.0000E+00  0.2400E-01  0.2400E-01
    -18.798  0.0000E+00  0.0000E+00  0.2400E-01  0.2400E-01
    -18.605  0.0000E+00  0.0000E+00  0.2400E-01  0.2400E-01
    -18.411  0.0000E+00  0.0000E+00  0.2400E-01  0.2400E-01
    -18.218  0.0000E+00  0.0000E+00  0.2400E-01  0.2400E-01
    -18.024  0.0000E+00  0.0000E+00  0.2400E-01  0.2400E-01
    -17.831  0.0000E+00  0.0000E+00  0.2400E-01  0.2400E-01
    -17.638  0.0000E+00  0.0000E+00  0.2400E-01  0.2400E-01
    -17.444  0.0000E+00  0.0000E+00  0.2400E-01  0.2400E-01
    -17.251  0.0000E+00  0.0000E+00  0.2400E-01  0.2400E-01
    -17.057  0.0000E+00  0.0000E+00  0.2400E-01  0.2400E-01
    -16.864  0.0000E+00  0.0000E+00  0.2400E-01  0.2400E-01
    -16.670  0.0000E+00  0.0000E+00  0.2400E-01  0.2400E-01
    -16.477  0.0000E+00  0.0000E+00  0.2400E-01  0.2400E-01
    -16.284  0.0000E+00  0.0000E+00  0.2400E-01  0.2400E-01
    -16.090  0.0000E+00  0.0000E+00  0.2400E-01  0.2400E-01
    -15.897  0.0000E+00  0.0000E+00  0.2400E-01  0.2400E-01
    -15.703  0.0000E+00  0.0000E+00  0.2400E-01  0.2400E-01
    -15.510  0.0000E+00  0.0000E+00  0.2400E-01  0.2400E-01
    -15.316  0.0000E+00  0.0000E+00  0.2400E-01  0.2400E-01
    -15.123  0.0000E+00  0.0000E+00  0.2400E-01  0.2400E-01
    -14.930  0.0000E+00  0.0000E+00  0.2400E-01  0.2400E-01
    -14.736  0.0000E+00  0.0000E+00  0.2400E-01  0.2400E-01
    -14.543  0.0000E+00  0.0000E+00  0.2400E-01  0.2400E-01
    -14.349  0.0000E+00  0.0000E+00  0.2400E-01  0.2400E-01
    -14.156  0.0000E+00  0.0000E+00  0.2400E-01  0.2400E-01
    -13.963  0.0000E+00  0.0000E+00  0.2400E-01  0.2400E-01
    -13.769  0.0000E+00  0.0000E+00  0.2400E-01  0.2400E-01
    -13.576  0.0000E+00  0.0000E+00  0.2400E-01  0.2400E-01
    -13.382  0.3720E-12  0.3720E-12  0.2400E-01  0.2400E-01
    -13.189  0.1072E-01  0.1072E-01  0.2607E-01  0.2607E-01
    -12.995  0.9938E-02  0.9938E-02  0.2800E-01  0.2800E-01
    -12.802  0.4648E-08  0.4648E-08  0.2800E-01  0.2800E-01
    -12.609  0.1131E-01  0.1131E-01  0.3019E-01  0.3019E-01
    -12.415  0.9364E-02  0.9364E-02  0.3200E-01  0.3200E-01
    -12.222  0.0000E+00  0.0000E+00  0.3200E-01  0.3200E-01
    -12.028  0.0000E+00  0.0000E+00  0.3200E-01  0.3200E-01
    -11.835  0.0000E+00  0.0000E+00  0.3200E-01  0.3200E-01
    -11.642  0.0000E+00  0.0000E+00  0.3200E-01  0.3200E-01
    -11.448  0.0000E+00  0.0000E+00  0.3200E-01  0.3200E-01
    -11.255  0.0000E+00  0.0000E+00  0.3200E-01  0.3200E-01
    -11.061  0.0000E+00  0.0000E+00  0.3200E-01  0.3200E-01
    -10.868  0.0000E+00  0.0000E+00  0.3200E-01  0.3200E-01
    -10.674  0.8060E-14  0.8060E-14  0.3200E-01  0.3200E-01
    -10.481  0.5111E-02  0.5111E-02  0.3299E-01  0.3299E-01
    -10.288  0.1786E-01  0.1786E-01  0.3645E-01  0.3645E-01
    -10.094  0.2837E-01  0.2837E-01  0.4194E-01  0.4194E-01
     -9.901  0.1065E-01  0.1065E-01  0.4400E-01  0.4400E-01
     -9.707  0.0000E+00  0.0000E+00  0.4400E-01  0.4400E-01
     -9.514  0.0000E+00  0.0000E+00  0.4400E-01  0.4400E-01
     -9.321  0.0000E+00  0.0000E+00  0.4400E-01  0.4400E-01
     -9.127  0.4396E-03  0.4396E-03  0.4409E-01  0.4409E-01
     -8.934  0.4731E-02  0.4731E-02  0.4500E-01  0.4500E-01
     -8.740  0.0000E+00  0.0000E+00  0.4500E-01  0.4500E-01
     -8.547  0.5143E-05  0.5143E-05  0.4500E-01  0.4500E-01
     -8.353  0.1034E-01  0.1034E-01  0.4700E-01  0.4700E-01
     -8.160  0.0000E+00  0.0000E+00  0.4700E-01  0.4700E-01
     -7.967  0.5767E-03  0.5767E-03  0.4711E-01  0.4711E-01
     -7.773  0.4593E-02  0.4593E-02  0.4800E-01  0.4800E-01
     -7.580  0.0000E+00  0.0000E+00  0.4800E-01  0.4800E-01
     -7.386  0.0000E+00  0.0000E+00  0.4800E-01  0.4800E-01
     -7.193  0.0000E+00  0.0000E+00  0.4800E-01  0.4800E-01
     -6.999  0.0000E+00  0.0000E+00  0.4800E-01  0.4800E-01
     -6.806  0.0000E+00  0.0000E+00  0.4800E-01  0.4800E-01
     -6.613  0.0000E+00  0.0000E+00  0.4800E-01  0.4800E-01
     -6.419  0.3474E-12  0.3474E-12  0.4800E-01  0.4800E-01
     -6.226  0.5099E-02  0.5099E-02  0.4899E-01  0.4899E-01
     -6.032  0.6434E-04  0.6434E-04  0.4900E-01  0.4900E-01
     -5.839  0.1030E-01  0.1030E-01  0.5099E-01  0.5099E-01
     -5.646  0.5193E-02  0.5193E-02  0.5200E-01  0.5200E-01
     -5.452  0.0000E+00  0.0000E+00  0.5200E-01  0.5200E-01
     -5.259  0.0000E+00  0.0000E+00  0.5200E-01  0.5200E-01
     -5.065  0.0000E+00  0.0000E+00  0.5200E-01  0.5200E-01
     -4.872  0.0000E+00  0.0000E+00  0.5200E-01  0.5200E-01
     -4.678  0.0000E+00  0.0000E+00  0.5200E-01  0.5200E-01
     -4.485  0.0000E+00  0.0000E+00  0.5200E-01  0.5200E-01
     -4.292  0.0000E+00  0.0000E+00  0.5200E-01  0.5200E-01
     -4.098  0.0000E+00  0.0000E+00  0.5200E-01  0.5200E-01
     -3.905  0.0000E+00  0.0000E+00  0.5200E-01  0.5200E-01
     -3.711  0.0000E+00  0.0000E+00  0.5200E-01  0.5200E-01
     -3.518  0.1856E-06  0.1856E-06  0.5200E-01  0.5200E-01
     -3.325  0.9998E-02  0.9998E-02  0.5393E-01  0.5393E-01
     -3.131  0.5513E-02  0.5513E-02  0.5500E-01  0.5500E-01
     -2.938  0.7457E-02  0.7457E-02  0.5645E-01  0.5645E-01
     -2.744  0.1111E-01  0.1111E-01  0.5860E-01  0.5860E-01
     -2.551  0.1873E-01  0.1873E-01  0.6222E-01  0.6222E-01
     -2.357  0.7544E-02  0.7544E-02  0.6368E-01  0.6368E-01
     -2.164  0.1631E-02  0.1631E-02  0.6400E-01  0.6400E-01
     -1.971  0.0000E+00  0.0000E+00  0.6400E-01  0.6400E-01
     -1.777  0.7058E-12  0.7058E-12  0.6400E-01  0.6400E-01
     -1.584  0.6481E-02  0.6481E-02  0.6525E-01  0.6525E-01
     -1.390  0.2321E-01  0.2321E-01  0.6975E-01  0.6975E-01
     -1.197  0.1771E-01  0.1771E-01  0.7317E-01  0.7317E-01
     -1.004  0.1454E-01  0.1454E-01  0.7599E-01  0.7599E-01
     -0.810  0.1889E-02  0.1889E-02  0.7636E-01  0.7636E-01
     -0.617  0.1264E-01  0.1264E-01  0.7880E-01  0.7880E-01
     -0.423  0.1138E-01  0.1138E-01  0.8100E-01  0.8100E-01
     -0.230  0.1960E-01  0.1960E-01  0.8479E-01  0.8479E-01
     -0.036  0.2296E-01  0.2296E-01  0.8923E-01  0.8923E-01
      0.157  0.2300E-01  0.2300E-01  0.9368E-01  0.9368E-01
      0.350  0.1194E-01  0.1194E-01  0.9600E-01  0.9600E-01
      0.544  0.7473E-02  0.7473E-02  0.9745E-01  0.9745E-01
      0.737  0.2085E-01  0.2085E-01  0.1015E+00  0.1015E+00
      0.931  0.2291E-01  0.2291E-01  0.1059E+00  0.1059E+00
      1.124  0.1888E-01  0.1888E-01  0.1096E+00  0.1096E+00
      1.318  0.1988E-01  0.1988E-01  0.1134E+00  0.1134E+00
      1.511  0.2175E-01  0.2175E-01  0.1176E+00  0.1176E+00
      1.704  0.7097E-02  0.7097E-02  0.1190E+00  0.1190E+00
      1.898  0.9412E-06  0.9412E-06  0.1190E+00  0.1190E+00
      2.091  0.5169E-02  0.5169E-02  0.1200E+00  0.1200E+00
      2.285  0.0000E+00  0.0000E+00  0.1200E+00  0.1200E+00
      2.478  0.0000E+00  0.0000E+00  0.1200E+00  0.1200E+00
      2.671  0.0000E+00  0.0000E+00  0.1200E+00  0.1200E+00
      2.865  0.0000E+00  0.0000E+00  0.1200E+00  0.1200E+00
      3.058  0.0000E+00  0.0000E+00  0.1200E+00  0.1200E+00
      3.252  0.0000E+00  0.0000E+00  0.1200E+00  0.1200E+00
      3.445  0.0000E+00  0.0000E+00  0.1200E+00  0.1200E+00
      3.639  0.0000E+00  0.0000E+00  0.1200E+00  0.1200E+00
      3.832  0.0000E+00  0.0000E+00  0.1200E+00  0.1200E+00
      4.025  0.0000E+00  0.0000E+00  0.1200E+00  0.1200E+00
      4.219  0.9859E-03  0.9859E-03  0.1202E+00  0.1202E+00
      4.412  0.4184E-02  0.4184E-02  0.1210E+00  0.1210E+00
      4.606  0.0000E+00  0.0000E+00  0.1210E+00  0.1210E+00
      4.799  0.0000E+00  0.0000E+00  0.1210E+00  0.1210E+00
      4.992  0.1530E-02  0.1530E-02  0.1213E+00  0.1213E+00
      5.186  0.1131E-01  0.1131E-01  0.1235E+00  0.1235E+00
      5.379  0.2666E-02  0.2666E-02  0.1240E+00  0.1240E+00
      5.573  0.4713E-08  0.4713E-08  0.1240E+00  0.1240E+00
      5.766  0.9625E-02  0.9625E-02  0.1259E+00  0.1259E+00
      5.960  0.1324E-01  0.1324E-01  0.1284E+00  0.1284E+00
      6.153  0.8148E-02  0.8148E-02  0.1300E+00  0.1300E+00
      6.346  0.7657E-02  0.7657E-02  0.1315E+00  0.1315E+00
      6.540  0.8212E-02  0.8212E-02  0.1331E+00  0.1331E+00
      6.733  0.1459E-01  0.1459E-01  0.1359E+00  0.1359E+00
      6.927  0.5413E-02  0.5413E-02  0.1369E+00  0.1369E+00
      7.120  0.3130E-02  0.3130E-02  0.1375E+00  0.1375E+00
      7.313  0.9019E-02  0.9019E-02  0.1393E+00  0.1393E+00
      7.507  0.1149E-01  0.1149E-01  0.1415E+00  0.1415E+00
      7.700  0.1291E-01  0.1291E-01  0.1440E+00  0.1440E+00
      7.894  0.1251E-01  0.1251E-01  0.1464E+00  0.1464E+00
      8.087  0.1296E-01  0.1296E-01  0.1489E+00  0.1489E+00
      8.281  0.1672E-01  0.1672E-01  0.1522E+00  0.1522E+00
      8.474  0.1008E-01  0.1008E-01  0.1541E+00  0.1541E+00
      8.667  0.1945E-01  0.1945E-01  0.1579E+00  0.1579E+00
      8.861  0.1554E-01  0.1554E-01  0.1609E+00  0.1609E+00
      9.054  0.1870E-01  0.1870E-01  0.1645E+00  0.1645E+00
      9.248  0.2043E-01  0.2043E-01  0.1685E+00  0.1685E+00
      9.441  0.1449E-01  0.1449E-01  0.1713E+00  0.1713E+00
      9.635  0.1790E-01  0.1790E-01  0.1747E+00  0.1747E+00
      9.828  0.6463E-02  0.6463E-02  0.1760E+00  0.1760E+00
     10.021  0.0000E+00  0.0000E+00  0.1760E+00  0.1760E+00
     10.215  0.0000E+00  0.0000E+00  0.1760E+00  0.1760E+00
     10.408  0.0000E+00  0.0000E+00  0.1760E+00  0.1760E+00
     10.602  0.0000E+00  0.0000E+00  0.1760E+00  0.1760E+00
     10.795  0.0000E+00  0.0000E+00  0.1760E+00  0.1760E+00
     10.988  0.0000E+00  0.0000E+00  0.1760E+00  0.1760E+00
     11.182  0.0000E+00  0.0000E+00  0.1760E+00  0.1760E+00
     11.375  0.0000E+00  0.0000E+00  0.1760E+00  0.1760E+00
     11.569  0.0000E+00  0.0000E+00  0.1760E+00  0.1760E+00
     11.762  0.0000E+00  0.0000E+00  0.1760E+00  0.1760E+00
     11.956  0.0000E+00  0.0000E+00  0.1760E+00  0.1760E+00
     12.149  0.0000E+00  0.0000E+00  0.1760E+00  0.1760E+00
     12.342  0.0000E+00  0.0000E+00  0.1760E+00  0.1760E+00
