 vasp.6.4.1 05Apr23 (build Jun 07 2023 15:38:11) complex                        
  
 executed on             LinuxIFC date 2023.10.26  10:56:39
 running  128 mpi-ranks, with    1 threads/rank, on    1 nodes
 distrk:  each k-point on  128 cores,    1 groups
 distr:  one band on NCORE=  32 cores,    4 groups


--------------------------------------------------------------------------------------------------------


 INCAR:
   GGA = PE
   PREC = Accu
   EDIFF = 1.e-6
   EDIFFG = -1.e-3
   ENCUT = 520.
   NELM = 100
   NELMDL = -10
   LASPH = .TRUE.
   LREAL = Auto
   LMAXMIX = 4
   ISPIN = 2
   LDIAG = .TRUE.
   LPLANE = .TRUE.
   IVDW = 12
   SIGMA = 0.03
   ISMEAR = 0
   NSW = 1000    number of steps for IOM
   IBRION = 2    ionic relax: 0-MD 1-quasi-New 2-CG
   ISIF = 2    ionic relaxation + stress tensor calcn.
   LCHARG = .FALSE.
   LWAVE = .FALSE.
   ALGO = F
   KPAR = 1
   NPAR = 4
   POTIM = 0.2

 POTCAR:    PAW_PBE Li_sv_GW 25Mar2010            
 POTCAR:    PAW_PBE P_GW 19Mar2012                
 POTCAR:    PAW_PBE S_GW 19Mar2012                
 POTCAR:    PAW_PBE Cl_GW 19Mar2012               
 -----------------------------------------------------------------------------
|                                                                             |
|           W    W    AA    RRRRR   N    N  II  N    N   GGGG   !!!           |
|           W    W   A  A   R    R  NN   N  II  NN   N  G    G  !!!           |
|           W    W  A    A  R    R  N N  N  II  N N  N  G       !!!           |
|           W WW W  AAAAAA  RRRRR   N  N N  II  N  N N  G  GGG   !            |
|           WW  WW  A    A  R   R   N   NN  II  N   NN  G    G                |
|           W    W  A    A  R    R  N    N  II  N    N   GGGG   !!!           |
|                                                                             |
|     You use a magnetic or noncollinear calculation, but did not specify     |
|     the initial magnetic moment with the MAGMOM tag. Note that a            |
|     default of 1 will be used for all atoms. This ferromagnetic setup       |
|     may break the symmetry of the crystal, in particular it may rule        |
|     out finding an antiferromagnetic solution. Thence, we recommend         |
|     setting the initial magnetic moment manually or verifying carefully     |
|     that this magnetic setup is desired.                                    |
|                                                                             |
 -----------------------------------------------------------------------------

 POTCAR:    PAW_PBE Li_sv_GW 25Mar2010            
   SHA256 =  24a6ace15a582615486b36ce4dc781b048409f4015b7684ed1273ae395fa2fdc Li_sv_GW/POTCAR       
   COPYR  = (c) Copyright 25Mar2010 Georg Kresse                                                    
   COPYR  = This file is part of the software VASP. Any use, copying, and all other rights are regul
   COPYR  = If you do not have a valid VASP license, you may not use, copy or distribute this file. 
   VRHFIN =Li: 1s2s                                                                                 
   LEXCH  = PE                                                                                      
   EATOM  =   200.9989 eV,   14.7730 Ry                                                             
                                                                                                    
   TITEL  = PAW_PBE Li_sv_GW 25Mar2010                                                              
   LULTRA =        F    use ultrasoft PP ?                                                          
   IUNSCR =        0    unscreen: 0-lin 1-nonlin 2-no                                               
   RPACOR =    0.000    partial core radius                                                         
   POMASS =    7.010; ZVAL   =    3.000    mass and valenz                                          
   RCORE  =    1.500    outmost cutoff radius                                                       
   RWIGS  =    1.600; RWIGS  =    0.847    wigner-seitz radius (au A)                               
   ENMAX  =  433.699; ENMIN  =  325.274 eV                                                          
   RCLOC  =    1.003    cutoff for local pot                                                        
   LCOR   =        T    correct aug charges                                                         
   LPAW   =        T    paw PP                                                                      
   EAUG   = 1041.699                                                                                
   RMAX   =    1.536    core radius for proj-oper                                                   
   RAUG   =    1.300    factor for augmentation sphere                                              
   RDEP   =    1.520    radius for radial grids                                                     
   RDEPT  =    1.300    core radius for aug-charge                                                  
                                                                                                    
   Atomic configuration                                                                             
    4 entries                                                                                       
     n  l   j            E        occ.                                                              
     1  0  0.50       -53.3604   2.0000                                                             
     1  0  0.50       -52.0001   0.0000                                                             
     2  1  0.50        -1.5636   1.0000                                                             
     3  2  1.50        -1.3606   0.0000                                                             
   Description                                                                                      
     l       E           TYP  RCUT    TYP  RCUT                                                     
     0    -53.3603633     23  1.200                                                                 
     0    -52.0001064     23  1.200                                                                 
     0    176.8757380     23  1.300                                                                 
     1     -1.5635925     23  1.500                                                                 
     1    108.8466080     23  1.500                                                                 
     2     81.6349560     23  1.500                                                                 
  local pseudopotential read in
  kinetic energy density of atom read in
  atomic valenz-charges read in
  non local Contribution for L=           0  read in
    real space projection operators read in
  non local Contribution for L=           0  read in
    real space projection operators read in
  non local Contribution for L=           0  read in
    real space projection operators read in
  non local Contribution for L=           1  read in
    real space projection operators read in
  non local Contribution for L=           1  read in
    real space projection operators read in
  non local Contribution for L=           2  read in
    real space projection operators read in
    PAW grid and wavefunctions read in
 
   number of l-projection  operators is LMAX  =           6
   number of lm-projection operators is LMMAX =          14
 
 POTCAR:    PAW_PBE P_GW 19Mar2012                
   SHA256 =  715c28f2291d37b61637ce89646c59f66f71c8b8d8bfba631e5feb9f7b42defe P_GW/POTCAR           
   COPYR  = (c) Copyright 19Mar2012 Georg Kresse                                                    
   COPYR  = This file is part of the software VASP. Any use, copying, and all other rights are regul
   COPYR  = If you do not have a valid VASP license, you may not use, copy or distribute this file. 
   VRHFIN =P : s2p3                                                                                 
   LEXCH  = PE                                                                                      
   EATOM  =   176.0430 eV,   12.9388 Ry                                                             
                                                                                                    
   TITEL  = PAW_PBE P_GW 19Mar2012                                                                  
   LULTRA =        F    use ultrasoft PP ?                                                          
   IUNSCR =        1    unscreen: 0-lin 1-nonlin 2-no                                               
   RPACOR =    1.400    partial core radius                                                         
   POMASS =   30.974; ZVAL   =    5.000    mass and valenz                                          
   RCORE  =    2.000    outmost cutoff radius                                                       
   RWIGS  =    1.900; RWIGS  =    1.005    wigner-seitz radius (au A)                               
   ENMAX  =  255.040; ENMIN  =  191.280 eV                                                          
   ICORE  =        3    local potential                                                             
   LCOR   =        T    correct aug charges                                                         
   LPAW   =        T    paw PP                                                                      
   EAUG   =  499.732                                                                                
   DEXC   =    0.000                                                                                
   RMAX   =    2.047    core radius for proj-oper                                                   
   RAUG   =    1.300    factor for augmentation sphere                                              
   RDEP   =    2.059    radius for radial grids                                                     
   RDEPT  =    1.900    core radius for aug-charge                                                  
                                                                                                    
   Atomic configuration                                                                             
    7 entries                                                                                       
     n  l   j            E        occ.                                                              
     1  0  0.50     -2084.0982   2.0000                                                             
     2  0  0.50      -173.9859   2.0000                                                             
     2  1  1.50      -124.4865   6.0000                                                             
     3  0  0.50       -13.9692   2.0000                                                             
     3  1  0.50        -5.5067   3.0000                                                             
     3  2  1.50        -6.8029   0.0000                                                             
     4  3  2.50        -1.3606   0.0000                                                             
   Description                                                                                      
     l       E           TYP  RCUT    TYP  RCUT                                                     
     0    -13.9691528     23  1.900                                                                 
     0    102.0436950     23  1.900                                                                 
     1     -5.5066939     23  1.900                                                                 
     1    102.0436950     23  1.900                                                                 
     2     -8.1634956     23  2.000                                                                 
     2     81.6349560     23  2.000                                                                 
     3     27.2116520     23  2.000                                                                 
  local pseudopotential read in
  partial core-charges read in
  partial kinetic energy density read in
  kinetic energy density of atom read in
  atomic valenz-charges read in
  non local Contribution for L=           0  read in
    real space projection operators read in
  non local Contribution for L=           0  read in
    real space projection operators read in
  non local Contribution for L=           1  read in
    real space projection operators read in
  non local Contribution for L=           1  read in
    real space projection operators read in
  non local Contribution for L=           2  read in
    real space projection operators read in
  non local Contribution for L=           2  read in
    real space projection operators read in
    PAW grid and wavefunctions read in
 
   number of l-projection  operators is LMAX  =           6
   number of lm-projection operators is LMMAX =          18
 
 POTCAR:    PAW_PBE S_GW 19Mar2012                
   SHA256 =  357db9cfb0783579b2eebe03197c2d807131fea8ea663b1fcfb6ce2fa75af011 S_GW/POTCAR           
   COPYR  = (c) Copyright 19Mar2012 Georg Kresse                                                    
   COPYR  = This file is part of the software VASP. Any use, copying, and all other rights are regul
   COPYR  = If you do not have a valid VASP license, you may not use, copy or distribute this file. 
   VRHFIN =S : s2p4                                                                                 
   LEXCH  = PE                                                                                      
   EATOM  =   276.8230 eV,   20.3459 Ry                                                             
                                                                                                    
   TITEL  = PAW_PBE S_GW 19Mar2012                                                                  
   LULTRA =        F    use ultrasoft PP ?                                                          
   IUNSCR =        1    unscreen: 0-lin 1-nonlin 2-no                                               
   RPACOR =    1.400    partial core radius                                                         
   POMASS =   32.066; ZVAL   =    6.000    mass and valenz                                          
   RCORE  =    1.900    outmost cutoff radius                                                       
   RWIGS  =    1.900; RWIGS  =    1.005    wigner-seitz radius (au A)                               
   ENMAX  =  258.689; ENMIN  =  194.016 eV                                                          
   ICORE  =        3    local potential                                                             
   LCOR   =        T    correct aug charges                                                         
   LPAW   =        T    paw PP                                                                      
   EAUG   =  488.319                                                                                
   DEXC   =    0.000                                                                                
   RMAX   =    1.942    core radius for proj-oper                                                   
   RAUG   =    1.300    factor for augmentation sphere                                              
   RDEP   =    1.954    radius for radial grids                                                     
   RDEPT  =    1.900    core radius for aug-charge                                                  
                                                                                                    
   Atomic configuration                                                                             
    7 entries                                                                                       
     n  l   j            E        occ.                                                              
     1  0  0.50     -2405.8406   2.0000                                                             
     2  0  0.50      -211.7007   2.0000                                                             
     2  1  1.50      -156.4958   6.0000                                                             
     3  0  0.50       -17.2562   2.0000                                                             
     3  1  0.50        -7.0085   4.0000                                                             
     3  2  1.50        -8.1635   0.0000                                                             
     4  3  2.50        -1.3606   0.0000                                                             
   Description                                                                                      
     l       E           TYP  RCUT    TYP  RCUT                                                     
     0    -17.2561639     23  1.700                                                                 
     0     88.4378690     23  1.900                                                                 
     1     -7.0085399     23  1.900                                                                 
     1     88.4378690     23  1.900                                                                 
     2    -10.8846608     23  1.900                                                                 
     2     54.4233040     23  1.900                                                                 
     3     27.2116520     23  1.800                                                                 
  local pseudopotential read in
  partial core-charges read in
  partial kinetic energy density read in
  kinetic energy density of atom read in
  atomic valenz-charges read in
  non local Contribution for L=           0  read in
    real space projection operators read in
  non local Contribution for L=           0  read in
    real space projection operators read in
  non local Contribution for L=           1  read in
    real space projection operators read in
  non local Contribution for L=           1  read in
    real space projection operators read in
  non local Contribution for L=           2  read in
    real space projection operators read in
  non local Contribution for L=           2  read in
    real space projection operators read in
    PAW grid and wavefunctions read in
 
   number of l-projection  operators is LMAX  =           6
   number of lm-projection operators is LMMAX =          18
 
 POTCAR:    PAW_PBE Cl_GW 19Mar2012               
   SHA256 =  3ef3b3169d6a9a89979f58b4cf17d927a58518fc660d8883d88cacaee8175441 Cl_GW/POTCAR          
   COPYR  = (c) Copyright 19Mar2012 Georg Kresse                                                    
   COPYR  = This file is part of the software VASP. Any use, copying, and all other rights are regul
   COPYR  = If you do not have a valid VASP license, you may not use, copy or distribute this file. 
   VRHFIN =Cl: s2p5                                                                                 
   LEXCH  = PE                                                                                      
   EATOM  =   409.7259 eV,   30.1140 Ry                                                             
                                                                                                    
   TITEL  = PAW_PBE Cl_GW 19Mar2012                                                                 
   LULTRA =        F    use ultrasoft PP ?                                                          
   IUNSCR =        1    unscreen: 0-lin 1-nonlin 2-no                                               
   RPACOR =    1.400    partial core radius                                                         
   POMASS =   35.453; ZVAL   =    7.000    mass and valenz                                          
   RCORE  =    1.900    outmost cutoff radius                                                       
   RWIGS  =    1.900; RWIGS  =    1.005    wigner-seitz radius (au A)                               
   ENMAX  =  262.472; ENMIN  =  196.854 eV                                                          
   ICORE  =        3    local potential                                                             
   LCOR   =        T    correct aug charges                                                         
   LPAW   =        T    paw PP                                                                      
   EAUG   =  456.703                                                                                
   DEXC   =    0.000                                                                                
   RMAX   =    1.945    core radius for proj-oper                                                   
   RAUG   =    1.300    factor for augmentation sphere                                              
   RDEP   =    2.020    radius for radial grids                                                     
   RDEPT  =    1.900    core radius for aug-charge                                                  
                                                                                                    
   Atomic configuration                                                                             
    7 entries                                                                                       
     n  l   j            E        occ.                                                              
     1  0  0.50     -2751.1850   2.0000                                                             
     2  0  0.50      -252.6861   2.0000                                                             
     2  1  1.50      -191.6157   6.0000                                                             
     3  0  0.50       -20.6916   2.0000                                                             
     3  1  0.50        -8.5949   5.0000                                                             
     3  2  1.50        -9.5241   0.0000                                                             
     4  3  2.50        -9.5241   0.0000                                                             
   Description                                                                                      
     l       E           TYP  RCUT    TYP  RCUT                                                     
     0    -20.6915657     23  1.700                                                                 
     0     95.2407820     23  1.800                                                                 
     1     -8.5948577     23  1.900                                                                 
     1     95.2407820     23  1.900                                                                 
     2    -10.8846608     23  1.900                                                                 
     2     54.4233040     23  1.900                                                                 
     3     27.2116520     23  1.900                                                                 
  local pseudopotential read in
  partial core-charges read in
  partial kinetic energy density read in
  kinetic energy density of atom read in
  atomic valenz-charges read in
  non local Contribution for L=           0  read in
    real space projection operators read in
  non local Contribution for L=           0  read in
    real space projection operators read in
  non local Contribution for L=           1  read in
    real space projection operators read in
  non local Contribution for L=           1  read in
    real space projection operators read in
  non local Contribution for L=           2  read in
    real space projection operators read in
  non local Contribution for L=           2  read in
    real space projection operators read in
    PAW grid and wavefunctions read in
 
   number of l-projection  operators is LMAX  =           6
   number of lm-projection operators is LMMAX =          18
 
 Optimization of the real space projectors (new method)

 maximal supplied QI-value         = 25.13
 optimisation between [QCUT,QGAM] = [ 11.56, 23.12] = [ 37.43,149.72] Ry 
 Optimized for a Real-space Cutoff    1.28 Angstroem

   l    n(q)    QCUT    max X(q) W(low)/X(q) W(high)/X(q)  e(spline) 
   0      9    11.561    87.733    0.11E-03    0.32E-04    0.56E-06
   0      9    11.561    82.800    0.11E-03    0.35E-04    0.56E-06
   0      9    11.561     2.509    0.22E-03    0.42E-04    0.79E-06
   1      8    11.561    12.580    0.94E-04    0.26E-03    0.21E-06
   1      8    11.561     1.319    0.33E-04    0.15E-03    0.19E-06
   2      8    11.561     1.993    0.36E-04    0.89E-04    0.26E-06
 Optimization of the real space projectors (new method)

 maximal supplied QI-value         = 18.90
 optimisation between [QCUT,QGAM] = [ 11.53, 23.24] = [ 37.21,151.29] Ry 
 Optimized for a Real-space Cutoff    1.21 Angstroem

   l    n(q)    QCUT    max X(q) W(low)/X(q) W(high)/X(q)  e(spline) 
   0      8    11.527     8.355    0.73E-04    0.70E-04    0.26E-07
   0      8    11.527     1.401    0.17E-03    0.17E-03    0.63E-07
   1      8    11.527     4.747    0.13E-03    0.17E-03    0.11E-06
   1      8    11.527     2.025    0.16E-03    0.18E-03    0.12E-06
   2      7    11.527     3.169    0.51E-04    0.25E-03    0.60E-07
   2      7    11.527     3.441    0.82E-04    0.22E-03    0.14E-06
 Optimization of the real space projectors (new method)

 maximal supplied QI-value         = 19.84
 optimisation between [QCUT,QGAM] = [ 11.51, 23.22] = [ 37.09,150.92] Ry 
 Optimized for a Real-space Cutoff    1.49 Angstroem

   l    n(q)    QCUT    max X(q) W(low)/X(q) W(high)/X(q)  e(spline) 
   0     10    11.508     7.541    0.34E-04    0.13E-04    0.69E-07
   0     10    11.508     1.809    0.49E-04    0.27E-04    0.14E-06
   1     10    11.508     4.107    0.27E-05    0.41E-05    0.14E-06
   1     10    11.508     2.196    0.26E-05    0.25E-05    0.22E-06
   2      9    11.508     4.265    0.18E-03    0.11E-03    0.81E-06
   2      9    11.508     1.925    0.97E-04    0.76E-04    0.47E-06
 Optimization of the real space projectors (new method)

 maximal supplied QI-value         = 19.84
 optimisation between [QCUT,QGAM] = [ 11.51, 23.22] = [ 37.09,150.92] Ry 
 Optimized for a Real-space Cutoff    1.21 Angstroem

   l    n(q)    QCUT    max X(q) W(low)/X(q) W(high)/X(q)  e(spline) 
   0      8    11.508     6.761    0.57E-04    0.57E-04    0.35E-07
   0      8    11.508     1.642    0.14E-03    0.14E-03    0.91E-07
   1      8    11.508     3.519    0.20E-04    0.72E-04    0.47E-07
   1      8    11.508     2.150    0.27E-04    0.11E-03    0.89E-07
   2      7    11.508     2.976    0.19E-03    0.33E-03    0.16E-06
   2      7    11.508     1.494    0.14E-03    0.29E-03    0.14E-06
  PAW_PBE Li_sv_GW 25Mar2010            :
 energy of atom  1       EATOM= -200.9989
 kinetic energy error for atom=    0.0127 (will be added to EATOM!!)
  PAW_PBE P_GW 19Mar2012                :
 energy of atom  2       EATOM= -176.0430
 kinetic energy error for atom=    0.0011 (will be added to EATOM!!)
  PAW_PBE S_GW 19Mar2012                :
 energy of atom  3       EATOM= -276.8230
 kinetic energy error for atom=    0.0024 (will be added to EATOM!!)
  PAW_PBE Cl_GW 19Mar2012               :
 energy of atom  4       EATOM= -409.7259
 kinetic energy error for atom=    0.0030 (will be added to EATOM!!)
 
 
 POSCAR: Li24 P4 S20 Cl4
  positions in direct lattice
  velocities in cartesian coordinates
 exchange correlation table for  LEXCH =        8
   RHO(1)=    0.500       N(1)  =     2000
   RHO(2)=  100.500       N(2)  =     4000

 VTST: version 4.1, (05/19/21)

 CHAIN: initializing optimizer
 
 OPT: Using VASP Conjugate-Gradient optimizer
 CHAIN: Read ICHAIN            0
 
 POSCAR: Li24 P4 S20 Cl4
  positions in direct lattice
  velocities in cartesian coordinates
 


--------------------------------------------------------------------------------------------------------


 ion  position               nearest neighbor table
   1  0.991  0.320  0.281-
   2  0.966  0.834  0.786-
   3  0.022  0.176  0.785-
   4  0.023  0.744  0.252-
   5  0.215  0.176  0.978-
   6  0.214  0.834  0.034-
   7  0.719  0.320  0.009-
   8  0.748  0.744  0.977-
   9  0.278  0.944  0.406-
  10  0.663  0.045  0.337-
  11  0.594  0.944  0.722-
  12  0.858  0.043  0.142-
  13  0.182  0.650  0.471-
  14  0.205  0.274  0.527-
  15  0.706  0.794  0.520-
  16  0.798  0.292  0.483-
  17  0.237  0.465  0.763-
  18  0.327  0.536  0.175-
  19  0.748  0.479  0.252-
  20  0.825  0.536  0.673-
  21  0.473  0.274  0.795-
  22  0.480  0.794  0.294-
  23  0.517  0.292  0.202-
  24  0.529  0.650  0.818-
  25  0.495  0.495  0.505-  43 2.05  42 2.05  44 2.05  41 2.06
  26  0.511  0.997  0.009-  40 2.04  39 2.04  37 2.06  38 2.07
  27  0.014  0.502  0.986-  35 2.04  34 2.05  36 2.05  33 2.07
  28  0.991  0.997  0.489-  29 2.04  32 2.04  30 2.06  31 2.07
  29  0.120  0.872  0.597-  28 2.04
  30  0.109  0.120  0.363-  28 2.06
  31  0.866  0.888  0.357-  28 2.07
  32  0.860  0.099  0.618-  28 2.04
  33  0.885  0.610  0.115-  27 2.07
  34  0.898  0.382  0.858-  27 2.05
  35  0.123  0.644  0.877-  27 2.04
  36  0.142  0.382  0.103-  27 2.05
  37  0.637  0.120  0.891-  26 2.06
  38  0.643  0.888  0.134-  26 2.07
  39  0.382  0.099  0.140-  26 2.04
  40  0.403  0.872  0.880-  26 2.04
  41  0.617  0.617  0.383-  25 2.06
  42  0.622  0.380  0.628-  25 2.05
  43  0.373  0.616  0.627-  25 2.05
  44  0.372  0.380  0.378-  25 2.05
  45  0.742  0.747  0.747-
  46  0.757  0.248  0.243-
  47  0.253  0.747  0.258-
  48  0.249  0.234  0.751-
  49  0.025  0.997  0.975-
  50  0.988  0.472  0.481-
  51  0.509  0.959  0.491-
  52  0.519  0.472  0.012-
 
  LATTYP: Found a simple cubic cell.
 ALAT       =     9.7376166537
  
  Lattice vectors:
  
 A1 = (   9.7376166537,   0.0000000000,   0.0000000000)
 A2 = (   0.0000000000,   9.7376166537,   0.0000000000)
 A3 = (   0.0000000000,   0.0000000000,   9.7376166537)


Analysis of symmetry for initial positions (statically):
=====================================================================
 Subroutine PRICEL returns:
 Original cell was already a primitive cell.
 

 Routine SETGRP: Setting up the symmetry group for a 
 simple cubic supercell.


 Subroutine GETGRP returns: Found  2 space group operations
 (whereof  1 operations were pure point group operations)
 out of a pool of 48 trial point group operations.


The static configuration has the point symmetry C_1 .
 The point group associated with its full space group is C_1h.


Analysis of symmetry for dynamics (positions and initial velocities):
=====================================================================
 Subroutine PRICEL returns:
 Original cell was already a primitive cell.
 

 Routine SETGRP: Setting up the symmetry group for a 
 simple cubic supercell.


 Subroutine GETGRP returns: Found  2 space group operations
 (whereof  1 operations were pure point group operations)
 out of a pool of 48 trial point group operations.


The dynamic configuration has the point symmetry C_1 .
 The point group associated with its full space group is C_1h.


Analysis of structural, dynamic, and magnetic symmetry:
=====================================================================
 Subroutine PRICEL returns:
 Original cell was already a primitive cell.
 

 Routine SETGRP: Setting up the symmetry group for a 
 simple cubic supercell.


 Subroutine GETGRP returns: Found  2 space group operations
 (whereof  1 operations were pure point group operations)
 out of a pool of 48 trial point group operations.


The overall configuration has the point symmetry C_1 .
 The point group associated with its full space group is C_1h.


 Subroutine INISYM returns: Found  2 space group operations
 (whereof  1 operations are pure point group operations),
 and found     1 'primitive' translations


----------------------------------------------------------------------------------------

                                     Primitive cell                                     

  volume of cell :     923.3323

  direct lattice vectors                    reciprocal lattice vectors
     9.737616654  0.000000000  0.000000000     0.102694534  0.000000000  0.000000000
     0.000000000  9.737616654  0.000000000     0.000000000  0.102694534  0.000000000
     0.000000000  0.000000000  9.737616654     0.000000000  0.000000000  0.102694534

  length of vectors
     9.737616654  9.737616654  9.737616654     0.102694534  0.102694534  0.102694534

  position of ions in fractional coordinates (direct lattice)
     0.991346098  0.319891301  0.280914945
     0.965693438  0.834006340  0.786377411
     0.022365187  0.176105386  0.784973907
     0.023270322  0.743536982  0.251657078
     0.215069694  0.176105386  0.977678414
     0.213666190  0.834006340  0.034350163
     0.719128656  0.319891301  0.008697503
     0.748386523  0.743536982  0.976773279
     0.278058039  0.943829631  0.406439172
     0.663328471  0.045153900  0.336715130
     0.593604430  0.943829631  0.721985562
     0.857816117  0.042790765  0.142227484
     0.181727938  0.649525043  0.471016533
     0.205360476  0.274019484  0.526972539
     0.706453186  0.794346419  0.520201662
     0.797711790  0.291710632  0.482883859
     0.236896753  0.464524139  0.763146849
     0.326623810  0.535555573  0.174796655
     0.747782260  0.479221808  0.252261341
     0.825246946  0.535555573  0.673419791
     0.473071062  0.274019484  0.794683125
     0.479841939  0.794346419  0.293590415
     0.517159742  0.291710632  0.202331811
     0.529027068  0.649525043  0.818315663
     0.494814339  0.494793893  0.505229262
     0.510646705  0.997183146  0.008799931
     0.014077436  0.501615524  0.985966165
     0.991243670  0.997183146  0.489396897
     0.120178097  0.871948014  0.596673742
     0.109350022  0.119603097  0.363152284
     0.865560971  0.887537802  0.356975696
     0.860418493  0.098835642  0.617967233
     0.884930773  0.609737944  0.115112828
     0.897536625  0.381644465  0.857928249
     0.123019604  0.643786233  0.877023997
     0.142115352  0.381644465  0.102506976
     0.636891317  0.119603097  0.890693579
     0.643067905  0.887537802  0.134482630
     0.382076368  0.098835642  0.139625108
     0.403369859  0.871948014  0.879865504
     0.616667377  0.617080071  0.383376224
     0.621691955  0.379636649  0.627889740
     0.372937326  0.615796313  0.627106275
     0.372153861  0.379636649  0.378351646
     0.742386960  0.747433300  0.747245921
     0.756887943  0.248156439  0.243155658
     0.252797680  0.747433300  0.257656641
     0.249188783  0.233607050  0.750854818
     0.024885664  0.997467697  0.975157937
     0.987755003  0.472287952  0.481052053
     0.509063917  0.958905648  0.490979684
     0.518991548  0.472287952  0.012288598

  ion indices of the primitive-cell ions
   primitive index   ion index
                 1           1
                 2           2
                 3           3
                 4           4
                 5           5
                 6           6
                 7           7
                 8           8
                 9           9
                10          10
                11          11
                12          12
                13          13
                14          14
                15          15
                16          16
                17          17
                18          18
                19          19
                20          20
                21          21
                22          22
                23          23
                24          24
                25          25
                26          26
                27          27
                28          28
                29          29
                30          30
                31          31
                32          32
                33          33
                34          34
                35          35
                36          36
                37          37
                38          38
                39          39
                40          40
                41          41
                42          42
                43          43
                44          44
                45          45
                46          46
                47          47
                48          48
                49          49
                50          50
                51          51
                52          52

----------------------------------------------------------------------------------------

 
 
 KPOINTS: Automatic mesh                          

Automatic generation of k-mesh.
 Grid dimensions read from file:
 generate k-points for:    2    2    2

 Generating k-lattice:

  Cartesian coordinates                     Fractional coordinates (reciprocal lattice)
     0.051347267  0.000000000  0.000000000     0.500000000  0.000000000  0.000000000
     0.000000000  0.051347267  0.000000000     0.000000000  0.500000000  0.000000000
     0.000000000  0.000000000  0.051347267     0.000000000  0.000000000  0.500000000

  Length of vectors
     0.051347267  0.051347267  0.051347267

  Shift w.r.t. Gamma in fractional coordinates (k-lattice)
     0.500000000  0.500000000  0.500000000

 
 Subroutine IBZKPT returns following result:
 ===========================================
 
 Found      3 irreducible k-points:
 
 Following reciprocal coordinates:
            Coordinates               Weight
  0.250000  0.250000  0.250000      4.000000
 -0.250000  0.250000  0.250000      2.000000
 -0.250000 -0.250000  0.250000      2.000000
 
 Following cartesian coordinates:
            Coordinates               Weight
  0.025674  0.025674  0.025674      4.000000
 -0.025674  0.025674  0.025674      2.000000
 -0.025674 -0.025674  0.025674      2.000000
 


--------------------------------------------------------------------------------------------------------




 Dimension of arrays:
   k-points           NKPTS =      3   k-points in BZ     NKDIM =      3   number of bands    NBANDS=    176
   number of dos      NEDOS =    301   number of ions     NIONS =     52
   non local maximal  LDIM  =      6   non local SUM 2l+1 LMDIM =     18
   total plane-waves  NPLWV = 373248
   max r-space proj   IRMAX =   5641   max aug-charges    IRDMAX=  17259
   dimension x,y,z NGX =    72 NGY =   72 NGZ =   72
   dimension x,y,z NGXF=   144 NGYF=  144 NGZF=  144
   support grid    NGXF=   144 NGYF=  144 NGZF=  144
   ions per type =              24   4  20   4
   NGX,Y,Z   is equivalent  to a cutoff of  12.29, 12.29, 12.29 a.u.
   NGXF,Y,Z  is equivalent  to a cutoff of  24.58, 24.58, 24.58 a.u.

 SYSTEM =  unknown system                          
 POSCAR =  Li24 P4 S20 Cl4                         

 Startparameter for this run:
   NWRITE =      2    write-flag & timer
   PREC   = accu      normal or accurate (medium, high low for compatibility)
   ISTART =      0    job   : 0-new  1-cont  2-samecut
   ICHARG =      2    charge: 1-file 2-atom 10-const
   ISPIN  =      2    spin polarized calculation?
   LNONCOLLINEAR =      F non collinear calculations
   LSORBIT =      F    spin-orbit coupling
   INIWAV =      1    electr: 0-lowe 1-rand  2-diag
   LASPH  =      T    aspherical Exc in radial PAW
 Electronic Relaxation 1
   ENCUT  =  520.0 eV  38.22 Ry    6.18 a.u.  18.11 18.11 18.11*2*pi/ulx,y,z
   ENINI  =  520.0     initial cutoff
   ENAUG  = 1041.7 eV  augmentation charge cutoff
   NELM   =    100;   NELMIN=  2; NELMDL=-10     # of ELM steps 
   EDIFF  = 0.1E-05   stopping-criterion for ELM
   LREAL  =      T    real-space projection
   NLSPLINE    = F    spline interpolate recip. space projectors
   LCOMPAT=      F    compatible to vasp.4.4
   GGA_COMPAT  = T    GGA compatible to vasp.4.4-vasp.4.6
   LMAXPAW     = -100 max onsite density
   LMAXMIX     =    4 max onsite mixed and CHGCAR
   VOSKOWN=      0    Vosko Wilk Nusair interpolation
   ROPT   =   -0.00025  -0.00025  -0.00025  -0.00025
 Ionic relaxation
   EDIFFG = -.1E-02   stopping-criterion for IOM
   NSW    =   1000    number of steps for IOM
   NBLOCK =      1;   KBLOCK =   1000    inner block; outer block 
   IBRION =      2    ionic relax: 0-MD 1-quasi-New 2-CG
   NFREE  =      1    steps in history (QN), initial steepest desc. (CG)
   ISIF   =      2    stress and relaxation
   IWAVPR =     11    prediction:  0-non 1-charg 2-wave 3-comb
   ISYM   =      2    0-nonsym 1-usesym 2-fastsym
   LCORR  =      T    Harris-Foulkes like correction to forces

   POTIM  = 0.2000    time-step for ionic-motion
   TEIN   =    0.0    initial temperature
   TEBEG  =    0.0;   TEEND  =   0.0 temperature during run
   SMASS  =  -3.00    Nose mass-parameter (am)
   estimated Nose-frequenzy (Omega)   =  0.10E-29 period in steps = 0.31E+47 mass=  -0.217E-26a.u.
   SCALEE = 1.0000    scale energy and forces
   NPACO  =    256;   APACO  = 10.0  distance and # of slots for P.C.
   PSTRESS=    0.0 pullay stress

  Mass of Ions in am
   POMASS =   7.01 30.97 32.07 35.45
  Ionic Valenz
   ZVAL   =   3.00  5.00  6.00  7.00
  Atomic Wigner-Seitz radii
   RWIGS  =  -1.00 -1.00 -1.00 -1.00
  virtual crystal weights 
   VCA    =   1.00  1.00  1.00  1.00
   NELECT =     240.0000    total number of electrons
   NUPDOWN=      -1.0000    fix difference up-down

 DOS related values:
   EMIN   =  10.00;   EMAX   =-10.00  energy-range for DOS
   EFERMI =   0.00;   METHOD = LEGACY      
   ISMEAR =     0;   SIGMA  =   0.03  broadening in eV -4-tet -1-fermi 0-gaus

 Electronic relaxation 2 (details)
   IALGO  =     68    algorithm
   LDIAG  =      T    sub-space diagonalisation (order eigenvalues)
   LSUBROT=      F    optimize rotation matrix (better conditioning)
   TURBO    =      0    0=normal 1=particle mesh
   IRESTART =      0    0=no restart 2=restart with 2 vectors
   NREBOOT  =      0    no. of reboots
   NMIN     =      0    reboot dimension
   EREF     =   0.00    reference energy to select bands
   IMIX   =      4    mixing-type and parameters
     AMIX     =   0.40;   BMIX     =  1.00
     AMIX_MAG =   1.60;   BMIX_MAG =  1.00
     AMIN     =   0.10
     WC   =   100.;   INIMIX=   1;  MIXPRE=   1;  MAXMIX= -45

 Intra band minimization:
   WEIMIN = 0.0010     energy-eigenvalue tresh-hold
   EBREAK =  0.14E-08  absolut break condition
   DEPER  =   0.30     relativ break condition  

   TIME   =   0.40     timestep for ELM

  volume/ion in A,a.u.               =      17.76       119.83
  Fermi-wavevector in a.u.,A,eV,Ry     =   1.044783  1.974353 14.851719  1.091571
  Thomas-Fermi vector in A             =   2.179550
 
 Write flags
   LWAVE        =      F    write WAVECAR
   LDOWNSAMPLE  =      F    k-point downsampling of WAVECAR
   LCHARG       =      F    write CHGCAR
   LVTOT        =      F    write LOCPOT, total local potential
   LVHAR        =      F    write LOCPOT, Hartree potential only
   LELF         =      F    write electronic localiz. function (ELF)
   LORBIT       =      0    0 simple, 1 ext, 2 COOP (PROOUT), +10 PAW based schemes


 Dipole corrections
   LMONO  =      F    monopole corrections only (constant potential shift)
   LDIPOL =      F    correct potential (dipole corrections)
   IDIPOL =      0    1-x, 2-y, 3-z, 4-all directions 
   EPSILON=  1.0000000 bulk dielectric constant

 Exchange correlation treatment:
   GGA     =    PE    GGA type
   LEXCH   =     8    internal setting for exchange type
   LIBXC   =     F    Libxc                    
   VOSKOWN =     0    Vosko Wilk Nusair interpolation
   LHFCALC =     F    Hartree Fock is set to
   LHFONE  =     F    Hartree Fock one center treatment
   AEXX    =    0.0000 exact exchange contribution

 Linear response parameters
   LEPSILON=     F    determine dielectric tensor
   LRPA    =     F    only Hartree local field effects (RPA)
   LNABLA  =     F    use nabla operator in PAW spheres
   LVEL    =     F    velocity operator in full k-point grid
   CSHIFT  =0.1000    complex shift for real part using Kramers Kronig
   OMEGAMAX=  -1.0    maximum frequency
   DEG_THRESHOLD= 0.2000000E-02 threshold for treating states as degnerate
   RTIME   =   -0.100 relaxation time in fs
  (WPLASMAI=    0.000 imaginary part of plasma frequency in eV, 0.658/RTIME)
   DFIELD  = 0.0000000 0.0000000 0.0000000 field for delta impulse in time
 
  Optional k-point grid parameters
   LKPOINTS_OPT  =     F    use optional k-point grid
   KPOINTS_OPT_MODE=     1    mode for optional k-point grid
 
 Orbital magnetization related:
   ORBITALMAG=     F  switch on orbital magnetization
   LCHIMAG   =     F  perturbation theory with respect to B field
   DQ        =  0.001000  dq finite difference perturbation B field
   LLRAUG    =     F  two centre corrections for induced B field
   LBONE     =     F  B-component reconstruction in AE one-centre
   LVGVCALC  =     T  calculate vGv susceptibility
   LVGVAPPL  =     F  apply vGv susceptibility instead of pGv for G=0

 Random number generation:
   RANDOM_GENERATOR = DEFAULT
   PCG_SEED         = not used


--------------------------------------------------------------------------------------------------------


 conjugate gradient relaxation of ions
 charge density and potential will be updated during run
 spin polarized calculation
 RMM-DIIS sequential band-by-band and
  variant of blocked Davidson during initial phase
 perform sub-space diagonalisation
    before iterative eigenvector-optimisation
 modified Broyden-mixing scheme, WC =      100.0
 initial mixing is a Kerker type mixing with AMIX =  0.4000 and BMIX =      1.0000
 Hartree-type preconditioning will be used
 using additional bands           56
 real space projection scheme for non local part
 use partial core corrections
 calculate Harris-corrections to forces 
   (improved forces if not selfconsistent)
 use gradient corrections 
 use of overlap-Matrix (Vanderbilt PP)
 Gauss-broadening in eV      SIGMA  =   0.03


--------------------------------------------------------------------------------------------------------


  energy-cutoff  :      520.00
  volume of cell :      923.33
      direct lattice vectors                 reciprocal lattice vectors
     9.737616654  0.000000000  0.000000000     0.102694534  0.000000000  0.000000000
     0.000000000  9.737616654  0.000000000     0.000000000  0.102694534  0.000000000
     0.000000000  0.000000000  9.737616654     0.000000000  0.000000000  0.102694534

  length of vectors
     9.737616654  9.737616654  9.737616654     0.102694534  0.102694534  0.102694534


 
 k-points in units of 2pi/SCALE and weight: Automatic mesh                          
   0.02567363  0.02567363  0.02567363       0.500
  -0.02567363  0.02567363  0.02567363       0.250
  -0.02567363 -0.02567363  0.02567363       0.250
 
 k-points in reciprocal lattice and weights: Automatic mesh                          
   0.25000000  0.25000000  0.25000000       0.500
  -0.25000000  0.25000000  0.25000000       0.250
  -0.25000000 -0.25000000  0.25000000       0.250
 
 position of ions in fractional coordinates (direct lattice) 
   0.99134610  0.31989130  0.28091495
   0.96569344  0.83400634  0.78637741
   0.02236519  0.17610539  0.78497391
   0.02327032  0.74353698  0.25165708
   0.21506969  0.17610539  0.97767841
   0.21366619  0.83400634  0.03435016
   0.71912866  0.31989130  0.00869750
   0.74838652  0.74353698  0.97677328
   0.27805804  0.94382963  0.40643917
   0.66332847  0.04515390  0.33671513
   0.59360443  0.94382963  0.72198556
   0.85781612  0.04279077  0.14222748
   0.18172794  0.64952504  0.47101653
   0.20536048  0.27401948  0.52697254
   0.70645319  0.79434642  0.52020166
   0.79771179  0.29171063  0.48288386
   0.23689675  0.46452414  0.76314685
   0.32662381  0.53555557  0.17479666
   0.74778226  0.47922181  0.25226134
   0.82524695  0.53555557  0.67341979
   0.47307106  0.27401948  0.79468313
   0.47984194  0.79434642  0.29359041
   0.51715974  0.29171063  0.20233181
   0.52902707  0.64952504  0.81831566
   0.49481434  0.49479389  0.50522926
   0.51064670  0.99718315  0.00879993
   0.01407744  0.50161552  0.98596616
   0.99124367  0.99718315  0.48939690
   0.12017810  0.87194801  0.59667374
   0.10935002  0.11960310  0.36315228
   0.86556097  0.88753780  0.35697570
   0.86041849  0.09883564  0.61796723
   0.88493077  0.60973794  0.11511283
   0.89753662  0.38164446  0.85792825
   0.12301960  0.64378623  0.87702400
   0.14211535  0.38164446  0.10250698
   0.63689132  0.11960310  0.89069358
   0.64306790  0.88753780  0.13448263
   0.38207637  0.09883564  0.13962511
   0.40336986  0.87194801  0.87986550
   0.61666738  0.61708007  0.38337622
   0.62169196  0.37963665  0.62788974
   0.37293733  0.61579631  0.62710627
   0.37215386  0.37963665  0.37835165
   0.74238696  0.74743330  0.74724592
   0.75688794  0.24815644  0.24315566
   0.25279768  0.74743330  0.25765664
   0.24918878  0.23360705  0.75085482
   0.02488566  0.99746770  0.97515794
   0.98775500  0.47228795  0.48105205
   0.50906392  0.95890565  0.49097968
   0.51899155  0.47228795  0.01228860
 
 position of ions in cartesian coordinates  (Angst):
   9.65334827  3.11497886  2.73544205
   9.40355250  8.12123403  7.65744177
   0.21778362  1.71484674  7.64377499
   0.22659747  7.24027810  2.45054015
   2.09426624  1.71484674  9.52025760
   2.08059945  8.12123403  0.33448872
   7.00259917  3.11497886  0.08469295
   7.28750107  7.24027810  9.51144375
   2.70762259  9.19065113  3.95774885
   6.45923836  0.43969137  3.27880286
   5.78029238  9.19065113  7.03041864
   8.35308451  0.41668007  1.38495672
   1.76959699  6.32482588  4.58657843
   1.99972159  2.66829669  5.13145657
   6.87917031  7.73504092  5.06552436
   7.76781162  2.84056631  4.70213790
   2.30680976  4.52335800  7.43123146
   3.18053745  5.21503486  1.70210282
   7.28161699  4.66647826  2.45642423
   8.03593840  5.21503486  6.55750377
   4.60658466  2.66829669  7.73831963
   4.67251686  7.73504092  2.85887091
   5.03590332  2.84056631  1.97022961
   5.15146279  6.32482588  7.96844423
   4.81831235  4.81811325  4.91972888
   4.97248185  9.71018721  0.08569036
   0.13708068  4.88453968  9.60096055
   9.65235087  9.71018721  4.76555937
   1.17024824  8.49069550  5.81018017
   1.06480860  1.16464911  3.53623773
   8.42850092  8.64250288  3.47609248
   8.37842545  0.96242360  6.01752802
   8.61711663  5.93739436  1.12092459
   8.73986759  3.71630750  8.35417640
   1.19791774  6.26894355  8.54012348
   1.38386482  3.71630750  0.99817364
   6.20180349  1.16464911  8.67323262
   6.26194874  8.64250288  1.30954030
   3.72051320  0.96242360  1.35961578
   3.92786106  8.49069550  8.56779298
   6.00487052  6.00888917  3.73317070
   6.05379794  3.69675616  6.11414959
   3.63152072  5.99638843  6.10652051
   3.62389163  3.69675616  3.68424329
   7.22907963  7.27821895  7.27639432
   7.37028464  2.41645228  2.36775658
   2.46164690  7.27821895  2.50896160
   2.42650484  2.27477590  7.31153638
   0.24232706  9.71295806  9.49571417
   9.61837956  4.59895902  4.68430048
   4.95706927  9.33745560  4.78097195
   5.05374074  4.59895902  0.11966166
 


--------------------------------------------------------------------------------------------------------


 k-point   1 :   0.2500 0.2500 0.2500  plane waves:   24915
 k-point   2 :  -0.2500 0.2500 0.2500  plane waves:   24915
 k-point   3 :  -0.2500-0.2500 0.2500  plane waves:   24915

 maximum and minimum number of plane-waves per node :       791      760

 maximum number of plane-waves:     24915
 maximum index in each direction: 
   IXMAX=   18   IYMAX=   18   IZMAX=   17
   IXMIN=  -18   IYMIN=  -18   IZMIN=  -18


 real space projection operators:
  total allocation   :      27684.23 KBytes
  max/ min on nodes  :       1173.28        693.28


 parallel 3D FFT for wavefunctions:
    minimum data exchange during FFTs selected (reduces bandwidth)
 parallel 3D FFT for charge:
    minimum data exchange during FFTs selected (reduces bandwidth)


 total amount of memory used by VASP MPI-rank0    46869. kBytes
=======================================================================

   base      :      30000. kBytes
   nonlr-proj:       6353. kBytes
   fftplans  :       1747. kBytes
   grid      :       5278. kBytes
   one-center:         62. kBytes
   wavefun   :       3429. kBytes
 
     INWAV:  cpu time      0.0000: real time      0.0000
 Broyden mixing: mesh for mixing (old mesh)
   NGX = 37   NGY = 37   NGZ = 37
  (NGX  =144   NGY  =144   NGZ  =144)
  gives a total of  50653 points

 initial charge density was supplied:
 charge density of overlapping atoms calculated
 number of electron     240.0000000 magnetization      52.0000000
 keeping initial charge density in first step


--------------------------------------------------------------------------------------------------------


 Maximum index for non-local projection operator          580
 Maximum index for augmentation-charges          917 (set IRDMAX)


--------------------------------------------------------------------------------------------------------


 First call to EWALD:  gamma=   0.182
 Maximum number of real-space cells 3x 3x 3
 Maximum number of reciprocal cells 3x 3x 3

    FEWALD:  cpu time      0.0030: real time      0.0033


--------------------------------------- Ionic step        1  -------------------------------------------




--------------------------------------- Iteration      1(   1)  ---------------------------------------


    POTLOK:  cpu time      0.0568: real time      0.0828
    SETDIJ:  cpu time      0.4025: real time      0.4102
     EDDAV:  cpu time      1.6565: real time      1.7428
       DOS:  cpu time      0.0024: real time      0.0039
    --------------------------------------------
      LOOP:  cpu time      2.1183: real time      2.2397

 eigenvalue-minimisations  :  2320
 total energy-change (2. order) : 0.1595371E+04  (-0.1134636E+05)
 number of electron     240.0000000 magnetization      52.0000000
 augmentation part      240.0000000 magnetization      52.0000000

 Free energy of the ion-electron system (eV)
  ---------------------------------------------------
  alpha Z        PSCENC =       293.99763086
  Ewald energy   TEWEN  =     -8654.03969253
  -Hartree energ DENC   =     -2211.70934228
  -exchange      EXHF   =         0.00000000
  -V(xc)+E(xc)   XCENC  =       533.30665547
  PAW double counting   =      8141.38806575    -8271.61346273
  entropy T*S    EENTRO =        -0.00451578
  eigenvalues    EBANDS =      -939.09463449
  atomic energy  EATOM  =     12703.13999606
  Solvation  Ediel_sol  =         0.00000000
  ---------------------------------------------------
  free energy    TOTEN  =      1595.37070033 eV

  energy without entropy =     1595.37521611  energy(sigma->0) =     1595.37295822


--------------------------------------------------------------------------------------------------------




--------------------------------------- Iteration      1(   2)  ---------------------------------------


     EDDAV:  cpu time      1.9570: real time      1.9785
       DOS:  cpu time      0.0005: real time      0.0004
    --------------------------------------------
      LOOP:  cpu time      1.9575: real time      1.9789

 eigenvalue-minimisations  :  2880
 total energy-change (2. order) :-0.1646455E+04  (-0.1541376E+04)
 number of electron     240.0000000 magnetization      52.0000000
 augmentation part      240.0000000 magnetization      52.0000000

 Free energy of the ion-electron system (eV)
  ---------------------------------------------------
  alpha Z        PSCENC =       293.99763086
  Ewald energy   TEWEN  =     -8654.03969253
  -Hartree energ DENC   =     -2211.70934228
  -exchange      EXHF   =         0.00000000
  -V(xc)+E(xc)   XCENC  =       533.30665547
  PAW double counting   =      8141.38806575    -8271.61346273
  entropy T*S    EENTRO =        -0.00000000
  eigenvalues    EBANDS =     -2585.55393019
  atomic energy  EATOM  =     12703.13999606
  Solvation  Ediel_sol  =         0.00000000
  ---------------------------------------------------
  free energy    TOTEN  =       -51.08407960 eV

  energy without entropy =      -51.08407960  energy(sigma->0) =      -51.08407960


--------------------------------------------------------------------------------------------------------




--------------------------------------- Iteration      1(   3)  ---------------------------------------


     EDDAV:  cpu time      1.9356: real time      1.9885
       DOS:  cpu time      0.0004: real time      0.0004
    --------------------------------------------
      LOOP:  cpu time      1.9361: real time      1.9889

 eigenvalue-minimisations  :  2856
 total energy-change (2. order) :-0.1772830E+03  (-0.1752840E+03)
 number of electron     240.0000000 magnetization      52.0000000
 augmentation part      240.0000000 magnetization      52.0000000

 Free energy of the ion-electron system (eV)
  ---------------------------------------------------
  alpha Z        PSCENC =       293.99763086
  Ewald energy   TEWEN  =     -8654.03969253
  -Hartree energ DENC   =     -2211.70934228
  -exchange      EXHF   =         0.00000000
  -V(xc)+E(xc)   XCENC  =       533.30665547
  PAW double counting   =      8141.38806575    -8271.61346273
  entropy T*S    EENTRO =        -0.00000000
  eigenvalues    EBANDS =     -2762.83694501
  atomic energy  EATOM  =     12703.13999606
  Solvation  Ediel_sol  =         0.00000000
  ---------------------------------------------------
  free energy    TOTEN  =      -228.36709442 eV

  energy without entropy =     -228.36709442  energy(sigma->0) =     -228.36709442


--------------------------------------------------------------------------------------------------------




--------------------------------------- Iteration      1(   4)  ---------------------------------------


     EDDAV:  cpu time      2.2986: real time      2.3622
       DOS:  cpu time      0.0006: real time      0.0006
    --------------------------------------------
      LOOP:  cpu time      2.2991: real time      2.3628

 eigenvalue-minimisations  :  3504
 total energy-change (2. order) :-0.1309598E+02  (-0.1307154E+02)
 number of electron     240.0000000 magnetization      52.0000000
 augmentation part      240.0000000 magnetization      52.0000000

 Free energy of the ion-electron system (eV)
  ---------------------------------------------------
  alpha Z        PSCENC =       293.99763086
  Ewald energy   TEWEN  =     -8654.03969253
  -Hartree energ DENC   =     -2211.70934228
  -exchange      EXHF   =         0.00000000
  -V(xc)+E(xc)   XCENC  =       533.30665547
  PAW double counting   =      8141.38806575    -8271.61346273
  entropy T*S    EENTRO =        -0.00000000
  eigenvalues    EBANDS =     -2775.93292669
  atomic energy  EATOM  =     12703.13999606
  Solvation  Ediel_sol  =         0.00000000
  ---------------------------------------------------
  free energy    TOTEN  =      -241.46307609 eV

  energy without entropy =     -241.46307609  energy(sigma->0) =     -241.46307609


--------------------------------------------------------------------------------------------------------




--------------------------------------- Iteration      1(   5)  ---------------------------------------


     EDDAV:  cpu time      2.2141: real time      2.2694
       DOS:  cpu time      0.0006: real time      0.0006
    --------------------------------------------
      LOOP:  cpu time      2.2147: real time      2.2699

 eigenvalue-minimisations  :  3368
 total energy-change (2. order) :-0.2758169E+00  (-0.2756967E+00)
 number of electron     240.0000000 magnetization      52.0000000
 augmentation part      240.0000000 magnetization      52.0000000

 Free energy of the ion-electron system (eV)
  ---------------------------------------------------
  alpha Z        PSCENC =       293.99763086
  Ewald energy   TEWEN  =     -8654.03969253
  -Hartree energ DENC   =     -2211.70934228
  -exchange      EXHF   =         0.00000000
  -V(xc)+E(xc)   XCENC  =       533.30665547
  PAW double counting   =      8141.38806575    -8271.61346273
  entropy T*S    EENTRO =        -0.00000000
  eigenvalues    EBANDS =     -2776.20874360
  atomic energy  EATOM  =     12703.13999606
  Solvation  Ediel_sol  =         0.00000000
  ---------------------------------------------------
  free energy    TOTEN  =      -241.73889301 eV

  energy without entropy =     -241.73889301  energy(sigma->0) =     -241.73889301


--------------------------------------------------------------------------------------------------------




--------------------------------------- Iteration      1(   6)  ---------------------------------------


     EDDAV:  cpu time      2.2681: real time      2.2884
       DOS:  cpu time      0.0005: real time      0.0005
    --------------------------------------------
      LOOP:  cpu time      2.2686: real time      2.2889

 eigenvalue-minimisations  :  3456
 total energy-change (2. order) :-0.1103904E-01  (-0.1103789E-01)
 number of electron     240.0000000 magnetization      52.0000000
 augmentation part      240.0000000 magnetization      52.0000000

 Free energy of the ion-electron system (eV)
  ---------------------------------------------------
  alpha Z        PSCENC =       293.99763086
  Ewald energy   TEWEN  =     -8654.03969253
  -Hartree energ DENC   =     -2211.70934228
  -exchange      EXHF   =         0.00000000
  -V(xc)+E(xc)   XCENC  =       533.30665547
  PAW double counting   =      8141.38806575    -8271.61346273
  entropy T*S    EENTRO =        -0.00000000
  eigenvalues    EBANDS =     -2776.21978265
  atomic energy  EATOM  =     12703.13999606
  Solvation  Ediel_sol  =         0.00000000
  ---------------------------------------------------
  free energy    TOTEN  =      -241.74993205 eV

  energy without entropy =     -241.74993205  energy(sigma->0) =     -241.74993205


--------------------------------------------------------------------------------------------------------




--------------------------------------- Iteration      1(   7)  ---------------------------------------


     EDDAV:  cpu time      2.2584: real time      2.2779
       DOS:  cpu time      0.0005: real time      0.0005
    --------------------------------------------
      LOOP:  cpu time      2.2589: real time      2.2784

 eigenvalue-minimisations  :  3448
 total energy-change (2. order) :-0.3987980E-03  (-0.3987736E-03)
 number of electron     240.0000000 magnetization      52.0000000
 augmentation part      240.0000000 magnetization      52.0000000

 Free energy of the ion-electron system (eV)
  ---------------------------------------------------
  alpha Z        PSCENC =       293.99763086
  Ewald energy   TEWEN  =     -8654.03969253
  -Hartree energ DENC   =     -2211.70934228
  -exchange      EXHF   =         0.00000000
  -V(xc)+E(xc)   XCENC  =       533.30665547
  PAW double counting   =      8141.38806575    -8271.61346273
  entropy T*S    EENTRO =        -0.00000000
  eigenvalues    EBANDS =     -2776.22018145
  atomic energy  EATOM  =     12703.13999606
  Solvation  Ediel_sol  =         0.00000000
  ---------------------------------------------------
  free energy    TOTEN  =      -241.75033085 eV

  energy without entropy =     -241.75033085  energy(sigma->0) =     -241.75033085


--------------------------------------------------------------------------------------------------------




--------------------------------------- Iteration      1(   8)  ---------------------------------------


     EDDAV:  cpu time      2.2234: real time      2.2441
       DOS:  cpu time      0.0004: real time      0.0004
    --------------------------------------------
      LOOP:  cpu time      2.2237: real time      2.2444

 eigenvalue-minimisations  :  3384
 total energy-change (2. order) :-0.2311516E-04  (-0.2311452E-04)
 number of electron     240.0000000 magnetization      52.0000000
 augmentation part      240.0000000 magnetization      52.0000000

 Free energy of the ion-electron system (eV)
  ---------------------------------------------------
  alpha Z        PSCENC =       293.99763086
  Ewald energy   TEWEN  =     -8654.03969253
  -Hartree energ DENC   =     -2211.70934228
  -exchange      EXHF   =         0.00000000
  -V(xc)+E(xc)   XCENC  =       533.30665547
  PAW double counting   =      8141.38806575    -8271.61346273
  entropy T*S    EENTRO =        -0.00000000
  eigenvalues    EBANDS =     -2776.22020456
  atomic energy  EATOM  =     12703.13999606
  Solvation  Ediel_sol  =         0.00000000
  ---------------------------------------------------
  free energy    TOTEN  =      -241.75035397 eV

  energy without entropy =     -241.75035397  energy(sigma->0) =     -241.75035397


--------------------------------------------------------------------------------------------------------




--------------------------------------- Iteration      1(   9)  ---------------------------------------


     EDDAV:  cpu time      2.2283: real time      2.2474
       DOS:  cpu time      0.0004: real time      0.0004
    --------------------------------------------
      LOOP:  cpu time      2.2288: real time      2.2479

 eigenvalue-minimisations  :  3384
 total energy-change (2. order) :-0.1490180E-05  (-0.1490358E-05)
 number of electron     240.0000000 magnetization      52.0000000
 augmentation part      240.0000000 magnetization      52.0000000

 Free energy of the ion-electron system (eV)
  ---------------------------------------------------
  alpha Z        PSCENC =       293.99763086
  Ewald energy   TEWEN  =     -8654.03969253
  -Hartree energ DENC   =     -2211.70934228
  -exchange      EXHF   =         0.00000000
  -V(xc)+E(xc)   XCENC  =       533.30665547
  PAW double counting   =      8141.38806575    -8271.61346273
  entropy T*S    EENTRO =        -0.00000000
  eigenvalues    EBANDS =     -2776.22020605
  atomic energy  EATOM  =     12703.13999606
  Solvation  Ediel_sol  =         0.00000000
  ---------------------------------------------------
  free energy    TOTEN  =      -241.75035546 eV

  energy without entropy =     -241.75035546  energy(sigma->0) =     -241.75035546


--------------------------------------------------------------------------------------------------------




--------------------------------------- Iteration      1(  10)  ---------------------------------------


     EDDAV:  cpu time      1.4623: real time      1.4838
       DOS:  cpu time      0.0006: real time      0.0006
    CHARGE:  cpu time      0.1440: real time      0.1741
    MIXING:  cpu time      0.0022: real time      0.0029
    --------------------------------------------
      LOOP:  cpu time      1.6091: real time      1.6614

 eigenvalue-minimisations  :  1960
 total energy-change (2. order) :-0.6263872E-07  (-0.6223550E-07)
 number of electron     240.0000014 magnetization      27.5427086
 augmentation part        1.4726430 magnetization      27.9834725

 Broyden mixing:
  rms(total) = 0.64556E+01    rms(broyden)= 0.64553E+01
  rms(prec ) = 0.66981E+01
  weight for this iteration     100.00

 Free energy of the ion-electron system (eV)
  ---------------------------------------------------
  alpha Z        PSCENC =       293.99763086
  Ewald energy   TEWEN  =     -8654.03969253
  -Hartree energ DENC   =     -2211.70934228
  -exchange      EXHF   =         0.00000000
  -V(xc)+E(xc)   XCENC  =       533.30665547
  PAW double counting   =      8141.38806575    -8271.61346273
  entropy T*S    EENTRO =        -0.00000000
  eigenvalues    EBANDS =     -2776.22020611
  atomic energy  EATOM  =     12703.13999606
  Solvation  Ediel_sol  =         0.00000000
  ---------------------------------------------------
  free energy    TOTEN  =      -241.75035552 eV

  energy without entropy =     -241.75035552  energy(sigma->0) =     -241.75035552


--------------------------------------------------------------------------------------------------------




--------------------------------------- Iteration      1(  11)  ---------------------------------------


    POTLOK:  cpu time      0.0605: real time      0.0614
    SETDIJ:  cpu time      0.4037: real time      0.4094
    EDDIAG:  cpu time      0.2762: real time      0.2783
  RMM-DIIS:  cpu time      0.8822: real time      0.8903
    ORTHCH:  cpu time      0.0518: real time      0.0521
       DOS:  cpu time      0.0005: real time      0.0005
    CHARGE:  cpu time      0.1326: real time      0.1549
    MIXING:  cpu time      0.0011: real time      0.0093
    --------------------------------------------
      LOOP:  cpu time      1.8086: real time      1.8561

 eigenvalue-minimisations  :  2112
 total energy-change (2. order) : 0.8118419E+01  (-0.5038141E+01)
 number of electron     240.0000014 magnetization      16.5854221
 augmentation part        1.6881324 magnetization      16.7748409

 Broyden mixing:
  rms(total) = 0.33084E+01    rms(broyden)= 0.33083E+01
  rms(prec ) = 0.34304E+01
  weight for this iteration     100.00

 eigenvalues of (default mixing * dielectric matrix)
  average eigenvalue GAMMA=   0.7258
  0.7258

 Free energy of the ion-electron system (eV)
  ---------------------------------------------------
  alpha Z        PSCENC =       293.99763086
  Ewald energy   TEWEN  =     -8654.03969253
  -Hartree energ DENC   =     -2265.27705828
  -exchange      EXHF   =         0.00000000
  -V(xc)+E(xc)   XCENC  =       542.42396839
  PAW double counting   =      8936.21990396    -9072.55621400
  entropy T*S    EENTRO =        -0.00000000
  eigenvalues    EBANDS =     -2717.54047101
  atomic energy  EATOM  =     12703.13999606
  Solvation  Ediel_sol  =         0.00000000
  ---------------------------------------------------
  free energy    TOTEN  =      -233.63193656 eV

  energy without entropy =     -233.63193656  energy(sigma->0) =     -233.63193656


--------------------------------------------------------------------------------------------------------




--------------------------------------- Iteration      1(  12)  ---------------------------------------


    POTLOK:  cpu time      0.0539: real time      0.0547
    SETDIJ:  cpu time      0.4059: real time      0.4075
    EDDIAG:  cpu time      0.2692: real time      0.2710
  RMM-DIIS:  cpu time      0.9245: real time      0.9329
    ORTHCH:  cpu time      0.0519: real time      0.0521
       DOS:  cpu time      0.0005: real time      0.0005
    CHARGE:  cpu time      0.1323: real time      0.1633
    MIXING:  cpu time      0.0012: real time      0.0012
    --------------------------------------------
      LOOP:  cpu time      1.8392: real time      1.8832

 eigenvalue-minimisations  :  2214
 total energy-change (2. order) :-0.2178271E+02  (-0.2513127E+01)
 number of electron     240.0000014 magnetization       1.1611881
 augmentation part        1.8036859 magnetization       1.5090503

 Broyden mixing:
  rms(total) = 0.20740E+01    rms(broyden)= 0.20740E+01
  rms(prec ) = 0.21345E+01
  weight for this iteration     100.00

 eigenvalues of (default mixing * dielectric matrix)
  average eigenvalue GAMMA=   1.1044
  1.5418  0.6670

 Free energy of the ion-electron system (eV)
  ---------------------------------------------------
  alpha Z        PSCENC =       293.99763086
  Ewald energy   TEWEN  =     -8654.03969253
  -Hartree energ DENC   =     -2293.21363623
  -exchange      EXHF   =         0.00000000
  -V(xc)+E(xc)   XCENC  =       535.86725066
  PAW double counting   =      9295.85638759    -9435.87566563
  entropy T*S    EENTRO =        -0.00000000
  eigenvalues    EBANDS =     -2701.14691375
  atomic energy  EATOM  =     12703.13999606
  Solvation  Ediel_sol  =         0.00000000
  ---------------------------------------------------
  free energy    TOTEN  =      -255.41464297 eV

  energy without entropy =     -255.41464297  energy(sigma->0) =     -255.41464297


--------------------------------------------------------------------------------------------------------




--------------------------------------- Iteration      1(  13)  ---------------------------------------


    POTLOK:  cpu time      0.0532: real time      0.0540
    SETDIJ:  cpu time      0.4054: real time      0.4070
    EDDIAG:  cpu time      0.2680: real time      0.2694
  RMM-DIIS:  cpu time      0.9047: real time      0.9135
    ORTHCH:  cpu time      0.0516: real time      0.0520
       DOS:  cpu time      0.0005: real time      0.0005
    CHARGE:  cpu time      0.1222: real time      0.1606
    MIXING:  cpu time      0.0013: real time      0.0014
    --------------------------------------------
      LOOP:  cpu time      1.8068: real time      1.8583

 eigenvalue-minimisations  :  2168
 total energy-change (2. order) :-0.2444760E+01  (-0.9003568E+00)
 number of electron     240.0000014 magnetization      -1.8877964
 augmentation part        1.9080352 magnetization      -1.7712807

 Broyden mixing:
  rms(total) = 0.73554E+00    rms(broyden)= 0.73554E+00
  rms(prec ) = 0.76741E+00
  weight for this iteration     100.00

 eigenvalues of (default mixing * dielectric matrix)
  average eigenvalue GAMMA=   1.3098
  2.5346  0.7429  0.6518

 Free energy of the ion-electron system (eV)
  ---------------------------------------------------
  alpha Z        PSCENC =       293.99763086
  Ewald energy   TEWEN  =     -8654.03969253
  -Hartree energ DENC   =     -2322.88965603
  -exchange      EXHF   =         0.00000000
  -V(xc)+E(xc)   XCENC  =       537.22762134
  PAW double counting   =      9779.67478016    -9923.52401437
  entropy T*S    EENTRO =        -0.00000000
  eigenvalues    EBANDS =     -2671.44606887
  atomic energy  EATOM  =     12703.13999606
  Solvation  Ediel_sol  =         0.00000000
  ---------------------------------------------------
  free energy    TOTEN  =      -257.85940339 eV

  energy without entropy =     -257.85940339  energy(sigma->0) =     -257.85940339


--------------------------------------------------------------------------------------------------------




--------------------------------------- Iteration      1(  14)  ---------------------------------------


    POTLOK:  cpu time      0.0529: real time      0.0553
    SETDIJ:  cpu time      0.4061: real time      0.4077
    EDDIAG:  cpu time      0.2689: real time      0.2704
  RMM-DIIS:  cpu time      1.1565: real time      1.1670
    ORTHCH:  cpu time      0.0520: real time      0.0526
       DOS:  cpu time      0.0005: real time      0.0005
    CHARGE:  cpu time      0.1145: real time      0.1461
    MIXING:  cpu time      0.0012: real time      0.0012
    --------------------------------------------
      LOOP:  cpu time      2.0524: real time      2.1009

 eigenvalue-minimisations  :  2772
 total energy-change (2. order) :-0.2141017E+00  (-0.2171540E+00)
 number of electron     240.0000014 magnetization      -0.8630816
 augmentation part        1.8842569 magnetization      -0.8359218

 Broyden mixing:
  rms(total) = 0.32916E+00    rms(broyden)= 0.32916E+00
  rms(prec ) = 0.36621E+00
  weight for this iteration     100.00

 eigenvalues of (default mixing * dielectric matrix)
  average eigenvalue GAMMA=   1.2779
  2.6411  1.1808  0.6917  0.5978

 Free energy of the ion-electron system (eV)
  ---------------------------------------------------
  alpha Z        PSCENC =       293.99763086
  Ewald energy   TEWEN  =     -8654.03969253
  -Hartree energ DENC   =     -2325.95748881
  -exchange      EXHF   =         0.00000000
  -V(xc)+E(xc)   XCENC  =       537.81319126
  PAW double counting   =      9871.67937872   -10016.46306264
  entropy T*S    EENTRO =        -0.00000000
  eigenvalues    EBANDS =     -2668.24345797
  atomic energy  EATOM  =     12703.13999606
  Solvation  Ediel_sol  =         0.00000000
  ---------------------------------------------------
  free energy    TOTEN  =      -258.07350505 eV

  energy without entropy =     -258.07350505  energy(sigma->0) =     -258.07350505


--------------------------------------------------------------------------------------------------------




--------------------------------------- Iteration      1(  15)  ---------------------------------------


    POTLOK:  cpu time      0.0519: real time      0.0542
    SETDIJ:  cpu time      0.4052: real time      0.4067
    EDDIAG:  cpu time      0.2687: real time      0.2706
  RMM-DIIS:  cpu time      0.9589: real time      0.9675
    ORTHCH:  cpu time      0.0521: real time      0.0530
       DOS:  cpu time      0.0004: real time      0.0004
    CHARGE:  cpu time      0.1095: real time      0.1385
    MIXING:  cpu time      0.0012: real time      0.0012
    --------------------------------------------
      LOOP:  cpu time      1.8479: real time      1.8922

 eigenvalue-minimisations  :  2288
 total energy-change (2. order) : 0.3458187E-01  (-0.3854208E-01)
 number of electron     240.0000014 magnetization      -0.2392881
 augmentation part        1.8319889 magnetization      -0.2128245

 Broyden mixing:
  rms(total) = 0.67661E-01    rms(broyden)= 0.67659E-01
  rms(prec ) = 0.80522E-01
  weight for this iteration     100.00

 eigenvalues of (default mixing * dielectric matrix)
  average eigenvalue GAMMA=   1.2728
  2.5385  1.5811  0.9517  0.6867  0.6057

 Free energy of the ion-electron system (eV)
  ---------------------------------------------------
  alpha Z        PSCENC =       293.99763086
  Ewald energy   TEWEN  =     -8654.03969253
  -Hartree energ DENC   =     -2320.74373374
  -exchange      EXHF   =         0.00000000
  -V(xc)+E(xc)   XCENC  =       537.40154042
  PAW double counting   =      9836.47405694    -9981.04032916
  entropy T*S    EENTRO =        -0.00000000
  eigenvalues    EBANDS =     -2673.22839204
  atomic energy  EATOM  =     12703.13999606
  Solvation  Ediel_sol  =         0.00000000
  ---------------------------------------------------
  free energy    TOTEN  =      -258.03892319 eV

  energy without entropy =     -258.03892319  energy(sigma->0) =     -258.03892319


--------------------------------------------------------------------------------------------------------




--------------------------------------- Iteration      1(  16)  ---------------------------------------


    POTLOK:  cpu time      0.0513: real time      0.0536
    SETDIJ:  cpu time      0.4059: real time      0.4073
    EDDIAG:  cpu time      0.2672: real time      0.2689
  RMM-DIIS:  cpu time      0.9695: real time      0.9784
    ORTHCH:  cpu time      0.0519: real time      0.0526
       DOS:  cpu time      0.0004: real time      0.0004
    CHARGE:  cpu time      0.1101: real time      0.1372
    MIXING:  cpu time      0.0012: real time      0.0013
    --------------------------------------------
      LOOP:  cpu time      1.8575: real time      1.8997

 eigenvalue-minimisations  :  2315
 total energy-change (2. order) :-0.2161307E-01  (-0.1167312E-01)
 number of electron     240.0000014 magnetization      -0.1127880
 augmentation part        1.8087762 magnetization      -0.0983308

 Broyden mixing:
  rms(total) = 0.32358E-01    rms(broyden)= 0.32357E-01
  rms(prec ) = 0.39579E-01
  weight for this iteration     100.00

 eigenvalues of (default mixing * dielectric matrix)
  average eigenvalue GAMMA=   1.2473
  2.4456  1.9231  1.0488  0.6222  0.7006  0.7432

 Free energy of the ion-electron system (eV)
  ---------------------------------------------------
  alpha Z        PSCENC =       293.99763086
  Ewald energy   TEWEN  =     -8654.03969253
  -Hartree energ DENC   =     -2320.19053226
  -exchange      EXHF   =         0.00000000
  -V(xc)+E(xc)   XCENC  =       537.31700261
  PAW double counting   =      9824.11590816    -9968.43882796
  entropy T*S    EENTRO =        -0.00000000
  eigenvalues    EBANDS =     -2673.96202120
  atomic energy  EATOM  =     12703.13999606
  Solvation  Ediel_sol  =         0.00000000
[...]
 -0.295   0.303   0.001   0.493  -0.070   0.030   0.004  -0.000   0.000   0.004   0.005   0.005  -0.005   0.002
 -0.239   0.245   0.001  -0.070   0.559  -0.088  -0.000   0.005  -0.001  -0.005   0.004  -0.001   0.006  -0.005
  0.048  -0.050  -0.000   0.030  -0.088   0.681   0.000  -0.001   0.005  -0.004  -0.005   0.005  -0.005  -0.006
 -0.003   0.002   0.000   0.004  -0.000   0.000   0.000  -0.000   0.000   0.000   0.000   0.000  -0.000   0.000
 -0.002   0.001   0.000  -0.000   0.005  -0.001  -0.000   0.000  -0.000  -0.000   0.000  -0.000   0.000  -0.000
  0.001  -0.001  -0.000   0.000  -0.001   0.005   0.000  -0.000   0.000  -0.000  -0.000   0.000  -0.000  -0.000
  0.003  -0.004  -0.000   0.004  -0.005  -0.004   0.000  -0.000  -0.000   0.000   0.000   0.000  -0.000   0.000
 -0.007   0.007   0.000   0.005   0.004  -0.005   0.000   0.000  -0.000   0.000   0.000   0.000   0.000  -0.000
 -0.001   0.002   0.000   0.005  -0.001   0.005   0.000  -0.000   0.000   0.000   0.000   0.000  -0.000  -0.000
 -0.013   0.013   0.000  -0.005   0.006  -0.005  -0.000   0.000  -0.000  -0.000   0.000  -0.000   0.000  -0.000
  0.012  -0.012  -0.000   0.002  -0.005  -0.006   0.000  -0.000  -0.000   0.000  -0.000  -0.000  -0.000   0.000
 total augmentation occupancy for first ion, spin component:           2
 -0.000  -0.000   0.000   0.000   0.000  -0.000  -0.000  -0.000   0.000  -0.000   0.000  -0.000   0.000  -0.000
 -0.000   0.000  -0.000  -0.000  -0.000   0.000   0.000   0.000  -0.000   0.000  -0.000   0.000  -0.000   0.000
  0.000  -0.000  -0.000  -0.000   0.000  -0.000   0.000   0.000  -0.000  -0.000   0.000  -0.000  -0.000   0.000
  0.000  -0.000  -0.000  -0.000  -0.000   0.000  -0.000  -0.000   0.000   0.000   0.000   0.000  -0.000   0.000
  0.000  -0.000   0.000  -0.000  -0.000  -0.000   0.000   0.000  -0.000  -0.000  -0.000   0.000  -0.000  -0.000
 -0.000   0.000  -0.000   0.000  -0.000   0.000  -0.000   0.000  -0.000   0.000  -0.000  -0.000   0.000   0.000
 -0.000   0.000   0.000  -0.000   0.000  -0.000  -0.000   0.000   0.000  -0.000   0.000  -0.000   0.000  -0.000
 -0.000   0.000   0.000  -0.000   0.000   0.000   0.000   0.000   0.000  -0.000  -0.000   0.000   0.000  -0.000
  0.000  -0.000  -0.000   0.000  -0.000  -0.000   0.000   0.000  -0.000   0.000   0.000  -0.000  -0.000   0.000
 -0.000   0.000  -0.000   0.000  -0.000   0.000  -0.000  -0.000   0.000   0.000   0.000  -0.000  -0.000  -0.000
  0.000  -0.000   0.000   0.000  -0.000  -0.000   0.000  -0.000   0.000   0.000   0.000   0.000  -0.000   0.000
 -0.000   0.000  -0.000   0.000   0.000  -0.000  -0.000   0.000  -0.000  -0.000   0.000  -0.000   0.000   0.000
  0.000  -0.000  -0.000  -0.000  -0.000   0.000   0.000   0.000  -0.000  -0.000  -0.000   0.000   0.000  -0.000
 -0.000   0.000   0.000   0.000  -0.000   0.000  -0.000  -0.000   0.000  -0.000   0.000   0.000  -0.000   0.000


------------------------ aborting loop because EDIFF is reached ----------------------------------------


    CHARGE:  cpu time      0.1120: real time      0.1259
    FORLOC:  cpu time      0.0037: real time      0.0037
    FORNL :  cpu time      0.3042: real time      0.3064
    STRESS:  cpu time      0.9038: real time      0.9100
    FORCOR:  cpu time      0.0502: real time      0.0505
    FORHAR:  cpu time      0.0085: real time      0.0085
    MIXING:  cpu time      0.0008: real time      0.0008
    OFIELD:  cpu time      0.0000: real time      0.0000

 ---------------------------------------------------------------------------------------------

         DFTD3 V3.0 Rev 1        
 Edisp (eV)  -13.22778

 E6    (eV) :    -8.1550
 E8    (eV) :    -5.0727
 % E8        : 38.35
    FORVDW:  cpu time      0.2899: real time      0.2918

  FORCE on cell =-STRESS in cart. coord.  units (eV):
  Direction    XX          YY          ZZ          XY          YZ          ZX
  --------------------------------------------------------------------------------------
  Alpha Z   293.99763   293.99763   293.99763
  Ewald   -2822.01764 -3010.05619 -2822.01764   -10.68685    10.68685   -72.81793
  Hartree   798.41690   726.28911   798.41690    -0.06670     0.06671   -24.13639
  E(xc)    -947.36393  -947.95892  -947.36393    -0.03776     0.03776    -0.20301
  Local   -1670.27819 -1430.31650 -1670.27819    10.12698   -10.12698    93.04142
  n-local  1480.94222  1482.09795  1481.01333    -0.97929     0.07397    -1.77063
  augment  -356.35292  -357.68413  -356.35292     0.06493    -0.06195    -0.03984
  Kinetic  3236.91008  3257.02848  3237.05502    -0.80726    -0.46161     4.29842
  Fock        0.00000     0.00000     0.00000     0.00000     0.00000     0.00000
  vdW       -14.04123   -14.05883   -14.04123    -0.00034     0.00034     0.03385
  -------------------------------------------------------------------------------------
  Total       0.32095    -0.66140     0.32095    -1.30076     1.30076    -1.59431
  in kB       0.55692    -1.14766     0.55692    -2.25709     2.25709    -2.76646
  external pressure =       -0.01 kB  Pullay stress =        0.00 kB


 VOLUME and BASIS-vectors are now :
 -----------------------------------------------------------------------------
  energy-cutoff  :      520.00
  volume of cell :      923.33
      direct lattice vectors                 reciprocal lattice vectors
     9.737616654  0.000000000  0.000000000     0.102694534  0.000000000  0.000000000
     0.000000000  9.737616654  0.000000000     0.000000000  0.102694534  0.000000000
     0.000000000  0.000000000  9.737616654     0.000000000  0.000000000  0.102694534

  length of vectors
     9.737616654  9.737616654  9.737616654     0.102694534  0.102694534  0.102694534


 FORCES acting on ions
    electron-ion (+dipol)            ewald-force                    non-local-force                 convergence-correction
 -----------------------------------------------------------------------------------------------
   -.107E+02 -.222E+01 0.387E+01   0.108E+02 0.149E+01 -.451E+01   -.120E+00 0.734E+00 0.644E+00   0.823E-05 -.330E-04 0.805E-05
   -.406E+01 -.910E+00 -.204E+01   0.334E+01 -.117E-01 0.116E+01   0.724E+00 0.925E+00 0.875E+00   -.169E-03 -.740E-04 0.553E-04
   0.280E+01 0.439E+01 0.514E+00   -.151E+01 -.347E+01 -.146E+01   -.128E+01 -.931E+00 0.948E+00   -.602E-04 0.933E-04 -.796E-04
   -.800E+00 0.341E+01 -.182E+01   0.176E+01 -.329E+01 0.149E+01   -.946E+00 -.113E+00 0.328E+00   -.480E-04 0.519E-03 -.611E-03
   -.514E+00 0.439E+01 -.280E+01   0.146E+01 -.347E+01 0.151E+01   -.948E+00 -.931E+00 0.128E+01   0.796E-04 0.933E-04 0.602E-04
   0.204E+01 -.910E+00 0.406E+01   -.116E+01 -.117E-01 -.334E+01   -.875E+00 0.925E+00 -.724E+00   -.553E-04 -.740E-04 0.169E-03
   -.387E+01 -.222E+01 0.107E+02   0.451E+01 0.149E+01 -.108E+02   -.644E+00 0.734E+00 0.120E+00   -.805E-05 -.330E-04 -.823E-05
   0.182E+01 0.341E+01 0.800E+00   -.149E+01 -.329E+01 -.176E+01   -.328E+00 -.113E+00 0.946E+00   0.611E-03 0.519E-03 0.480E-04
   -.121E+02 -.162E+02 -.773E+01   0.112E+02 0.152E+02 0.717E+01   0.879E+00 0.985E+00 0.567E+00   0.150E-04 0.135E-03 -.102E-03
   0.142E+02 -.217E+02 -.142E+02   -.137E+02 0.217E+02 0.137E+02   -.461E+00 -.949E-02 0.461E+00   0.523E-04 0.789E-04 -.523E-04
   0.773E+01 -.162E+02 0.121E+02   -.717E+01 0.152E+02 -.112E+02   -.567E+00 0.985E+00 -.879E+00   0.102E-03 0.135E-03 -.150E-04
   -.168E+02 -.473E+01 0.168E+02   0.164E+02 0.501E+01 -.164E+02   0.421E+00 -.278E+00 -.421E+00   -.118E-04 -.490E-04 0.118E-04
   0.149E+02 0.105E+02 -.103E+02   -.136E+02 -.924E+01 0.951E+01   -.129E+01 -.130E+01 0.805E+00   -.222E-04 -.133E-03 -.640E-04
   -.529E+01 -.122E+00 -.368E+01   0.626E+01 -.105E+01 0.506E+01   -.960E+00 0.117E+01 -.138E+01   -.718E-04 0.423E-04 -.138E-03
   -.107E+02 0.510E+01 -.795E+01   0.110E+02 -.609E+01 0.875E+01   -.367E+00 0.100E+01 -.799E+00   0.564E-04 0.310E-04 -.153E-04
   0.521E+01 -.364E+00 -.103E+02   -.602E+01 -.559E+00 0.104E+02   0.815E+00 0.930E+00 -.804E-01   0.678E-04 -.377E-04 -.520E-04
   -.666E+00 -.310E+01 0.666E+00   0.920E+00 0.139E+01 -.920E+00   -.251E+00 0.170E+01 0.251E+00   -.119E-03 -.985E-04 0.119E-03
   -.497E+01 -.412E+01 0.137E+02   0.359E+01 0.501E+01 -.126E+02   0.138E+01 -.892E+00 -.107E+01   0.167E-04 -.269E-04 -.153E-04
   0.108E+01 -.908E+01 -.108E+01   -.111E+01 0.872E+01 0.111E+01   0.328E-01 0.355E+00 -.328E-01   -.667E-04 -.129E-03 0.666E-04
   -.137E+02 -.412E+01 0.497E+01   0.126E+02 0.501E+01 -.359E+01   0.107E+01 -.892E+00 -.138E+01   0.153E-04 -.269E-04 -.167E-04
   0.368E+01 -.122E+00 0.529E+01   -.506E+01 -.105E+01 -.626E+01   0.138E+01 0.117E+01 0.960E+00   0.138E-03 0.423E-04 0.718E-04
   0.795E+01 0.510E+01 0.107E+02   -.875E+01 -.609E+01 -.110E+02   0.799E+00 0.100E+01 0.367E+00   0.153E-04 0.310E-04 -.564E-04
   0.103E+02 -.364E+00 -.521E+01   -.104E+02 -.559E+00 0.602E+01   0.804E-01 0.930E+00 -.815E+00   0.520E-04 -.377E-04 -.678E-04
   0.103E+02 0.105E+02 -.149E+02   -.951E+01 -.924E+01 0.136E+02   -.805E+00 -.130E+01 0.129E+01   0.640E-04 -.133E-03 0.222E-04
   0.812E+01 0.175E+02 -.812E+01   -.835E+01 -.176E+02 0.835E+01   0.223E+00 0.312E-01 -.223E+00   0.566E-04 -.108E-03 -.566E-04
   0.150E+02 -.155E+01 0.123E+02   -.157E+02 0.133E+01 -.125E+02   0.710E+00 0.217E+00 0.124E+00   0.127E-03 0.548E-04 -.154E-04
   -.785E+01 0.965E+00 0.785E+01   0.843E+01 -.106E+01 -.843E+01   -.582E+00 0.945E-01 0.582E+00   -.553E-04 -.134E-04 0.553E-04
   -.123E+02 -.155E+01 -.150E+02   0.125E+02 0.133E+01 0.157E+02   -.124E+00 0.217E+00 -.710E+00   0.154E-04 0.548E-04 -.127E-03
   -.634E+02 0.400E+02 -.645E+02   0.672E+02 -.420E+02 0.679E+02   -.379E+01 0.205E+01 -.338E+01   -.276E-03 0.311E-03 -.296E-03
   -.559E+02 -.352E+02 0.506E+02   0.592E+02 0.370E+02 -.544E+02   -.323E+01 -.180E+01 0.379E+01   -.963E-04 0.119E-04 -.122E-03
   0.110E+02 0.509E+02 0.289E+02   -.137E+02 -.532E+02 -.317E+02   0.271E+01 0.234E+01 0.284E+01   -.700E-04 0.237E-03 -.209E-03
   0.527E+02 -.301E+02 -.626E+02   -.565E+02 0.316E+02 0.661E+02   0.377E+01 -.144E+01 -.350E+01   -.179E-03 0.179E-03 0.167E-03
   0.306E+02 -.343E+02 -.306E+02   -.337E+02 0.376E+02 0.337E+02   0.312E+01 -.329E+01 -.312E+01   0.151E-03 0.194E-03 -.151E-03
   0.295E+02 0.391E+02 0.517E+02   -.325E+02 -.421E+02 -.553E+02   0.302E+01 0.305E+01 0.358E+01   -.190E-03 -.163E-03 0.106E-03
   -.468E+02 -.519E+02 0.468E+02   0.497E+02 0.551E+02 -.497E+02   -.296E+01 -.320E+01 0.296E+01   -.220E-03 -.147E-03 0.220E-03
   -.517E+02 0.391E+02 -.295E+02   0.553E+02 -.421E+02 0.325E+02   -.358E+01 0.305E+01 -.302E+01   -.106E-03 -.163E-03 0.190E-03
   -.506E+02 -.352E+02 0.559E+02   0.544E+02 0.370E+02 -.592E+02   -.379E+01 -.180E+01 0.323E+01   0.122E-03 0.119E-04 0.963E-04
   -.289E+02 0.509E+02 -.110E+02   0.317E+02 -.532E+02 0.137E+02   -.284E+01 0.234E+01 -.271E+01   0.209E-03 0.237E-03 0.700E-04
   0.626E+02 -.301E+02 -.527E+02   -.661E+02 0.316E+02 0.565E+02   0.350E+01 -.144E+01 -.377E+01   -.167E-03 0.179E-03 0.179E-03
   0.645E+02 0.400E+02 0.634E+02   -.679E+02 -.420E+02 -.672E+02   0.338E+01 0.205E+01 0.379E+01   0.296E-03 0.311E-03 0.276E-03
   -.368E+02 -.223E+02 0.368E+02   0.401E+02 0.255E+02 -.401E+02   -.325E+01 -.319E+01 0.325E+01   0.105E-03 -.370E-04 -.105E-03
   -.212E+02 0.579E+02 -.452E+02   0.240E+02 -.610E+02 0.487E+02   -.276E+01 0.310E+01 -.349E+01   0.629E-04 -.122E-03 0.106E-03
   0.473E+02 -.522E+02 -.473E+02   -.501E+02 0.561E+02 0.501E+02   0.273E+01 -.390E+01 -.273E+01   0.221E-03 -.162E-03 -.221E-03
   0.452E+02 0.579E+02 0.212E+02   -.487E+02 -.610E+02 -.240E+02   0.349E+01 0.310E+01 0.276E+01   -.106E-03 -.122E-03 -.629E-04
   -.155E+02 0.355E+01 -.945E+00   0.157E+02 -.347E+01 0.825E+00   -.203E+00 -.848E-01 0.124E+00   0.554E-03 0.129E-03 -.153E-03
   -.724E+00 0.585E+01 0.724E+00   0.845E+00 -.636E+01 -.845E+00   -.121E+00 0.517E+00 0.121E+00   -.141E-03 -.141E-04 0.141E-03
   0.945E+00 0.355E+01 0.155E+02   -.825E+00 -.347E+01 -.157E+02   -.124E+00 -.848E-01 0.203E+00   0.153E-03 0.129E-03 -.554E-03
   -.206E+02 0.349E+02 0.206E+02   0.211E+02 -.361E+02 -.211E+02   -.453E+00 0.122E+01 0.453E+00   -.236E-03 0.341E-04 0.236E-03
   -.128E+01 0.114E+01 0.128E+01   0.125E+01 -.123E+01 -.125E+01   0.393E-01 0.904E-01 -.393E-01   -.474E-03 -.881E-03 0.474E-03
   -.220E+02 -.307E+02 -.235E+02   0.223E+02 0.312E+02 0.238E+02   -.316E+00 -.523E+00 -.265E+00   -.306E-03 -.917E-03 0.545E-03
   0.493E+02 -.559E+02 -.493E+02   -.502E+02 0.567E+02 0.502E+02   0.847E+00 -.885E+00 -.847E+00   0.127E-03 0.749E-04 -.127E-03
   0.235E+02 -.307E+02 0.220E+02   -.238E+02 0.312E+02 -.223E+02   0.265E+00 -.523E+00 0.316E+00   -.545E-03 -.917E-03 0.306E-03
 -----------------------------------------------------------------------------------------------
   0.259E+01 -.813E+01 -.259E+01   -.462E-13 -.817E-13 -.462E-13   -.259E+01 0.811E+01 0.259E+01   -.306E-03 -.785E-03 0.306E-03
 
 
 POSITION                                       TOTAL-FORCE (eV/Angst)
 -----------------------------------------------------------------------------------
      9.65338      3.11497      2.73536         0.000035      0.000017     -0.000037
      9.40346      8.12129      7.65755        -0.000084      0.000108      0.000155
      0.21783      1.71484      7.64373        -0.000012      0.000022      0.000113
      0.22655      7.23992      2.45088        -0.000040     -0.000335      0.000308
      2.09431      1.71484      9.52021        -0.000113      0.000022      0.000012
      2.08049      8.12129      0.33458        -0.000155      0.000108      0.000084
      7.00268      3.11497      0.08466         0.000037      0.000017     -0.000035
      7.28716      7.23992      9.51149        -0.000308     -0.000335      0.000040
      2.70760      9.19066      3.95779         0.000004     -0.000074      0.000002
      6.45924      0.43969      3.27880         0.000025      0.000003     -0.000025
      5.78025      9.19066      7.03044        -0.000002     -0.000074     -0.000004
      8.35310      0.41660      1.38494         0.000052     -0.000005     -0.000052
      1.76966      6.32487      4.58668         0.000127      0.000141      0.000204
      1.99976      2.66833      5.13142        -0.000054     -0.000076      0.000095
      6.87916      7.73507      5.06555         0.000045     -0.000057     -0.000025
      7.76787      2.84057      4.70210        -0.000143      0.000049      0.000037
      2.30679      4.52334      7.43126         0.000105      0.000144     -0.000105
      3.18057      5.21507      1.70211        -0.000070     -0.000030     -0.000064
      7.28162      4.66646      2.45643         0.000066      0.000084     -0.000066
      8.03593      5.21507      6.55747         0.000064     -0.000030      0.000070
      4.60662      2.66833      7.73829        -0.000095     -0.000076      0.000054
      4.67250      7.73507      2.85888         0.000025     -0.000057     -0.000045
      5.03595      2.84057      1.97017        -0.000037      0.000049      0.000143
      5.15136      6.32487      7.96838        -0.000204      0.000141     -0.000127
      4.81830      4.81811      4.91974         0.000161      0.000172     -0.000161
      4.97248      9.71016      0.08566        -0.000072     -0.000231     -0.000305
      0.13708      4.88457      9.60096         0.000524      0.000002     -0.000524
      9.65238      9.71016      4.76556         0.000305     -0.000231      0.000072
      1.17020      8.49072      5.81022        -0.000365      0.000348     -0.000350
      1.06480      1.16465      3.53625         0.000081      0.000022      0.000004
      8.42851      8.64249      3.47609         0.000015     -0.000123     -0.000043
      8.37840      0.96244      6.01752        -0.000328      0.000305      0.000340
      8.61715      5.93735      1.12089        -0.000059     -0.000037      0.000059
      8.73992      3.71632      8.35411        -0.000024      0.000014     -0.000045
      1.19793      6.26900      8.54012        -0.000103     -0.000156      0.000103
      1.38393      3.71632      0.99813         0.000045      0.000014      0.000024
      6.20179      1.16465      8.67324        -0.000004      0.000022     -0.000081
      6.26195      8.64249      1.30953         0.000043     -0.000123     -0.000015
      3.72052      0.96244      1.35964        -0.000340      0.000305      0.000328
      3.92782      8.49072      8.56784         0.000350      0.000348      0.000365
      6.00489      6.00893      3.73315         0.000105      0.000147     -0.000105
      6.05384      3.69675      6.11410         0.000063     -0.000091      0.000075
      3.63153      5.99633      6.10651         0.000244     -0.000271     -0.000244
      3.62394      3.69675      3.68420        -0.000075     -0.000091     -0.000063
      7.22902      7.27822      7.27642        -0.000110     -0.000012      0.000019
      7.37032      2.41643      2.36772         0.000091      0.000010     -0.000091
      2.46162      7.27822      2.50902        -0.000019     -0.000012      0.000110
      2.42656      2.27477      7.31148         0.000053      0.000029     -0.000053
      0.24237      9.71309      9.49568         0.000091     -0.000054     -0.000091
      9.61841      4.59907      4.68422         0.000025      0.000090     -0.000138
      4.95706      9.33748      4.78098        -0.000105     -0.000239      0.000105
      5.05382      4.59907      0.11963         0.000138      0.000090     -0.000025
 -----------------------------------------------------------------------------------
    total drift:                                0.000596     -0.023379     -0.000607


--------------------------------------------------------------------------------------------------------



  FREE ENERGIE OF THE ION-ELECTRON SYSTEM (eV)
  ---------------------------------------------------
  free  energy   TOTEN  =      -271.29655834 eV

  energy  without entropy=     -271.29655834  energy(sigma->0) =     -271.29655834
 
 d Force = 0.7242683E-06[ 0.193E-06, 0.126E-05]  d Energy = 0.2431744E-05-0.171E-05
 d Force = 0.6357173E-02[ 0.636E-02, 0.636E-02]  d Ewald  = 0.6357172E-02 0.491E-10


--------------------------------------------------------------------------------------------------------


    POTLOK:  cpu time      0.4553: real time      0.4568


--------------------------------------------------------------------------------------------------------


 stress matrix after NEB project (eV)
      0.32095     -1.30076     -1.59431
     -1.30076     -0.66140      1.30076
     -1.59431      1.30076      0.32095
  FORCES: max atom, RMS     0.000741    0.000270
  FORCE total and by dimension    0.001946    0.000524
  Stress total and by dimension    3.534824    1.594307


--------------------------------------------------------------------------------------------------------


  
 reached required accuracy - stopping structural energy minimisation
     LOOP+:  cpu time      8.1122: real time      8.2285
    4ORBIT:  cpu time      0.0000: real time      0.0000

 total amount of memory used by VASP MPI-rank0    46869. kBytes
=======================================================================

   base      :      30000. kBytes
   nonlr-proj:       6353. kBytes
   fftplans  :       1747. kBytes
   grid      :       5278. kBytes
   one-center:         62. kBytes
   wavefun   :       3429. kBytes
 
  
  
 General timing and accounting informations for this job:
 ========================================================
  
                  Total CPU time used (sec):       91.721
                            User time (sec):       90.250
                          System time (sec):        1.471
                         Elapsed time (sec):       96.361
  
                   Maximum memory used (kb):      395656.
                   Average memory used (kb):          N/A
  
                          Minor page faults:        70332
                          Major page faults:          120
                 Voluntary context switches:         9236
