  52  52   0  16
  0.1733716E+02  0.9660371E-09  0.9660371E-09  0.9660371E-09  0.2000000E-15
  1.000000000000000E-004
  CAR 
 unknown system                          
     12.55752390    -45.19723053  301      2.01728122      1.00000000
    -45.197  0.0000E+00  0.0000E+00  0.0000E+00  0.0000E+00
    -45.005  0.0000E+00  0.0000E+00  0.0000E+00  0.0000E+00
    -44.812  0.0000E+00  0.0000E+00  0.0000E+00  0.0000E+00
    -44.620  0.0000E+00  0.0000E+00  0.0000E+00  0.0000E+00
    -44.427  0.0000E+00  0.0000E+00  0.0000E+00  0.0000E+00
    -44.235  0.0000E+00  0.0000E+00  0.0000E+00  0.0000E+00
    -44.042  0.0000E+00  0.0000E+00  0.0000E+00  0.0000E+00
    -43.850  0.0000E+00  0.0000E+00  0.0000E+00  0.0000E+00
    -43.657  0.0000E+00  0.0000E+00  0.0000E+00  0.0000E+00
    -43.465  0.0000E+00  0.0000E+00  0.0000E+00  0.0000E+00
    -43.272  0.0000E+00  0.0000E+00  0.0000E+00  0.0000E+00
    -43.080  0.0000E+00  0.0000E+00  0.0000E+00  0.0000E+00
    -42.887  0.0000E+00  0.0000E+00  0.0000E+00  0.0000E+00
    -42.695  0.1996E-10  0.1996E-10  0.3843E-11  0.3843E-11
    -42.502  0.2100E-01  0.2100E-01  0.4043E-02  0.4043E-02
    -42.309  0.7073E-01  0.7073E-01  0.1766E-01  0.1766E-01
    -42.117  0.3292E-01  0.3292E-01  0.2400E-01  0.2400E-01
    -41.924  0.0000E+00  0.0000E+00  0.2400E-01  0.2400E-01
    -41.732  0.0000E+00  0.0000E+00  0.2400E-01  0.2400E-01
    -41.539  0.0000E+00  0.0000E+00  0.2400E-01  0.2400E-01
    -41.347  0.0000E+00  0.0000E+00  0.2400E-01  0.2400E-01
    -41.154  0.0000E+00  0.0000E+00  0.2400E-01  0.2400E-01
    -40.962  0.0000E+00  0.0000E+00  0.2400E-01  0.2400E-01
    -40.769  0.0000E+00  0.0000E+00  0.2400E-01  0.2400E-01
    -40.577  0.0000E+00  0.0000E+00  0.2400E-01  0.2400E-01
    -40.384  0.0000E+00  0.0000E+00  0.2400E-01  0.2400E-01
    -40.192  0.0000E+00  0.0000E+00  0.2400E-01  0.2400E-01
    -39.999  0.0000E+00  0.0000E+00  0.2400E-01  0.2400E-01
    -39.807  0.0000E+00  0.0000E+00  0.2400E-01  0.2400E-01
    -39.614  0.0000E+00  0.0000E+00  0.2400E-01  0.2400E-01
    -39.422  0.0000E+00  0.0000E+00  0.2400E-01  0.2400E-01
    -39.229  0.0000E+00  0.0000E+00  0.2400E-01  0.2400E-01
    -39.037  0.0000E+00  0.0000E+00  0.2400E-01  0.2400E-01
    -38.844  0.0000E+00  0.0000E+00  0.2400E-01  0.2400E-01
    -38.652  0.0000E+00  0.0000E+00  0.2400E-01  0.2400E-01
    -38.459  0.0000E+00  0.0000E+00  0.2400E-01  0.2400E-01
    -38.267  0.0000E+00  0.0000E+00  0.2400E-01  0.2400E-01
    -38.074  0.0000E+00  0.0000E+00  0.2400E-01  0.2400E-01
    -37.882  0.0000E+00  0.0000E+00  0.2400E-01  0.2400E-01
    -37.689  0.0000E+00  0.0000E+00  0.2400E-01  0.2400E-01
    -37.497  0.0000E+00  0.0000E+00  0.2400E-01  0.2400E-01
    -37.304  0.0000E+00  0.0000E+00  0.2400E-01  0.2400E-01
    -37.112  0.0000E+00  0.0000E+00  0.2400E-01  0.2400E-01
    -36.919  0.0000E+00  0.0000E+00  0.2400E-01  0.2400E-01
    -36.727  0.0000E+00  0.0000E+00  0.2400E-01  0.2400E-01
    -36.534  0.0000E+00  0.0000E+00  0.2400E-01  0.2400E-01
    -36.342  0.0000E+00  0.0000E+00  0.2400E-01  0.2400E-01
    -36.149  0.0000E+00  0.0000E+00  0.2400E-01  0.2400E-01
    -35.956  0.0000E+00  0.0000E+00  0.2400E-01  0.2400E-01
    -35.764  0.0000E+00  0.0000E+00  0.2400E-01  0.2400E-01
    -35.571  0.0000E+00  0.0000E+00  0.2400E-01  0.2400E-01
    -35.379  0.0000E+00  0.0000E+00  0.2400E-01  0.2400E-01
    -35.186  0.0000E+00  0.0000E+00  0.2400E-01  0.2400E-01
    -34.994  0.0000E+00  0.0000E+00  0.2400E-01  0.2400E-01
    -34.801  0.0000E+00  0.0000E+00  0.2400E-01  0.2400E-01
    -34.609  0.0000E+00  0.0000E+00  0.2400E-01  0.2400E-01
    -34.416  0.0000E+00  0.0000E+00  0.2400E-01  0.2400E-01
    -34.224  0.0000E+00  0.0000E+00  0.2400E-01  0.2400E-01
    -34.031  0.0000E+00  0.0000E+00  0.2400E-01  0.2400E-01
    -33.839  0.0000E+00  0.0000E+00  0.2400E-01  0.2400E-01
    -33.646  0.0000E+00  0.0000E+00  0.2400E-01  0.2400E-01
    -33.454  0.0000E+00  0.0000E+00  0.2400E-01  0.2400E-01
    -33.261  0.0000E+00  0.0000E+00  0.2400E-01  0.2400E-01
    -33.069  0.0000E+00  0.0000E+00  0.2400E-01  0.2400E-01
    -32.876  0.0000E+00  0.0000E+00  0.2400E-01  0.2400E-01
    -32.684  0.0000E+00  0.0000E+00  0.2400E-01  0.2400E-01
    -32.491  0.0000E+00  0.0000E+00  0.2400E-01  0.2400E-01
    -32.299  0.0000E+00  0.0000E+00  0.2400E-01  0.2400E-01
    -32.106  0.0000E+00  0.0000E+00  0.2400E-01  0.2400E-01
    -31.914  0.0000E+00  0.0000E+00  0.2400E-01  0.2400E-01
    -31.721  0.0000E+00  0.0000E+00  0.2400E-01  0.2400E-01
    -31.529  0.0000E+00  0.0000E+00  0.2400E-01  0.2400E-01
    -31.336  0.0000E+00  0.0000E+00  0.2400E-01  0.2400E-01
    -31.144  0.0000E+00  0.0000E+00  0.2400E-01  0.2400E-01
    -30.951  0.0000E+00  0.0000E+00  0.2400E-01  0.2400E-01
    -30.759  0.0000E+00  0.0000E+00  0.2400E-01  0.2400E-01
    -30.566  0.0000E+00  0.0000E+00  0.2400E-01  0.2400E-01
    -30.374  0.0000E+00  0.0000E+00  0.2400E-01  0.2400E-01
    -30.181  0.0000E+00  0.0000E+00  0.2400E-01  0.2400E-01
    -29.988  0.0000E+00  0.0000E+00  0.2400E-01  0.2400E-01
    -29.796  0.0000E+00  0.0000E+00  0.2400E-01  0.2400E-01
    -29.603  0.0000E+00  0.0000E+00  0.2400E-01  0.2400E-01
    -29.411  0.0000E+00  0.0000E+00  0.2400E-01  0.2400E-01
    -29.218  0.0000E+00  0.0000E+00  0.2400E-01  0.2400E-01
    -29.026  0.0000E+00  0.0000E+00  0.2400E-01  0.2400E-01
    -28.833  0.0000E+00  0.0000E+00  0.2400E-01  0.2400E-01
    -28.641  0.0000E+00  0.0000E+00  0.2400E-01  0.2400E-01
    -28.448  0.0000E+00  0.0000E+00  0.2400E-01  0.2400E-01
    -28.256  0.0000E+00  0.0000E+00  0.2400E-01  0.2400E-01
    -28.063  0.0000E+00  0.0000E+00  0.2400E-01  0.2400E-01
    -27.871  0.0000E+00  0.0000E+00  0.2400E-01  0.2400E-01
    -27.678  0.0000E+00  0.0000E+00  0.2400E-01  0.2400E-01
    -27.486  0.0000E+00  0.0000E+00  0.2400E-01  0.2400E-01
    -27.293  0.0000E+00  0.0000E+00  0.2400E-01  0.2400E-01
    -27.101  0.0000E+00  0.0000E+00  0.2400E-01  0.2400E-01
    -26.908  0.0000E+00  0.0000E+00  0.2400E-01  0.2400E-01
    -26.716  0.0000E+00  0.0000E+00  0.2400E-01  0.2400E-01
    -26.523  0.0000E+00  0.0000E+00  0.2400E-01  0.2400E-01
    -26.331  0.0000E+00  0.0000E+00  0.2400E-01  0.2400E-01
    -26.138  0.0000E+00  0.0000E+00  0.2400E-01  0.2400E-01
    -25.946  0.0000E+00  0.0000E+00  0.2400E-01  0.2400E-01
    -25.753  0.0000E+00  0.0000E+00  0.2400E-01  0.2400E-01
    -25.561  0.0000E+00  0.0000E+00  0.2400E-01  0.2400E-01
    -25.368  0.0000E+00  0.0000E+00  0.2400E-01  0.2400E-01
    -25.176  0.0000E+00  0.0000E+00  0.2400E-01  0.2400E-01
    -24.983  0.0000E+00  0.0000E+00  0.2400E-01  0.2400E-01
    -24.791  0.0000E+00  0.0000E+00  0.2400E-01  0.2400E-01
    -24.598  0.0000E+00  0.0000E+00  0.2400E-01  0.2400E-01
    -24.406  0.0000E+00  0.0000E+00  0.2400E-01  0.2400E-01
    -24.213  0.0000E+00  0.0000E+00  0.2400E-01  0.2400E-01
    -24.020  0.0000E+00  0.0000E+00  0.2400E-01  0.2400E-01
    -23.828  0.0000E+00  0.0000E+00  0.2400E-01  0.2400E-01
    -23.635  0.0000E+00  0.0000E+00  0.2400E-01  0.2400E-01
    -23.443  0.0000E+00  0.0000E+00  0.2400E-01  0.2400E-01
    -23.250  0.0000E+00  0.0000E+00  0.2400E-01  0.2400E-01
    -23.058  0.0000E+00  0.0000E+00  0.2400E-01  0.2400E-01
    -22.865  0.0000E+00  0.0000E+00  0.2400E-01  0.2400E-01
    -22.673  0.0000E+00  0.0000E+00  0.2400E-01  0.2400E-01
    -22.480  0.0000E+00  0.0000E+00  0.2400E-01  0.2400E-01
    -22.288  0.0000E+00  0.0000E+00  0.2400E-01  0.2400E-01
    -22.095  0.0000E+00  0.0000E+00  0.2400E-01  0.2400E-01
    -21.903  0.0000E+00  0.0000E+00  0.2400E-01  0.2400E-01
    -21.710  0.0000E+00  0.0000E+00  0.2400E-01  0.2400E-01
    -21.518  0.0000E+00  0.0000E+00  0.2400E-01  0.2400E-01
    -21.325  0.0000E+00  0.0000E+00  0.2400E-01  0.2400E-01
    -21.133  0.0000E+00  0.0000E+00  0.2400E-01  0.2400E-01
    -20.940  0.0000E+00  0.0000E+00  0.2400E-01  0.2400E-01
    -20.748  0.0000E+00  0.0000E+00  0.2400E-01  0.2400E-01
    -20.555  0.0000E+00  0.0000E+00  0.2400E-01  0.2400E-01
    -20.363  0.0000E+00  0.0000E+00  0.2400E-01  0.2400E-01
    -20.170  0.0000E+00  0.0000E+00  0.2400E-01  0.2400E-01
    -19.978  0.0000E+00  0.0000E+00  0.2400E-01  0.2400E-01
    -19.785  0.0000E+00  0.0000E+00  0.2400E-01  0.2400E-01
    -19.593  0.0000E+00  0.0000E+00  0.2400E-01  0.2400E-01
    -19.400  0.0000E+00  0.0000E+00  0.2400E-01  0.2400E-01
    -19.208  0.0000E+00  0.0000E+00  0.2400E-01  0.2400E-01
    -19.015  0.0000E+00  0.0000E+00  0.2400E-01  0.2400E-01
    -18.823  0.0000E+00  0.0000E+00  0.2400E-01  0.2400E-01
    -18.630  0.0000E+00  0.0000E+00  0.2400E-01  0.2400E-01
    -18.438  0.0000E+00  0.0000E+00  0.2400E-01  0.2400E-01
    -18.245  0.0000E+00  0.0000E+00  0.2400E-01  0.2400E-01
    -18.052  0.0000E+00  0.0000E+00  0.2400E-01  0.2400E-01
    -17.860  0.0000E+00  0.0000E+00  0.2400E-01  0.2400E-01
    -17.667  0.0000E+00  0.0000E+00  0.2400E-01  0.2400E-01
    -17.475  0.0000E+00  0.0000E+00  0.2400E-01  0.2400E-01
    -17.282  0.0000E+00  0.0000E+00  0.2400E-01  0.2400E-01
    -17.090  0.0000E+00  0.0000E+00  0.2400E-01  0.2400E-01
    -16.897  0.0000E+00  0.0000E+00  0.2400E-01  0.2400E-01
    -16.705  0.0000E+00  0.0000E+00  0.2400E-01  0.2400E-01
    -16.512  0.0000E+00  0.0000E+00  0.2400E-01  0.2400E-01
    -16.320  0.0000E+00  0.0000E+00  0.2400E-01  0.2400E-01
    -16.127  0.0000E+00  0.0000E+00  0.2400E-01  0.2400E-01
    -15.935  0.0000E+00  0.0000E+00  0.2400E-01  0.2400E-01
    -15.742  0.0000E+00  0.0000E+00  0.2400E-01  0.2400E-01
    -15.550  0.0000E+00  0.0000E+00  0.2400E-01  0.2400E-01
    -15.357  0.0000E+00  0.0000E+00  0.2400E-01  0.2400E-01
    -15.165  0.0000E+00  0.0000E+00  0.2400E-01  0.2400E-01
    -14.972  0.0000E+00  0.0000E+00  0.2400E-01  0.2400E-01
    -14.780  0.0000E+00  0.0000E+00  0.2400E-01  0.2400E-01
    -14.587  0.0000E+00  0.0000E+00  0.2400E-01  0.2400E-01
    -14.395  0.0000E+00  0.0000E+00  0.2400E-01  0.2400E-01
    -14.202  0.0000E+00  0.0000E+00  0.2400E-01  0.2400E-01
    -14.010  0.0000E+00  0.0000E+00  0.2400E-01  0.2400E-01
    -13.817  0.0000E+00  0.0000E+00  0.2400E-01  0.2400E-01
    -13.625  0.0000E+00  0.0000E+00  0.2400E-01  0.2400E-01
    -13.432  0.0000E+00  0.0000E+00  0.2400E-01  0.2400E-01
    -13.240  0.0000E+00  0.0000E+00  0.2400E-01  0.2400E-01
    -13.047  0.2810E-02  0.2810E-02  0.2454E-01  0.2454E-01
    -12.855  0.1796E-01  0.1796E-01  0.2800E-01  0.2800E-01
    -12.662  0.3260E-02  0.3260E-02  0.2863E-01  0.2863E-01
    -12.470  0.1752E-01  0.1752E-01  0.3200E-01  0.3200E-01
    -12.277  0.0000E+00  0.0000E+00  0.3200E-01  0.3200E-01
    -12.085  0.0000E+00  0.0000E+00  0.3200E-01  0.3200E-01
    -11.892  0.0000E+00  0.0000E+00  0.3200E-01  0.3200E-01
    -11.699  0.0000E+00  0.0000E+00  0.3200E-01  0.3200E-01
    -11.507  0.0000E+00  0.0000E+00  0.3200E-01  0.3200E-01
    -11.314  0.0000E+00  0.0000E+00  0.3200E-01  0.3200E-01
    -11.122  0.0000E+00  0.0000E+00  0.3200E-01  0.3200E-01
    -10.929  0.0000E+00  0.0000E+00  0.3200E-01  0.3200E-01
    -10.737  0.0000E+00  0.0000E+00  0.3200E-01  0.3200E-01
    -10.544  0.0000E+00  0.0000E+00  0.3200E-01  0.3200E-01
    -10.352  0.1611E-05  0.1611E-05  0.3200E-01  0.3200E-01
    -10.159  0.1569E-01  0.1569E-01  0.3502E-01  0.3502E-01
     -9.967  0.2206E-01  0.2206E-01  0.3927E-01  0.3927E-01
     -9.774  0.2455E-01  0.2455E-01  0.4400E-01  0.4400E-01
     -9.582  0.0000E+00  0.0000E+00  0.4400E-01  0.4400E-01
     -9.389  0.0000E+00  0.0000E+00  0.4400E-01  0.4400E-01
     -9.197  0.0000E+00  0.0000E+00  0.4400E-01  0.4400E-01
     -9.004  0.0000E+00  0.0000E+00  0.4400E-01  0.4400E-01
     -8.812  0.0000E+00  0.0000E+00  0.4400E-01  0.4400E-01
     -8.619  0.0000E+00  0.0000E+00  0.4400E-01  0.4400E-01
     -8.427  0.4759E-04  0.4759E-04  0.4401E-01  0.4401E-01
     -8.234  0.2048E-01  0.2048E-01  0.4795E-01  0.4795E-01
     -8.042  0.1853E-03  0.1853E-03  0.4800E-01  0.4800E-01
     -7.849  0.0000E+00  0.0000E+00  0.4800E-01  0.4800E-01
     -7.657  0.0000E+00  0.0000E+00  0.4800E-01  0.4800E-01
     -7.464  0.0000E+00  0.0000E+00  0.4800E-01  0.4800E-01
     -7.272  0.0000E+00  0.0000E+00  0.4800E-01  0.4800E-01
     -7.079  0.0000E+00  0.0000E+00  0.4800E-01  0.4800E-01
     -6.887  0.0000E+00  0.0000E+00  0.4800E-01  0.4800E-01
     -6.694  0.0000E+00  0.0000E+00  0.4800E-01  0.4800E-01
     -6.502  0.0000E+00  0.0000E+00  0.4800E-01  0.4800E-01
     -6.309  0.0000E+00  0.0000E+00  0.4800E-01  0.4800E-01
     -6.117  0.2106E-02  0.2106E-02  0.4841E-01  0.4841E-01
     -5.924  0.3088E-02  0.3088E-02  0.4900E-01  0.4900E-01
     -5.731  0.1123E-02  0.1123E-02  0.4922E-01  0.4922E-01
     -5.539  0.1422E-01  0.1422E-01  0.5195E-01  0.5195E-01
     -5.346  0.2311E-03  0.2311E-03  0.5200E-01  0.5200E-01
     -5.154  0.0000E+00  0.0000E+00  0.5200E-01  0.5200E-01
     -4.961  0.0000E+00  0.0000E+00  0.5200E-01  0.5200E-01
     -4.769  0.0000E+00  0.0000E+00  0.5200E-01  0.5200E-01
     -4.576  0.0000E+00  0.0000E+00  0.5200E-01  0.5200E-01
     -4.384  0.0000E+00  0.0000E+00  0.5200E-01  0.5200E-01
     -4.191  0.0000E+00  0.0000E+00  0.5200E-01  0.5200E-01
     -3.999  0.0000E+00  0.0000E+00  0.5200E-01  0.5200E-01
     -3.806  0.0000E+00  0.0000E+00  0.5200E-01  0.5200E-01
     -3.614  0.0000E+00  0.0000E+00  0.5200E-01  0.5200E-01
     -3.421  0.0000E+00  0.0000E+00  0.5200E-01  0.5200E-01
     -3.229  0.2796E-02  0.2796E-02  0.5254E-01  0.5254E-01
     -3.036  0.1279E-01  0.1279E-01  0.5500E-01  0.5500E-01
     -2.844  0.3075E-02  0.3075E-02  0.5559E-01  0.5559E-01
     -2.651  0.1088E-01  0.1088E-01  0.5769E-01  0.5769E-01
     -2.459  0.9642E-02  0.9642E-02  0.5955E-01  0.5955E-01
     -2.266  0.1953E-01  0.1953E-01  0.6331E-01  0.6331E-01
     -2.074  0.3593E-02  0.3593E-02  0.6400E-01  0.6400E-01
     -1.881  0.0000E+00  0.0000E+00  0.6400E-01  0.6400E-01
     -1.689  0.1831E-07  0.1831E-07  0.6400E-01  0.6400E-01
     -1.496  0.1121E-01  0.1121E-01  0.6616E-01  0.6616E-01
     -1.304  0.2437E-01  0.2437E-01  0.7085E-01  0.7085E-01
     -1.111  0.1964E-01  0.1964E-01  0.7464E-01  0.7464E-01
     -0.919  0.7079E-02  0.7079E-02  0.7600E-01  0.7600E-01
     -0.726  0.4765E-16  0.4765E-16  0.7600E-01  0.7600E-01
     -0.534  0.5387E-02  0.5387E-02  0.7704E-01  0.7704E-01
     -0.341  0.1244E-01  0.1244E-01  0.7943E-01  0.7943E-01
     -0.149  0.1043E-01  0.1043E-01  0.8144E-01  0.8144E-01
      0.044  0.2841E-01  0.2841E-01  0.8691E-01  0.8691E-01
      0.237  0.2655E-01  0.2655E-01  0.9202E-01  0.9202E-01
      0.429  0.1786E-01  0.1786E-01  0.9546E-01  0.9546E-01
      0.622  0.2791E-02  0.2791E-02  0.9600E-01  0.9600E-01
      0.814  0.8926E-02  0.8926E-02  0.9772E-01  0.9772E-01
      1.007  0.1975E-01  0.1975E-01  0.1015E+00  0.1015E+00
      1.199  0.2240E-01  0.2240E-01  0.1058E+00  0.1058E+00
      1.392  0.2503E-01  0.2503E-01  0.1107E+00  0.1107E+00
      1.584  0.3002E-01  0.3002E-01  0.1164E+00  0.1164E+00
      1.777  0.1732E-01  0.1732E-01  0.1198E+00  0.1198E+00
      1.969  0.1144E-02  0.1144E-02  0.1200E+00  0.1200E+00
      2.162  0.0000E+00  0.0000E+00  0.1200E+00  0.1200E+00
      2.354  0.0000E+00  0.0000E+00  0.1200E+00  0.1200E+00
      2.547  0.0000E+00  0.0000E+00  0.1200E+00  0.1200E+00
      2.739  0.0000E+00  0.0000E+00  0.1200E+00  0.1200E+00
      2.932  0.0000E+00  0.0000E+00  0.1200E+00  0.1200E+00
      3.124  0.0000E+00  0.0000E+00  0.1200E+00  0.1200E+00
      3.317  0.0000E+00  0.0000E+00  0.1200E+00  0.1200E+00
      3.509  0.0000E+00  0.0000E+00  0.1200E+00  0.1200E+00
      3.702  0.0000E+00  0.0000E+00  0.1200E+00  0.1200E+00
      3.894  0.0000E+00  0.0000E+00  0.1200E+00  0.1200E+00
      4.087  0.0000E+00  0.0000E+00  0.1200E+00  0.1200E+00
      4.279  0.4379E-15  0.4379E-15  0.1200E+00  0.1200E+00
      4.472  0.4186E-02  0.4186E-02  0.1208E+00  0.1208E+00
      4.664  0.1008E-02  0.1008E-02  0.1210E+00  0.1210E+00
      4.857  0.0000E+00  0.0000E+00  0.1210E+00  0.1210E+00
      5.049  0.2163E-18  0.2163E-18  0.1210E+00  0.1210E+00
      5.242  0.3596E-02  0.3596E-02  0.1217E+00  0.1217E+00
      5.434  0.1195E-01  0.1195E-01  0.1240E+00  0.1240E+00
      5.627  0.2062E-04  0.2062E-04  0.1240E+00  0.1240E+00
      5.819  0.6933E-06  0.6933E-06  0.1240E+00  0.1240E+00
      6.012  0.9651E-02  0.9651E-02  0.1259E+00  0.1259E+00
      6.205  0.1501E-01  0.1501E-01  0.1287E+00  0.1287E+00
      6.397  0.6486E-02  0.6486E-02  0.1300E+00  0.1300E+00
      6.590  0.7884E-02  0.7884E-02  0.1315E+00  0.1315E+00
      6.782  0.9152E-02  0.9152E-02  0.1333E+00  0.1333E+00
      6.975  0.1406E-01  0.1406E-01  0.1360E+00  0.1360E+00
      7.167  0.5121E-02  0.5121E-02  0.1370E+00  0.1370E+00
      7.360  0.1225E-02  0.1225E-02  0.1372E+00  0.1372E+00
      7.552  0.9978E-02  0.9978E-02  0.1391E+00  0.1391E+00
      7.745  0.1301E-01  0.1301E-01  0.1416E+00  0.1416E+00
      7.937  0.1001E-01  0.1001E-01  0.1436E+00  0.1436E+00
      8.130  0.1270E-01  0.1270E-01  0.1460E+00  0.1460E+00
      8.322  0.1619E-01  0.1619E-01  0.1491E+00  0.1491E+00
      8.515  0.1336E-01  0.1336E-01  0.1517E+00  0.1517E+00
      8.707  0.1360E-01  0.1360E-01  0.1543E+00  0.1543E+00
      8.900  0.1963E-01  0.1963E-01  0.1581E+00  0.1581E+00
      9.092  0.1688E-01  0.1688E-01  0.1614E+00  0.1614E+00
      9.285  0.1693E-01  0.1693E-01  0.1646E+00  0.1646E+00
      9.477  0.1852E-01  0.1852E-01  0.1682E+00  0.1682E+00
      9.670  0.1764E-01  0.1755E-01  0.1716E+00  0.1716E+00
      9.862  0.1700E-01  0.1664E-01  0.1749E+00  0.1748E+00
     10.055  0.5875E-02  0.6333E-02  0.1760E+00  0.1760E+00
     10.247  0.0000E+00  0.0000E+00  0.1760E+00  0.1760E+00
     10.440  0.0000E+00  0.0000E+00  0.1760E+00  0.1760E+00
     10.632  0.0000E+00  0.0000E+00  0.1760E+00  0.1760E+00
     10.825  0.0000E+00  0.0000E+00  0.1760E+00  0.1760E+00
     11.017  0.0000E+00  0.0000E+00  0.1760E+00  0.1760E+00
     11.210  0.0000E+00  0.0000E+00  0.1760E+00  0.1760E+00
     11.402  0.0000E+00  0.0000E+00  0.1760E+00  0.1760E+00
     11.595  0.0000E+00  0.0000E+00  0.1760E+00  0.1760E+00
     11.787  0.0000E+00  0.0000E+00  0.1760E+00  0.1760E+00
     11.980  0.0000E+00  0.0000E+00  0.1760E+00  0.1760E+00
     12.172  0.0000E+00  0.0000E+00  0.1760E+00  0.1760E+00
     12.365  0.0000E+00  0.0000E+00  0.1760E+00  0.1760E+00
     12.558  0.0000E+00  0.0000E+00  0.1760E+00  0.1760E+00
