       N       E                     dE             d eps       ncg     rms          rms(c)
DAV:   1     0.159081688348E+04    0.15908E+04   -0.11381E+05  3080   0.126E+03
DAV:   2    -0.551971910513E+02   -0.16460E+04   -0.15491E+04  3840   0.361E+02
DAV:   3    -0.228175341236E+03   -0.17298E+03   -0.17095E+03  3760   0.117E+02
DAV:   4    -0.241676125896E+03   -0.13501E+02   -0.13477E+02  4760   0.334E+01
DAV:   5    -0.241907287446E+03   -0.23116E+00   -0.23106E+00  4440   0.449E+00
DAV:   6    -0.241919215029E+03   -0.11928E-01   -0.11926E-01  4672   0.113E+00
DAV:   7    -0.241919594641E+03   -0.37961E-03   -0.37959E-03  4576   0.212E-01
DAV:   8    -0.241919616612E+03   -0.21971E-04   -0.21970E-04  4592   0.617E-02
DAV:   9    -0.241919618024E+03   -0.14118E-05   -0.14119E-05  4472   0.134E-02
DAV:  10    -0.241919618084E+03   -0.60532E-07   -0.60644E-07  2656   0.426E-03    0.642E+01
RMM:  11    -0.236400124643E+03    0.55195E+01   -0.46638E+01  2816   0.193E+01    0.330E+01
RMM:  12    -0.256062332820E+03   -0.19662E+02   -0.21045E+01  2949   0.134E+01    0.202E+01
RMM:  13    -0.258538483783E+03   -0.24762E+01   -0.88630E+00  2901   0.539E+00    0.664E+00
RMM:  14    -0.258732537371E+03   -0.19405E+00   -0.19274E+00  3740   0.337E+00    0.321E+00
RMM:  15    -0.258709019933E+03    0.23517E-01   -0.32877E-01  3069   0.164E+00    0.681E-01
RMM:  16    -0.258728848848E+03   -0.19829E-01   -0.10260E-01  3088   0.876E-01    0.305E-01
RMM:  17    -0.258734761992E+03   -0.59131E-02   -0.24776E-02  3461   0.449E-01    0.170E-01
RMM:  18    -0.258736010419E+03   -0.12484E-02   -0.67235E-03  3375   0.208E-01    0.883E-02
RMM:  19    -0.258736468089E+03   -0.45767E-03   -0.19625E-03  3938   0.112E-01    0.423E-02
RMM:  20    -0.258736558940E+03   -0.90852E-04   -0.49167E-04  3846   0.478E-02    0.256E-02
RMM:  21    -0.258736575483E+03   -0.16543E-04   -0.14220E-04  3413   0.272E-02    0.103E-02
RMM:  22    -0.258736581549E+03   -0.60662E-05   -0.49687E-05  3802   0.153E-02    0.627E-03
RMM:  23    -0.258736581237E+03    0.31160E-06   -0.13680E-05  2971   0.816E-03    0.279E-03
RMM:  24    -0.258736580545E+03    0.69258E-06   -0.51418E-06  2237   0.607E-03
   1 F= -.27231108E+03 E0= -.27231108E+03  d E =-.272311E+03  mag=    -0.0004
       N       E                     dE             d eps       ncg     rms          rms(c)
DAV:   1    -0.258736581407E+03   -0.16938E-06   -0.41576E-05  3200   0.131E-02    0.164E-03
RMM:   2    -0.258736581632E+03   -0.22519E-06   -0.15931E-06  1912   0.453E-03
   2 F= -.27231108E+03 E0= -.27231108E+03  d E =-.121812E-05  mag=    -0.0001
       N       E                     dE             d eps       ncg     rms          rms(c)
DAV:   1    -0.258736581894E+03   -0.48666E-06   -0.21128E-05  3104   0.929E-03    0.805E-04
RMM:   2    -0.258736581951E+03   -0.57815E-07   -0.90996E-07  1852   0.380E-03
   3 F= -.27231108E+03 E0= -.27231108E+03  d E =-.162556E-05  mag=    -0.0000
       N       E                     dE             d eps       ncg     rms          rms(c)
DAV:   1    -0.258736581983E+03   -0.89836E-07   -0.77998E-05  3432   0.169E-02    0.121E-03
RMM:   2    -0.258736582199E+03   -0.21591E-06   -0.26663E-06  1948   0.614E-03
   4 F= -.27231108E+03 E0= -.27231108E+03  d E =-.204977E-05  mag=    -0.0000
       N       E                     dE             d eps       ncg     rms          rms(c)
DAV:   1    -0.258736582825E+03   -0.84188E-06   -0.64065E-05  3360   0.144E-02    0.895E-04
RMM:   2    -0.258736582992E+03   -0.16642E-06   -0.19294E-06  1823   0.528E-03
   5 F= -.27231108E+03 E0= -.27231108E+03  d E =-.621779E-06  mag=    -0.0000
       N       E                     dE             d eps       ncg     rms          rms(c)
DAV:   1    -0.258736583896E+03   -0.10711E-05   -0.55316E-04  3496   0.401E-02    0.248E-03
RMM:   2    -0.258736585412E+03   -0.15159E-05   -0.16078E-05  3049   0.132E-02    0.763E-04
RMM:   3    -0.258736585639E+03   -0.22702E-06   -0.36665E-06  2030   0.595E-03
   6 F= -.27231108E+03 E0= -.27231108E+03  d E =-.274890E-05  mag=    -0.0000
