 vasp.6.4.1 05Apr23 (build Jun 07 2023 15:38:11) complex                        
  
 executed on             LinuxIFC date 2023.10.20  18:47:35
 running  128 mpi-ranks, with    1 threads/rank, on    1 nodes
 distrk:  each k-point on  128 cores,    1 groups
 distr:  one band on NCORE=  32 cores,    4 groups


--------------------------------------------------------------------------------------------------------


 INCAR:
   GGA = PE
   PREC = Accu
   EDIFF = 1.e-6
   EDIFFG = -1.e-3
   ENCUT = 520.
   NELM = 100
   NELMDL = -10
   LASPH = .TRUE.
   LREAL = Auto
   LMAXMIX = 4
   ISPIN = 2
   LDIAG = .TRUE.
   LPLANE = .TRUE.
   IVDW = 12
   SIGMA = 0.03
   ISMEAR = 0
   NSW = 1000    number of steps for IOM
   IBRION = 2    ionic relax: 0-MD 1-quasi-New 2-CG
   ISIF = 2    ionic relaxation + stress tensor calcn.
   LCHARG = .FALSE.
   LWAVE = .FALSE.
   ALGO = F
   KPAR = 1
   NPAR = 4
   POTIM = 0.2

 POTCAR:    PAW_PBE Li_sv_GW 25Mar2010            
 POTCAR:    PAW_PBE P_GW 19Mar2012                
 POTCAR:    PAW_PBE S_GW 19Mar2012                
 POTCAR:    PAW_PBE Cl_GW 19Mar2012               
 -----------------------------------------------------------------------------
|                                                                             |
|           W    W    AA    RRRRR   N    N  II  N    N   GGGG   !!!           |
|           W    W   A  A   R    R  NN   N  II  NN   N  G    G  !!!           |
|           W    W  A    A  R    R  N N  N  II  N N  N  G       !!!           |
|           W WW W  AAAAAA  RRRRR   N  N N  II  N  N N  G  GGG   !            |
|           WW  WW  A    A  R   R   N   NN  II  N   NN  G    G                |
|           W    W  A    A  R    R  N    N  II  N    N   GGGG   !!!           |
|                                                                             |
|     You use a magnetic or noncollinear calculation, but did not specify     |
|     the initial magnetic moment with the MAGMOM tag. Note that a            |
|     default of 1 will be used for all atoms. This ferromagnetic setup       |
|     may break the symmetry of the crystal, in particular it may rule        |
|     out finding an antiferromagnetic solution. Thence, we recommend         |
|     setting the initial magnetic moment manually or verifying carefully     |
|     that this magnetic setup is desired.                                    |
|                                                                             |
 -----------------------------------------------------------------------------

 POTCAR:    PAW_PBE Li_sv_GW 25Mar2010            
   SHA256 =  24a6ace15a582615486b36ce4dc781b048409f4015b7684ed1273ae395fa2fdc Li_sv_GW/POTCAR       
   COPYR  = (c) Copyright 25Mar2010 Georg Kresse                                                    
   COPYR  = This file is part of the software VASP. Any use, copying, and all other rights are regul
   COPYR  = If you do not have a valid VASP license, you may not use, copy or distribute this file. 
   VRHFIN =Li: 1s2s                                                                                 
   LEXCH  = PE                                                                                      
   EATOM  =   200.9989 eV,   14.7730 Ry                                                             
                                                                                                    
   TITEL  = PAW_PBE Li_sv_GW 25Mar2010                                                              
   LULTRA =        F    use ultrasoft PP ?                                                          
   IUNSCR =        0    unscreen: 0-lin 1-nonlin 2-no                                               
   RPACOR =    0.000    partial core radius                                                         
   POMASS =    7.010; ZVAL   =    3.000    mass and valenz                                          
   RCORE  =    1.500    outmost cutoff radius                                                       
   RWIGS  =    1.600; RWIGS  =    0.847    wigner-seitz radius (au A)                               
   ENMAX  =  433.699; ENMIN  =  325.274 eV                                                          
   RCLOC  =    1.003    cutoff for local pot                                                        
   LCOR   =        T    correct aug charges                                                         
   LPAW   =        T    paw PP                                                                      
   EAUG   = 1041.699                                                                                
   RMAX   =    1.536    core radius for proj-oper                                                   
   RAUG   =    1.300    factor for augmentation sphere                                              
   RDEP   =    1.520    radius for radial grids                                                     
   RDEPT  =    1.300    core radius for aug-charge                                                  
                                                                                                    
   Atomic configuration                                                                             
    4 entries                                                                                       
     n  l   j            E        occ.                                                              
     1  0  0.50       -53.3604   2.0000                                                             
     1  0  0.50       -52.0001   0.0000                                                             
     2  1  0.50        -1.5636   1.0000                                                             
     3  2  1.50        -1.3606   0.0000                                                             
   Description                                                                                      
     l       E           TYP  RCUT    TYP  RCUT                                                     
     0    -53.3603633     23  1.200                                                                 
     0    -52.0001064     23  1.200                                                                 
     0    176.8757380     23  1.300                                                                 
     1     -1.5635925     23  1.500                                                                 
     1    108.8466080     23  1.500                                                                 
     2     81.6349560     23  1.500                                                                 
  local pseudopotential read in
  kinetic energy density of atom read in
  atomic valenz-charges read in
  non local Contribution for L=           0  read in
    real space projection operators read in
  non local Contribution for L=           0  read in
    real space projection operators read in
  non local Contribution for L=           0  read in
    real space projection operators read in
  non local Contribution for L=           1  read in
    real space projection operators read in
  non local Contribution for L=           1  read in
    real space projection operators read in
  non local Contribution for L=           2  read in
    real space projection operators read in
    PAW grid and wavefunctions read in
 
   number of l-projection  operators is LMAX  =           6
   number of lm-projection operators is LMMAX =          14
 
 POTCAR:    PAW_PBE P_GW 19Mar2012                
   SHA256 =  715c28f2291d37b61637ce89646c59f66f71c8b8d8bfba631e5feb9f7b42defe P_GW/POTCAR           
   COPYR  = (c) Copyright 19Mar2012 Georg Kresse                                                    
   COPYR  = This file is part of the software VASP. Any use, copying, and all other rights are regul
   COPYR  = If you do not have a valid VASP license, you may not use, copy or distribute this file. 
   VRHFIN =P : s2p3                                                                                 
   LEXCH  = PE                                                                                      
   EATOM  =   176.0430 eV,   12.9388 Ry                                                             
                                                                                                    
   TITEL  = PAW_PBE P_GW 19Mar2012                                                                  
   LULTRA =        F    use ultrasoft PP ?                                                          
   IUNSCR =        1    unscreen: 0-lin 1-nonlin 2-no                                               
   RPACOR =    1.400    partial core radius                                                         
   POMASS =   30.974; ZVAL   =    5.000    mass and valenz                                          
   RCORE  =    2.000    outmost cutoff radius                                                       
   RWIGS  =    1.900; RWIGS  =    1.005    wigner-seitz radius (au A)                               
   ENMAX  =  255.040; ENMIN  =  191.280 eV                                                          
   ICORE  =        3    local potential                                                             
   LCOR   =        T    correct aug charges                                                         
   LPAW   =        T    paw PP                                                                      
   EAUG   =  499.732                                                                                
   DEXC   =    0.000                                                                                
   RMAX   =    2.047    core radius for proj-oper                                                   
   RAUG   =    1.300    factor for augmentation sphere                                              
   RDEP   =    2.059    radius for radial grids                                                     
   RDEPT  =    1.900    core radius for aug-charge                                                  
                                                                                                    
   Atomic configuration                                                                             
    7 entries                                                                                       
     n  l   j            E        occ.                                                              
     1  0  0.50     -2084.0982   2.0000                                                             
     2  0  0.50      -173.9859   2.0000                                                             
     2  1  1.50      -124.4865   6.0000                                                             
     3  0  0.50       -13.9692   2.0000                                                             
     3  1  0.50        -5.5067   3.0000                                                             
     3  2  1.50        -6.8029   0.0000                                                             
     4  3  2.50        -1.3606   0.0000                                                             
   Description                                                                                      
     l       E           TYP  RCUT    TYP  RCUT                                                     
     0    -13.9691528     23  1.900                                                                 
     0    102.0436950     23  1.900                                                                 
     1     -5.5066939     23  1.900                                                                 
     1    102.0436950     23  1.900                                                                 
     2     -8.1634956     23  2.000                                                                 
     2     81.6349560     23  2.000                                                                 
     3     27.2116520     23  2.000                                                                 
  local pseudopotential read in
  partial core-charges read in
  partial kinetic energy density read in
  kinetic energy density of atom read in
  atomic valenz-charges read in
  non local Contribution for L=           0  read in
    real space projection operators read in
  non local Contribution for L=           0  read in
    real space projection operators read in
  non local Contribution for L=           1  read in
    real space projection operators read in
  non local Contribution for L=           1  read in
    real space projection operators read in
  non local Contribution for L=           2  read in
    real space projection operators read in
  non local Contribution for L=           2  read in
    real space projection operators read in
    PAW grid and wavefunctions read in
 
   number of l-projection  operators is LMAX  =           6
   number of lm-projection operators is LMMAX =          18
 
 POTCAR:    PAW_PBE S_GW 19Mar2012                
   SHA256 =  357db9cfb0783579b2eebe03197c2d807131fea8ea663b1fcfb6ce2fa75af011 S_GW/POTCAR           
   COPYR  = (c) Copyright 19Mar2012 Georg Kresse                                                    
   COPYR  = This file is part of the software VASP. Any use, copying, and all other rights are regul
   COPYR  = If you do not have a valid VASP license, you may not use, copy or distribute this file. 
   VRHFIN =S : s2p4                                                                                 
   LEXCH  = PE                                                                                      
   EATOM  =   276.8230 eV,   20.3459 Ry                                                             
                                                                                                    
   TITEL  = PAW_PBE S_GW 19Mar2012                                                                  
   LULTRA =        F    use ultrasoft PP ?                                                          
   IUNSCR =        1    unscreen: 0-lin 1-nonlin 2-no                                               
   RPACOR =    1.400    partial core radius                                                         
   POMASS =   32.066; ZVAL   =    6.000    mass and valenz                                          
   RCORE  =    1.900    outmost cutoff radius                                                       
   RWIGS  =    1.900; RWIGS  =    1.005    wigner-seitz radius (au A)                               
   ENMAX  =  258.689; ENMIN  =  194.016 eV                                                          
   ICORE  =        3    local potential                                                             
   LCOR   =        T    correct aug charges                                                         
   LPAW   =        T    paw PP                                                                      
   EAUG   =  488.319                                                                                
   DEXC   =    0.000                                                                                
   RMAX   =    1.942    core radius for proj-oper                                                   
   RAUG   =    1.300    factor for augmentation sphere                                              
   RDEP   =    1.954    radius for radial grids                                                     
   RDEPT  =    1.900    core radius for aug-charge                                                  
                                                                                                    
   Atomic configuration                                                                             
    7 entries                                                                                       
     n  l   j            E        occ.                                                              
     1  0  0.50     -2405.8406   2.0000                                                             
     2  0  0.50      -211.7007   2.0000                                                             
     2  1  1.50      -156.4958   6.0000                                                             
     3  0  0.50       -17.2562   2.0000                                                             
     3  1  0.50        -7.0085   4.0000                                                             
     3  2  1.50        -8.1635   0.0000                                                             
     4  3  2.50        -1.3606   0.0000                                                             
   Description                                                                                      
     l       E           TYP  RCUT    TYP  RCUT                                                     
     0    -17.2561639     23  1.700                                                                 
     0     88.4378690     23  1.900                                                                 
     1     -7.0085399     23  1.900                                                                 
     1     88.4378690     23  1.900                                                                 
     2    -10.8846608     23  1.900                                                                 
     2     54.4233040     23  1.900                                                                 
     3     27.2116520     23  1.800                                                                 
  local pseudopotential read in
  partial core-charges read in
  partial kinetic energy density read in
  kinetic energy density of atom read in
  atomic valenz-charges read in
  non local Contribution for L=           0  read in
    real space projection operators read in
  non local Contribution for L=           0  read in
    real space projection operators read in
  non local Contribution for L=           1  read in
    real space projection operators read in
  non local Contribution for L=           1  read in
    real space projection operators read in
  non local Contribution for L=           2  read in
    real space projection operators read in
  non local Contribution for L=           2  read in
    real space projection operators read in
    PAW grid and wavefunctions read in
 
   number of l-projection  operators is LMAX  =           6
   number of lm-projection operators is LMMAX =          18
 
 POTCAR:    PAW_PBE Cl_GW 19Mar2012               
   SHA256 =  3ef3b3169d6a9a89979f58b4cf17d927a58518fc660d8883d88cacaee8175441 Cl_GW/POTCAR          
   COPYR  = (c) Copyright 19Mar2012 Georg Kresse                                                    
   COPYR  = This file is part of the software VASP. Any use, copying, and all other rights are regul
   COPYR  = If you do not have a valid VASP license, you may not use, copy or distribute this file. 
   VRHFIN =Cl: s2p5                                                                                 
   LEXCH  = PE                                                                                      
   EATOM  =   409.7259 eV,   30.1140 Ry                                                             
                                                                                                    
   TITEL  = PAW_PBE Cl_GW 19Mar2012                                                                 
   LULTRA =        F    use ultrasoft PP ?                                                          
   IUNSCR =        1    unscreen: 0-lin 1-nonlin 2-no                                               
   RPACOR =    1.400    partial core radius                                                         
   POMASS =   35.453; ZVAL   =    7.000    mass and valenz                                          
   RCORE  =    1.900    outmost cutoff radius                                                       
   RWIGS  =    1.900; RWIGS  =    1.005    wigner-seitz radius (au A)                               
   ENMAX  =  262.472; ENMIN  =  196.854 eV                                                          
   ICORE  =        3    local potential                                                             
   LCOR   =        T    correct aug charges                                                         
   LPAW   =        T    paw PP                                                                      
   EAUG   =  456.703                                                                                
   DEXC   =    0.000                                                                                
   RMAX   =    1.945    core radius for proj-oper                                                   
   RAUG   =    1.300    factor for augmentation sphere                                              
   RDEP   =    2.020    radius for radial grids                                                     
   RDEPT  =    1.900    core radius for aug-charge                                                  
                                                                                                    
   Atomic configuration                                                                             
    7 entries                                                                                       
     n  l   j            E        occ.                                                              
     1  0  0.50     -2751.1850   2.0000                                                             
     2  0  0.50      -252.6861   2.0000                                                             
     2  1  1.50      -191.6157   6.0000                                                             
     3  0  0.50       -20.6916   2.0000                                                             
     3  1  0.50        -8.5949   5.0000                                                             
     3  2  1.50        -9.5241   0.0000                                                             
     4  3  2.50        -9.5241   0.0000                                                             
   Description                                                                                      
     l       E           TYP  RCUT    TYP  RCUT                                                     
     0    -20.6915657     23  1.700                                                                 
     0     95.2407820     23  1.800                                                                 
     1     -8.5948577     23  1.900                                                                 
     1     95.2407820     23  1.900                                                                 
     2    -10.8846608     23  1.900                                                                 
     2     54.4233040     23  1.900                                                                 
     3     27.2116520     23  1.900                                                                 
  local pseudopotential read in
  partial core-charges read in
  partial kinetic energy density read in
  kinetic energy density of atom read in
  atomic valenz-charges read in
  non local Contribution for L=           0  read in
    real space projection operators read in
  non local Contribution for L=           0  read in
    real space projection operators read in
  non local Contribution for L=           1  read in
    real space projection operators read in
  non local Contribution for L=           1  read in
    real space projection operators read in
  non local Contribution for L=           2  read in
    real space projection operators read in
  non local Contribution for L=           2  read in
    real space projection operators read in
    PAW grid and wavefunctions read in
 
   number of l-projection  operators is LMAX  =           6
   number of lm-projection operators is LMMAX =          18
 
 Optimization of the real space projectors (new method)

 maximal supplied QI-value         = 25.13
 optimisation between [QCUT,QGAM] = [ 11.56, 23.12] = [ 37.43,149.72] Ry 
 Optimized for a Real-space Cutoff    1.28 Angstroem

   l    n(q)    QCUT    max X(q) W(low)/X(q) W(high)/X(q)  e(spline) 
   0      9    11.561    87.733    0.11E-03    0.32E-04    0.56E-06
   0      9    11.561    82.800    0.11E-03    0.35E-04    0.56E-06
   0      9    11.561     2.509    0.22E-03    0.42E-04    0.79E-06
   1      8    11.561    12.580    0.94E-04    0.26E-03    0.21E-06
   1      8    11.561     1.319    0.33E-04    0.15E-03    0.19E-06
   2      8    11.561     1.993    0.36E-04    0.89E-04    0.26E-06
 Optimization of the real space projectors (new method)

 maximal supplied QI-value         = 18.90
 optimisation between [QCUT,QGAM] = [ 11.53, 23.24] = [ 37.21,151.29] Ry 
 Optimized for a Real-space Cutoff    1.21 Angstroem

   l    n(q)    QCUT    max X(q) W(low)/X(q) W(high)/X(q)  e(spline) 
   0      8    11.527     8.355    0.73E-04    0.70E-04    0.26E-07
   0      8    11.527     1.401    0.17E-03    0.17E-03    0.63E-07
   1      8    11.527     4.747    0.13E-03    0.17E-03    0.11E-06
   1      8    11.527     2.025    0.16E-03    0.18E-03    0.12E-06
   2      7    11.527     3.169    0.51E-04    0.25E-03    0.60E-07
   2      7    11.527     3.441    0.82E-04    0.22E-03    0.14E-06
 Optimization of the real space projectors (new method)

 maximal supplied QI-value         = 19.84
 optimisation between [QCUT,QGAM] = [ 11.51, 23.22] = [ 37.09,150.92] Ry 
 Optimized for a Real-space Cutoff    1.49 Angstroem

   l    n(q)    QCUT    max X(q) W(low)/X(q) W(high)/X(q)  e(spline) 
   0     10    11.508     7.541    0.34E-04    0.13E-04    0.69E-07
   0     10    11.508     1.809    0.49E-04    0.27E-04    0.14E-06
   1     10    11.508     4.107    0.27E-05    0.41E-05    0.14E-06
   1     10    11.508     2.196    0.26E-05    0.25E-05    0.22E-06
   2      9    11.508     4.265    0.18E-03    0.11E-03    0.81E-06
   2      9    11.508     1.925    0.97E-04    0.76E-04    0.47E-06
 Optimization of the real space projectors (new method)

 maximal supplied QI-value         = 19.84
 optimisation between [QCUT,QGAM] = [ 11.51, 23.22] = [ 37.09,150.92] Ry 
 Optimized for a Real-space Cutoff    1.21 Angstroem

   l    n(q)    QCUT    max X(q) W(low)/X(q) W(high)/X(q)  e(spline) 
   0      8    11.508     6.761    0.57E-04    0.57E-04    0.35E-07
   0      8    11.508     1.642    0.14E-03    0.14E-03    0.91E-07
   1      8    11.508     3.519    0.20E-04    0.72E-04    0.47E-07
   1      8    11.508     2.150    0.27E-04    0.11E-03    0.89E-07
   2      7    11.508     2.976    0.19E-03    0.33E-03    0.16E-06
   2      7    11.508     1.494    0.14E-03    0.29E-03    0.14E-06
  PAW_PBE Li_sv_GW 25Mar2010            :
 energy of atom  1       EATOM= -200.9989
 kinetic energy error for atom=    0.0127 (will be added to EATOM!!)
  PAW_PBE P_GW 19Mar2012                :
 energy of atom  2       EATOM= -176.0430
 kinetic energy error for atom=    0.0011 (will be added to EATOM!!)
  PAW_PBE S_GW 19Mar2012                :
 energy of atom  3       EATOM= -276.8230
 kinetic energy error for atom=    0.0024 (will be added to EATOM!!)
  PAW_PBE Cl_GW 19Mar2012               :
 energy of atom  4       EATOM= -409.7259
 kinetic energy error for atom=    0.0030 (will be added to EATOM!!)
 
 
 POSCAR: Li24 P4 S20 Cl4
  positions in direct lattice
  velocities in cartesian coordinates
 exchange correlation table for  LEXCH =        8
   RHO(1)=    0.500       N(1)  =     2000
   RHO(2)=  100.500       N(2)  =     4000

 VTST: version 4.1, (05/19/21)

 CHAIN: initializing optimizer
 
 OPT: Using VASP Conjugate-Gradient optimizer
 CHAIN: Read ICHAIN            0
 
 POSCAR: Li24 P4 S20 Cl4
  positions in direct lattice
  velocities in cartesian coordinates
 


--------------------------------------------------------------------------------------------------------


 ion  position               nearest neighbor table
   1  0.984  0.272  0.288-
   2  0.961  0.660  0.659-
   3  0.033  0.226  0.871-
   4  0.033  0.710  0.316-
   5  0.334  0.300  0.983-
   6  0.284  0.693  0.009-
   7  0.670  0.329  0.046-
   8  0.832  0.793  0.965-
   9  0.177  0.961  0.165-
  10  0.192  0.013  0.788-
  11  0.802  0.996  0.784-
  12  0.813  0.043  0.164-
  13  0.326  0.837  0.449-
  14  0.180  0.303  0.540-
  15  0.707  0.824  0.507-
  16  0.726  0.205  0.494-
  17  0.287  0.483  0.780-
  18  0.217  0.512  0.286-
  19  0.800  0.477  0.325-
  20  0.664  0.552  0.811-
  21  0.467  0.187  0.686-
  22  0.490  0.682  0.186-
  23  0.522  0.168  0.313-
  24  0.524  0.813  0.703-
  25  0.501  0.501  0.501-  44 2.05  42 2.05  43 2.05  41 2.06
  26  0.503  0.998  1.000-  38 2.04  39 2.05  37 2.05  40 2.06
  27  0.989  0.502  0.999-  33 2.04  34 2.05  35 2.06  36 2.07
  28  0.015  0.002  0.494-  29 2.05  30 2.05  31 2.06  32 2.06
  29  0.123  0.857  0.605-  28 2.05
  30  0.150  0.112  0.374-  28 2.05
  31  0.883  0.900  0.361-  28 2.06
  32  0.917  0.140  0.624-  28 2.06
  33  0.879  0.622  0.134-  27 2.04
  34  0.852  0.392  0.881-  27 2.05
  35  0.101  0.626  0.867-  27 2.06
  36  0.118  0.367  0.103-  27 2.07
  37  0.619  0.134  0.884-  26 2.05
  38  0.634  0.874  0.111-  26 2.04
  39  0.376  0.109  0.128-  26 2.05
  40  0.376  0.879  0.877-  26 2.06
  41  0.623  0.627  0.380-  25 2.06
  42  0.621  0.384  0.631-  25 2.05
  43  0.375  0.633  0.611-  25 2.05
  44  0.383  0.367  0.387-  25 2.05
  45  0.754  0.764  0.737-
  46  0.746  0.252  0.261-
  47  0.258  0.743  0.237-
  48  0.249  0.248  0.763-
  49  0.991  0.001  0.982-
  50  0.017  0.493  0.457-
  51  0.524  0.004  0.515-
  52  0.477  0.508  0.987-
 
  LATTYP: Found a simple cubic cell.
 ALAT       =     9.6603704995
  
  Lattice vectors:
  
 A1 = (   9.6603704995,   0.0000000000,   0.0000000000)
 A2 = (   0.0000000000,   9.6603704995,   0.0000000000)
 A3 = (   0.0000000000,   0.0000000000,   9.6603704995)


Analysis of symmetry for initial positions (statically):
=====================================================================
 Subroutine PRICEL returns:
 Original cell was already a primitive cell.
 

 Routine SETGRP: Setting up the symmetry group for a 
 simple cubic supercell.


 Subroutine GETGRP returns: Found  1 space group operations
 (whereof  1 operations were pure point group operations)
 out of a pool of 48 trial point group operations.


The static configuration has the point symmetry C_1 .


Analysis of symmetry for dynamics (positions and initial velocities):
=====================================================================
 Subroutine PRICEL returns:
 Original cell was already a primitive cell.
 

 Routine SETGRP: Setting up the symmetry group for a 
 simple cubic supercell.


 Subroutine GETGRP returns: Found  1 space group operations
 (whereof  1 operations were pure point group operations)
 out of a pool of 48 trial point group operations.


The dynamic configuration has the point symmetry C_1 .


Analysis of structural, dynamic, and magnetic symmetry:
=====================================================================
 Subroutine PRICEL returns:
 Original cell was already a primitive cell.
 

 Routine SETGRP: Setting up the symmetry group for a 
 simple cubic supercell.


 Subroutine GETGRP returns: Found  1 space group operations
 (whereof  1 operations were pure point group operations)
 out of a pool of 48 trial point group operations.


The overall configuration has the point symmetry C_1 .


 Subroutine INISYM returns: Found  1 space group operations
 (whereof  1 operations are pure point group operations),
 and found     1 'primitive' translations


----------------------------------------------------------------------------------------

                                     Primitive cell                                     

  volume of cell :     901.5324

  direct lattice vectors                    reciprocal lattice vectors
     9.660370500  0.000000000  0.000000000     0.103515698  0.000000000  0.000000000
     0.000000000  9.660370500  0.000000000     0.000000000  0.103515698  0.000000000
     0.000000000  0.000000000  9.660370500     0.000000000  0.000000000  0.103515698

  length of vectors
     9.660370500  9.660370500  9.660370500     0.103515698  0.103515698  0.103515698

  position of ions in fractional coordinates (direct lattice)
     0.983876950  0.272440874  0.288156822
     0.960710645  0.659991652  0.658978535
     0.033380504  0.226050147  0.871450969
     0.032921309  0.710354642  0.315718694
     0.333703880  0.299577678  0.983019939
     0.283632495  0.693156075  0.008530224
     0.669736740  0.329065590  0.045691185
     0.831783774  0.792623692  0.964949556
     0.176692707  0.960756043  0.164612004
     0.191879842  0.012726382  0.788178217
     0.801666863  0.995664829  0.783502405
     0.812737026  0.043194378  0.164229645
     0.325596232  0.837101251  0.449242412
     0.179522752  0.303141133  0.540027131
     0.706576607  0.823718132  0.506932641
     0.726416469  0.204713005  0.493537365
     0.286994730  0.482555924  0.780024218
     0.217477704  0.511964273  0.286237457
     0.800330841  0.476524239  0.324732413
     0.664049376  0.552293863  0.811452704
     0.467255780  0.186995272  0.686433730
     0.490126163  0.681510267  0.185817173
     0.522007116  0.167500572  0.312792247
     0.523824605  0.812859975  0.703294559
     0.500642212  0.501472235  0.501217662
     0.503185938  0.997824960  0.999620535
     0.988602687  0.502444486  0.999328165
     0.014685246  0.001912602  0.494058539
     0.122913651  0.857383289  0.604568973
     0.150470853  0.112222866  0.373976336
     0.883071501  0.900022729  0.361153656
     0.917171353  0.139996543  0.623826309
     0.878610233  0.622104652  0.134482133
     0.852261210  0.392201141  0.880640233
     0.101179082  0.626129576  0.867435210
     0.117768752  0.367441550  0.103443259
     0.618640492  0.133932704  0.883924167
     0.633840267  0.874341286  0.111346605
     0.376438019  0.109230242  0.128253482
     0.376047369  0.878749363  0.877158883
     0.622824942  0.626842506  0.380130448
     0.621244595  0.384498375  0.630827939
     0.374995517  0.633203852  0.610689596
     0.383190168  0.366700705  0.386901479
     0.754331341  0.764489531  0.736967804
     0.746302458  0.252010303  0.260674491
     0.258409821  0.742578165  0.237329184
     0.249391104  0.247575076  0.763105051
     0.990521360  0.001154130  0.981694010
     0.016859390  0.493468322  0.457184191
     0.523820606  0.003640582  0.514696455
     0.477433946  0.507671397  0.987232062

  ion indices of the primitive-cell ions
   primitive index   ion index
                 1           1
                 2           2
                 3           3
                 4           4
                 5           5
                 6           6
                 7           7
                 8           8
                 9           9
                10          10
                11          11
                12          12
                13          13
                14          14
                15          15
                16          16
                17          17
                18          18
                19          19
                20          20
                21          21
                22          22
                23          23
                24          24
                25          25
                26          26
                27          27
                28          28
                29          29
                30          30
                31          31
                32          32
                33          33
                34          34
                35          35
                36          36
                37          37
                38          38
                39          39
                40          40
                41          41
                42          42
                43          43
                44          44
                45          45
                46          46
                47          47
                48          48
                49          49
                50          50
                51          51
                52          52

----------------------------------------------------------------------------------------

 
 
 KPOINTS: Automatic mesh                          

Automatic generation of k-mesh.
 Grid dimensions read from file:
 generate k-points for:    2    2    2

 Generating k-lattice:

  Cartesian coordinates                     Fractional coordinates (reciprocal lattice)
     0.051757849  0.000000000  0.000000000     0.500000000  0.000000000  0.000000000
     0.000000000  0.051757849  0.000000000     0.000000000  0.500000000  0.000000000
     0.000000000  0.000000000  0.051757849     0.000000000  0.000000000  0.500000000

  Length of vectors
     0.051757849  0.051757849  0.051757849

  Shift w.r.t. Gamma in fractional coordinates (k-lattice)
     0.500000000  0.500000000  0.500000000

 
 Subroutine IBZKPT returns following result:
 ===========================================
 
 Found      4 irreducible k-points:
 
 Following reciprocal coordinates:
            Coordinates               Weight
  0.250000  0.250000  0.250000      2.000000
 -0.250000  0.250000  0.250000      2.000000
 -0.250000 -0.250000  0.250000      2.000000
  0.250000 -0.250000  0.250000      2.000000
 
 Following cartesian coordinates:
            Coordinates               Weight
  0.025879  0.025879  0.025879      2.000000
 -0.025879  0.025879  0.025879      2.000000
 -0.025879 -0.025879  0.025879      2.000000
  0.025879 -0.025879  0.025879      2.000000
 


--------------------------------------------------------------------------------------------------------




 Dimension of arrays:
   k-points           NKPTS =      4   k-points in BZ     NKDIM =      4   number of bands    NBANDS=    176
   number of dos      NEDOS =    301   number of ions     NIONS =     52
   non local maximal  LDIM  =      6   non local SUM 2l+1 LMDIM =     18
   total plane-waves  NPLWV = 373248
   max r-space proj   IRMAX =   5776   max aug-charges    IRDMAX=  17671
   dimension x,y,z NGX =    72 NGY =   72 NGZ =   72
   dimension x,y,z NGXF=   144 NGYF=  144 NGZF=  144
   support grid    NGXF=   144 NGYF=  144 NGZF=  144
   ions per type =              24   4  20   4
   NGX,Y,Z   is equivalent  to a cutoff of  12.39, 12.39, 12.39 a.u.
   NGXF,Y,Z  is equivalent  to a cutoff of  24.78, 24.78, 24.78 a.u.

 SYSTEM =  unknown system                          
 POSCAR =  Li24 P4 S20 Cl4                         

 Startparameter for this run:
   NWRITE =      2    write-flag & timer
   PREC   = accu      normal or accurate (medium, high low for compatibility)
   ISTART =      0    job   : 0-new  1-cont  2-samecut
   ICHARG =      2    charge: 1-file 2-atom 10-const
   ISPIN  =      2    spin polarized calculation?
   LNONCOLLINEAR =      F non collinear calculations
   LSORBIT =      F    spin-orbit coupling
   INIWAV =      1    electr: 0-lowe 1-rand  2-diag
   LASPH  =      T    aspherical Exc in radial PAW
 Electronic Relaxation 1
   ENCUT  =  520.0 eV  38.22 Ry    6.18 a.u.  17.96 17.96 17.96*2*pi/ulx,y,z
   ENINI  =  520.0     initial cutoff
   ENAUG  = 1041.7 eV  augmentation charge cutoff
   NELM   =    100;   NELMIN=  2; NELMDL=-10     # of ELM steps 
   EDIFF  = 0.1E-05   stopping-criterion for ELM
   LREAL  =      T    real-space projection
   NLSPLINE    = F    spline interpolate recip. space projectors
   LCOMPAT=      F    compatible to vasp.4.4
   GGA_COMPAT  = T    GGA compatible to vasp.4.4-vasp.4.6
   LMAXPAW     = -100 max onsite density
   LMAXMIX     =    4 max onsite mixed and CHGCAR
   VOSKOWN=      0    Vosko Wilk Nusair interpolation
   ROPT   =   -0.00025  -0.00025  -0.00025  -0.00025
 Ionic relaxation
   EDIFFG = -.1E-02   stopping-criterion for IOM
   NSW    =   1000    number of steps for IOM
   NBLOCK =      1;   KBLOCK =   1000    inner block; outer block 
   IBRION =      2    ionic relax: 0-MD 1-quasi-New 2-CG
   NFREE  =      1    steps in history (QN), initial steepest desc. (CG)
   ISIF   =      2    stress and relaxation
   IWAVPR =     11    prediction:  0-non 1-charg 2-wave 3-comb
   ISYM   =      2    0-nonsym 1-usesym 2-fastsym
   LCORR  =      T    Harris-Foulkes like correction to forces

   POTIM  = 0.2000    time-step for ionic-motion
   TEIN   =    0.0    initial temperature
   TEBEG  =    0.0;   TEEND  =   0.0 temperature during run
   SMASS  =  -3.00    Nose mass-parameter (am)
   estimated Nose-frequenzy (Omega)   =  0.10E-29 period in steps = 0.31E+47 mass=  -0.213E-26a.u.
   SCALEE = 1.0000    scale energy and forces
   NPACO  =    256;   APACO  = 10.0  distance and # of slots for P.C.
   PSTRESS=    0.0 pullay stress

  Mass of Ions in am
   POMASS =   7.01 30.97 32.07 35.45
  Ionic Valenz
   ZVAL   =   3.00  5.00  6.00  7.00
  Atomic Wigner-Seitz radii
   RWIGS  =  -1.00 -1.00 -1.00 -1.00
  virtual crystal weights 
   VCA    =   1.00  1.00  1.00  1.00
   NELECT =     240.0000    total number of electrons
   NUPDOWN=      -1.0000    fix difference up-down

 DOS related values:
   EMIN   =  10.00;   EMAX   =-10.00  energy-range for DOS
   EFERMI =   0.00;   METHOD = LEGACY      
   ISMEAR =     0;   SIGMA  =   0.03  broadening in eV -4-tet -1-fermi 0-gaus

 Electronic relaxation 2 (details)
   IALGO  =     68    algorithm
   LDIAG  =      T    sub-space diagonalisation (order eigenvalues)
   LSUBROT=      F    optimize rotation matrix (better conditioning)
   TURBO    =      0    0=normal 1=particle mesh
   IRESTART =      0    0=no restart 2=restart with 2 vectors
   NREBOOT  =      0    no. of reboots
   NMIN     =      0    reboot dimension
   EREF     =   0.00    reference energy to select bands
   IMIX   =      4    mixing-type and parameters
     AMIX     =   0.40;   BMIX     =  1.00
     AMIX_MAG =   1.60;   BMIX_MAG =  1.00
     AMIN     =   0.10
     WC   =   100.;   INIMIX=   1;  MIXPRE=   1;  MAXMIX= -45

 Intra band minimization:
   WEIMIN = 0.0010     energy-eigenvalue tresh-hold
   EBREAK =  0.14E-08  absolut break condition
   DEPER  =   0.30     relativ break condition  

   TIME   =   0.40     timestep for ELM

  volume/ion in A,a.u.               =      17.34       117.00
  Fermi-wavevector in a.u.,A,eV,Ry     =   1.053137  1.990140 15.090183  1.109097
  Thomas-Fermi vector in A             =   2.188247
 
 Write flags
   LWAVE        =      F    write WAVECAR
   LDOWNSAMPLE  =      F    k-point downsampling of WAVECAR
   LCHARG       =      F    write CHGCAR
   LVTOT        =      F    write LOCPOT, total local potential
   LVHAR        =      F    write LOCPOT, Hartree potential only
   LELF         =      F    write electronic localiz. function (ELF)
   LORBIT       =      0    0 simple, 1 ext, 2 COOP (PROOUT), +10 PAW based schemes


 Dipole corrections
   LMONO  =      F    monopole corrections only (constant potential shift)
   LDIPOL =      F    correct potential (dipole corrections)
   IDIPOL =      0    1-x, 2-y, 3-z, 4-all directions 
   EPSILON=  1.0000000 bulk dielectric constant

 Exchange correlation treatment:
   GGA     =    PE    GGA type
   LEXCH   =     8    internal setting for exchange type
   LIBXC   =     F    Libxc                    
   VOSKOWN =     0    Vosko Wilk Nusair interpolation
   LHFCALC =     F    Hartree Fock is set to
   LHFONE  =     F    Hartree Fock one center treatment
   AEXX    =    0.0000 exact exchange contribution

 Linear response parameters
   LEPSILON=     F    determine dielectric tensor
   LRPA    =     F    only Hartree local field effects (RPA)
   LNABLA  =     F    use nabla operator in PAW spheres
   LVEL    =     F    velocity operator in full k-point grid
   CSHIFT  =0.1000    complex shift for real part using Kramers Kronig
   OMEGAMAX=  -1.0    maximum frequency
   DEG_THRESHOLD= 0.2000000E-02 threshold for treating states as degnerate
   RTIME   =   -0.100 relaxation time in fs
  (WPLASMAI=    0.000 imaginary part of plasma frequency in eV, 0.658/RTIME)
   DFIELD  = 0.0000000 0.0000000 0.0000000 field for delta impulse in time
 
  Optional k-point grid parameters
   LKPOINTS_OPT  =     F    use optional k-point grid
   KPOINTS_OPT_MODE=     1    mode for optional k-point grid
 
 Orbital magnetization related:
   ORBITALMAG=     F  switch on orbital magnetization
   LCHIMAG   =     F  perturbation theory with respect to B field
   DQ        =  0.001000  dq finite difference perturbation B field
   LLRAUG    =     F  two centre corrections for induced B field
   LBONE     =     F  B-component reconstruction in AE one-centre
   LVGVCALC  =     T  calculate vGv susceptibility
   LVGVAPPL  =     F  apply vGv susceptibility instead of pGv for G=0

 Random number generation:
   RANDOM_GENERATOR = DEFAULT
   PCG_SEED         = not used


--------------------------------------------------------------------------------------------------------


 conjugate gradient relaxation of ions
 charge density and potential will be updated during run
 spin polarized calculation
 RMM-DIIS sequential band-by-band and
  variant of blocked Davidson during initial phase
 perform sub-space diagonalisation
    before iterative eigenvector-optimisation
 modified Broyden-mixing scheme, WC =      100.0
 initial mixing is a Kerker type mixing with AMIX =  0.4000 and BMIX =      1.0000
 Hartree-type preconditioning will be used
 using additional bands           56
 real space projection scheme for non local part
 use partial core corrections
 calculate Harris-corrections to forces 
   (improved forces if not selfconsistent)
 use gradient corrections 
 use of overlap-Matrix (Vanderbilt PP)
 Gauss-broadening in eV      SIGMA  =   0.03


--------------------------------------------------------------------------------------------------------


  energy-cutoff  :      520.00
  volume of cell :      901.53
      direct lattice vectors                 reciprocal lattice vectors
     9.660370500  0.000000000  0.000000000     0.103515698  0.000000000  0.000000000
     0.000000000  9.660370500  0.000000000     0.000000000  0.103515698  0.000000000
     0.000000000  0.000000000  9.660370500     0.000000000  0.000000000  0.103515698

  length of vectors
     9.660370500  9.660370500  9.660370500     0.103515698  0.103515698  0.103515698


 
 k-points in units of 2pi/SCALE and weight: Automatic mesh                          
   0.02587892  0.02587892  0.02587892       0.250
  -0.02587892  0.02587892  0.02587892       0.250
  -0.02587892 -0.02587892  0.02587892       0.250
   0.02587892 -0.02587892  0.02587892       0.250
 
 k-points in reciprocal lattice and weights: Automatic mesh                          
   0.25000000  0.25000000  0.25000000       0.250
  -0.25000000  0.25000000  0.25000000       0.250
  -0.25000000 -0.25000000  0.25000000       0.250
   0.25000000 -0.25000000  0.25000000       0.250
 
 position of ions in fractional coordinates (direct lattice) 
   0.98387695  0.27244087  0.28815682
   0.96071064  0.65999165  0.65897854
   0.03338050  0.22605015  0.87145097
   0.03292131  0.71035464  0.31571869
   0.33370388  0.29957768  0.98301994
   0.28363249  0.69315608  0.00853022
   0.66973674  0.32906559  0.04569119
   0.83178377  0.79262369  0.96494956
   0.17669271  0.96075604  0.16461200
   0.19187984  0.01272638  0.78817822
   0.80166686  0.99566483  0.78350240
   0.81273703  0.04319438  0.16422965
   0.32559623  0.83710125  0.44924241
   0.17952275  0.30314113  0.54002713
   0.70657661  0.82371813  0.50693264
   0.72641647  0.20471300  0.49353736
   0.28699473  0.48255592  0.78002422
   0.21747770  0.51196427  0.28623746
   0.80033084  0.47652424  0.32473241
   0.66404938  0.55229386  0.81145270
   0.46725578  0.18699527  0.68643373
   0.49012616  0.68151027  0.18581717
   0.52200712  0.16750057  0.31279225
   0.52382460  0.81285998  0.70329456
   0.50064221  0.50147224  0.50121766
   0.50318594  0.99782496  0.99962054
   0.98860269  0.50244449  0.99932816
   0.01468525  0.00191260  0.49405854
   0.12291365  0.85738329  0.60456897
   0.15047085  0.11222287  0.37397634
   0.88307150  0.90002273  0.36115366
   0.91717135  0.13999654  0.62382631
   0.87861023  0.62210465  0.13448213
   0.85226121  0.39220114  0.88064023
   0.10117908  0.62612958  0.86743521
   0.11776875  0.36744155  0.10344326
   0.61864049  0.13393270  0.88392417
   0.63384027  0.87434129  0.11134660
   0.37643802  0.10923024  0.12825348
   0.37604737  0.87874936  0.87715888
   0.62282494  0.62684251  0.38013045
   0.62124460  0.38449838  0.63082794
   0.37499552  0.63320385  0.61068960
   0.38319017  0.36670071  0.38690148
   0.75433134  0.76448953  0.73696780
   0.74630246  0.25201030  0.26067449
   0.25840982  0.74257816  0.23732918
   0.24939110  0.24757508  0.76310505
   0.99052136  0.00115413  0.98169401
   0.01685939  0.49346832  0.45718419
   0.52382061  0.00364058  0.51469645
   0.47743395  0.50767140  0.98723206
 
 position of ions in cartesian coordinates  (Angst):
   9.50461586  2.63187978  2.78370166
   9.28082077  6.37576388  6.36597680
   0.32246804  2.18372817  8.41853923
   0.31803205  6.86228903  3.04995956
   3.22370312  2.89403136  9.49633681
   2.73999499  6.69614450  0.08240513
   6.46990505  3.17889552  0.44139378
   8.03533943  7.65703853  9.32177022
   1.70691701  9.28125934  1.59021295
   1.85363036  0.12294157  7.61409359
   7.74439891  9.61849114  7.56892352
   7.85134079  0.41727370  1.58651922
   3.14538023  8.08670823  4.33984815
   1.73425630  2.92845566  5.21686217
   6.82579181  7.95742234  4.89715713
   7.01745223  1.97760347  4.76775380
   2.77247542  4.66166902  7.53532295
   2.10091519  4.94576456  2.76515989
   7.73149244  4.60340070  3.13703542
   6.41496300  5.33536334  7.83893376
   4.51386396  1.80644361  6.63120416
   4.73480033  6.58364168  1.79506273
   5.04278214  1.61811759  3.02168900
   5.06033976  7.85252852  6.79408601
   4.83638925  4.84440759  4.84194831
   4.86096259  9.63935881  9.65670473
   9.55026824  4.85379989  9.65388032
   0.14186492  0.01847645  4.77278853
   1.18739140  8.28264024  5.84036027
   1.45360419  1.08411446  3.61274996
   8.53079788  8.69455302  3.48887812
   8.86021508  1.35241847  6.02639328
   8.48770037  6.00976142  1.29914723
   8.23315905  3.78880833  8.50731093
   0.97742742  6.04864369  8.37974552
   1.13768977  3.54962151  0.99930021
   5.97629636  1.29383954  8.53903494
   6.12313182  8.44646077  1.07564946
   3.63653074  1.05520461  1.23897616
   3.63275691  8.48904443  8.47367980
   6.01671969  6.05553085  3.67220096
   6.00145296  3.71439676  6.09403161
   3.62259563  6.11698381  5.89948776
   3.70175899  3.54246468  3.73761163
   7.28712023  7.38525211  7.11938204
   7.20955825  2.43451290  2.51821216
   2.49633461  7.17358020  2.29268785
   2.40921047  2.39166696  7.37187753
   9.56880332  0.01114933  9.48352786
   0.16286795  4.76708682  4.41656868
   5.06030113  0.03516937  4.97215845
   4.61218881  4.90429378  9.53702749
 


--------------------------------------------------------------------------------------------------------


 k-point   1 :   0.2500 0.2500 0.2500  plane waves:   24252
 k-point   2 :  -0.2500 0.2500 0.2500  plane waves:   24252
 k-point   3 :  -0.2500-0.2500 0.2500  plane waves:   24252
 k-point   4 :   0.2500-0.2500 0.2500  plane waves:   24252

 maximum and minimum number of plane-waves per node :       778      744

 maximum number of plane-waves:     24252
 maximum index in each direction: 
   IXMAX=   18   IYMAX=   18   IZMAX=   17
   IXMIN=  -18   IYMIN=  -18   IZMIN=  -18


 real space projection operators:
  total allocation   :      28338.09 KBytes
  max/ min on nodes  :       1186.20        755.02


 parallel 3D FFT for wavefunctions:
    minimum data exchange during FFTs selected (reduces bandwidth)
 parallel 3D FFT for charge:
    minimum data exchange during FFTs selected (reduces bandwidth)


 total amount of memory used by VASP MPI-rank0    48203. kBytes
=======================================================================

   base      :      30000. kBytes
   nonlr-proj:       6543. kBytes
   fftplans  :       1747. kBytes
   grid      :       5278. kBytes
   one-center:         62. kBytes
   wavefun   :       4573. kBytes
 
     INWAV:  cpu time      0.0000: real time      0.0000
 Broyden mixing: mesh for mixing (old mesh)
   NGX = 35   NGY = 35   NGZ = 35
  (NGX  =144   NGY  =144   NGZ  =144)
  gives a total of  42875 points

 initial charge density was supplied:
 charge density of overlapping atoms calculated
 number of electron     240.0000000 magnetization      52.0000000
 keeping initial charge density in first step


--------------------------------------------------------------------------------------------------------


 Maximum index for non-local projection operator          634
 Maximum index for augmentation-charges          989 (set IRDMAX)


--------------------------------------------------------------------------------------------------------


 First call to EWALD:  gamma=   0.183
 Maximum number of real-space cells 3x 3x 3
 Maximum number of reciprocal cells 3x 3x 3

    FEWALD:  cpu time      0.0031: real time      0.0035


--------------------------------------- Ionic step        1  -------------------------------------------




--------------------------------------- Iteration      1(   1)  ---------------------------------------


    POTLOK:  cpu time      0.0577: real time      0.0851
    SETDIJ:  cpu time      0.4230: real time      0.4307
     EDDAV:  cpu time      2.2426: real time      2.4872
       DOS:  cpu time      0.0020: real time      0.0031
    --------------------------------------------
      LOOP:  cpu time      2.7253: real time      3.0062

 eigenvalue-minimisations  :  3080
 total energy-change (2. order) : 0.1590817E+04  (-0.1138123E+05)
 number of electron     240.0000000 magnetization      52.0000000
 augmentation part      240.0000000 magnetization      52.0000000

 Free energy of the ion-electron system (eV)
  ---------------------------------------------------
  alpha Z        PSCENC =       301.10675736
  Ewald energy   TEWEN  =     -8824.53044521
  -Hartree energ DENC   =     -2104.92579521
  -exchange      EXHF   =         0.00000000
  -V(xc)+E(xc)   XCENC  =       534.26196705
  PAW double counting   =      8141.38806575    -8271.61346273
  entropy T*S    EENTRO =        -0.00538629
  eigenvalues    EBANDS =      -888.00481328
  atomic energy  EATOM  =     12703.13999606
  Solvation  Ediel_sol  =         0.00000000
  ---------------------------------------------------
  free energy    TOTEN  =      1590.81688348 eV

  energy without entropy =     1590.82226978  energy(sigma->0) =     1590.81957663


--------------------------------------------------------------------------------------------------------




--------------------------------------- Iteration      1(   2)  ---------------------------------------


     EDDAV:  cpu time      2.6170: real time      2.6426
       DOS:  cpu time      0.0004: real time      0.0004
    --------------------------------------------
      LOOP:  cpu time      2.6174: real time      2.6430

 eigenvalue-minimisations  :  3840
 total energy-change (2. order) :-0.1646014E+04  (-0.1549103E+04)
 number of electron     240.0000000 magnetization      52.0000000
 augmentation part      240.0000000 magnetization      52.0000000

 Free energy of the ion-electron system (eV)
  ---------------------------------------------------
  alpha Z        PSCENC =       301.10675736
  Ewald energy   TEWEN  =     -8824.53044521
  -Hartree energ DENC   =     -2104.92579521
  -exchange      EXHF   =         0.00000000
  -V(xc)+E(xc)   XCENC  =       534.26196705
  PAW double counting   =      8141.38806575    -8271.61346273
  entropy T*S    EENTRO =        -0.00000000
  eigenvalues    EBANDS =     -2534.02427411
  atomic energy  EATOM  =     12703.13999606
  Solvation  Ediel_sol  =         0.00000000
  ---------------------------------------------------
  free energy    TOTEN  =       -55.19719105 eV

  energy without entropy =      -55.19719105  energy(sigma->0) =      -55.19719105


--------------------------------------------------------------------------------------------------------




--------------------------------------- Iteration      1(   3)  ---------------------------------------


     EDDAV:  cpu time      2.5873: real time      2.6090
       DOS:  cpu time      0.0004: real time      0.0004
    --------------------------------------------
      LOOP:  cpu time      2.5877: real time      2.6094

 eigenvalue-minimisations  :  3760
 total energy-change (2. order) :-0.1729782E+03  (-0.1709527E+03)
 number of electron     240.0000000 magnetization      52.0000000
 augmentation part      240.0000000 magnetization      52.0000000

 Free energy of the ion-electron system (eV)
  ---------------------------------------------------
  alpha Z        PSCENC =       301.10675736
  Ewald energy   TEWEN  =     -8824.53044521
  -Hartree energ DENC   =     -2104.92579521
  -exchange      EXHF   =         0.00000000
  -V(xc)+E(xc)   XCENC  =       534.26196705
  PAW double counting   =      8141.38806575    -8271.61346273
  entropy T*S    EENTRO =        -0.00000000
  eigenvalues    EBANDS =     -2707.00242430
  atomic energy  EATOM  =     12703.13999606
  Solvation  Ediel_sol  =         0.00000000
  ---------------------------------------------------
  free energy    TOTEN  =      -228.17534124 eV

  energy without entropy =     -228.17534124  energy(sigma->0) =     -228.17534124


--------------------------------------------------------------------------------------------------------




--------------------------------------- Iteration      1(   4)  ---------------------------------------


     EDDAV:  cpu time      3.1331: real time      3.1615
       DOS:  cpu time      0.0004: real time      0.0004
    --------------------------------------------
      LOOP:  cpu time      3.1335: real time      3.1619

 eigenvalue-minimisations  :  4760
 total energy-change (2. order) :-0.1350078E+02  (-0.1347739E+02)
 number of electron     240.0000000 magnetization      52.0000000
 augmentation part      240.0000000 magnetization      52.0000000

 Free energy of the ion-electron system (eV)
  ---------------------------------------------------
  alpha Z        PSCENC =       301.10675736
  Ewald energy   TEWEN  =     -8824.53044521
  -Hartree energ DENC   =     -2104.92579521
  -exchange      EXHF   =         0.00000000
  -V(xc)+E(xc)   XCENC  =       534.26196705
  PAW double counting   =      8141.38806575    -8271.61346273
  entropy T*S    EENTRO =        -0.00000000
  eigenvalues    EBANDS =     -2720.50320896
  atomic energy  EATOM  =     12703.13999606
  Solvation  Ediel_sol  =         0.00000000
  ---------------------------------------------------
  free energy    TOTEN  =      -241.67612590 eV

  energy without entropy =     -241.67612590  energy(sigma->0) =     -241.67612590


--------------------------------------------------------------------------------------------------------




--------------------------------------- Iteration      1(   5)  ---------------------------------------


     EDDAV:  cpu time      2.9148: real time      2.9400
       DOS:  cpu time      0.0005: real time      0.0005
    --------------------------------------------
      LOOP:  cpu time      2.9152: real time      2.9405

 eigenvalue-minimisations  :  4440
 total energy-change (2. order) :-0.2311615E+00  (-0.2310592E+00)
 number of electron     240.0000000 magnetization      52.0000000
 augmentation part      240.0000000 magnetization      52.0000000

 Free energy of the ion-electron system (eV)
  ---------------------------------------------------
  alpha Z        PSCENC =       301.10675736
  Ewald energy   TEWEN  =     -8824.53044521
  -Hartree energ DENC   =     -2104.92579521
  -exchange      EXHF   =         0.00000000
  -V(xc)+E(xc)   XCENC  =       534.26196705
  PAW double counting   =      8141.38806575    -8271.61346273
  entropy T*S    EENTRO =        -0.00000000
  eigenvalues    EBANDS =     -2720.73437051
  atomic energy  EATOM  =     12703.13999606
  Solvation  Ediel_sol  =         0.00000000
  ---------------------------------------------------
  free energy    TOTEN  =      -241.90728745 eV

  energy without entropy =     -241.90728745  energy(sigma->0) =     -241.90728745


--------------------------------------------------------------------------------------------------------




--------------------------------------- Iteration      1(   6)  ---------------------------------------


     EDDAV:  cpu time      3.0401: real time      3.0671
       DOS:  cpu time      0.0004: real time      0.0004
    --------------------------------------------
      LOOP:  cpu time      3.0405: real time      3.0675

 eigenvalue-minimisations  :  4672
 total energy-change (2. order) :-0.1192758E-01  (-0.1192638E-01)
 number of electron     240.0000000 magnetization      52.0000000
 augmentation part      240.0000000 magnetization      52.0000000

 Free energy of the ion-electron system (eV)
  ---------------------------------------------------
  alpha Z        PSCENC =       301.10675736
  Ewald energy   TEWEN  =     -8824.53044521
  -Hartree energ DENC   =     -2104.92579521
  -exchange      EXHF   =         0.00000000
  -V(xc)+E(xc)   XCENC  =       534.26196705
  PAW double counting   =      8141.38806575    -8271.61346273
  entropy T*S    EENTRO =        -0.00000000
  eigenvalues    EBANDS =     -2720.74629809
  atomic energy  EATOM  =     12703.13999606
  Solvation  Ediel_sol  =         0.00000000
  ---------------------------------------------------
  free energy    TOTEN  =      -241.91921503 eV

  energy without entropy =     -241.91921503  energy(sigma->0) =     -241.91921503


--------------------------------------------------------------------------------------------------------




--------------------------------------- Iteration      1(   7)  ---------------------------------------


     EDDAV:  cpu time      2.9951: real time      3.0197
       DOS:  cpu time      0.0004: real time      0.0004
    --------------------------------------------
      LOOP:  cpu time      2.9955: real time      3.0201

 eigenvalue-minimisations  :  4576
 total energy-change (2. order) :-0.3796119E-03  (-0.3795875E-03)
 number of electron     240.0000000 magnetization      52.0000000
 augmentation part      240.0000000 magnetization      52.0000000

 Free energy of the ion-electron system (eV)
  ---------------------------------------------------
  alpha Z        PSCENC =       301.10675736
  Ewald energy   TEWEN  =     -8824.53044521
  -Hartree energ DENC   =     -2104.92579521
  -exchange      EXHF   =         0.00000000
  -V(xc)+E(xc)   XCENC  =       534.26196705
  PAW double counting   =      8141.38806575    -8271.61346273
  entropy T*S    EENTRO =        -0.00000000
  eigenvalues    EBANDS =     -2720.74667770
  atomic energy  EATOM  =     12703.13999606
  Solvation  Ediel_sol  =         0.00000000
  ---------------------------------------------------
  free energy    TOTEN  =      -241.91959464 eV

  energy without entropy =     -241.91959464  energy(sigma->0) =     -241.91959464


--------------------------------------------------------------------------------------------------------




--------------------------------------- Iteration      1(   8)  ---------------------------------------


     EDDAV:  cpu time      3.0047: real time      3.0357
       DOS:  cpu time      0.0004: real time      0.0004
    --------------------------------------------
      LOOP:  cpu time      3.0051: real time      3.0361

 eigenvalue-minimisations  :  4592
 total energy-change (2. order) :-0.2197112E-04  (-0.2197012E-04)
 number of electron     240.0000000 magnetization      52.0000000
 augmentation part      240.0000000 magnetization      52.0000000

 Free energy of the ion-electron system (eV)
  ---------------------------------------------------
  alpha Z        PSCENC =       301.10675736
  Ewald energy   TEWEN  =     -8824.53044521
  -Hartree energ DENC   =     -2104.92579521
  -exchange      EXHF   =         0.00000000
  -V(xc)+E(xc)   XCENC  =       534.26196705
  PAW double counting   =      8141.38806575    -8271.61346273
  entropy T*S    EENTRO =        -0.00000000
  eigenvalues    EBANDS =     -2720.74669967
  atomic energy  EATOM  =     12703.13999606
  Solvation  Ediel_sol  =         0.00000000
  ---------------------------------------------------
  free energy    TOTEN  =      -241.91961661 eV

  energy without entropy =     -241.91961661  energy(sigma->0) =     -241.91961661


--------------------------------------------------------------------------------------------------------




--------------------------------------- Iteration      1(   9)  ---------------------------------------


     EDDAV:  cpu time      2.9322: real time      2.9561
       DOS:  cpu time      0.0004: real time      0.0004
    --------------------------------------------
      LOOP:  cpu time      2.9326: real time      2.9565

 eigenvalue-minimisations  :  4472
 total energy-change (2. order) :-0.1411838E-05  (-0.1411876E-05)
 number of electron     240.0000000 magnetization      52.0000000
 augmentation part      240.0000000 magnetization      52.0000000

 Free energy of the ion-electron system (eV)
  ---------------------------------------------------
  alpha Z        PSCENC =       301.10675736
  Ewald energy   TEWEN  =     -8824.53044521
  -Hartree energ DENC   =     -2104.92579521
  -exchange      EXHF   =         0.00000000
  -V(xc)+E(xc)   XCENC  =       534.26196705
  PAW double counting   =      8141.38806575    -8271.61346273
  entropy T*S    EENTRO =        -0.00000000
  eigenvalues    EBANDS =     -2720.74670109
  atomic energy  EATOM  =     12703.13999606
  Solvation  Ediel_sol  =         0.00000000
  ---------------------------------------------------
  free energy    TOTEN  =      -241.91961802 eV

  energy without entropy =     -241.91961802  energy(sigma->0) =     -241.91961802


--------------------------------------------------------------------------------------------------------




--------------------------------------- Iteration      1(  10)  ---------------------------------------


     EDDAV:  cpu time      1.9645: real time      1.9809
       DOS:  cpu time      0.0004: real time      0.0004
    CHARGE:  cpu time      0.0692: real time      0.0754
    MIXING:  cpu time      0.0023: real time      0.0035
    --------------------------------------------
      LOOP:  cpu time      2.0363: real time      2.0603

 eigenvalue-minimisations  :  2656
 total energy-change (2. order) :-0.6053233E-07  (-0.6064399E-07)
 number of electron     240.0000011 magnetization      27.2667525
 augmentation part        1.4889315 magnetization      27.7088613

 Broyden mixing:
  rms(total) = 0.64183E+01    rms(broyden)= 0.64177E+01
  rms(prec ) = 0.66568E+01
  weight for this iteration     100.00

 Free energy of the ion-electron system (eV)
  ---------------------------------------------------
  alpha Z        PSCENC =       301.10675736
  Ewald energy   TEWEN  =     -8824.53044521
  -Hartree energ DENC   =     -2104.92579521
  -exchange      EXHF   =         0.00000000
  -V(xc)+E(xc)   XCENC  =       534.26196705
  PAW double counting   =      8141.38806575    -8271.61346273
  entropy T*S    EENTRO =        -0.00000000
  eigenvalues    EBANDS =     -2720.74670115
  atomic energy  EATOM  =     12703.13999606
  Solvation  Ediel_sol  =         0.00000000
  ---------------------------------------------------
  free energy    TOTEN  =      -241.91961808 eV

  energy without entropy =     -241.91961808  energy(sigma->0) =     -241.91961808


--------------------------------------------------------------------------------------------------------




--------------------------------------- Iteration      1(  11)  ---------------------------------------


    POTLOK:  cpu time      0.0559: real time      0.0567
    SETDIJ:  cpu time      0.4194: real time      0.4224
    EDDIAG:  cpu time      0.3635: real time      0.3668
  RMM-DIIS:  cpu time      1.1783: real time      1.1885
    ORTHCH:  cpu time      0.0636: real time      0.0651
       DOS:  cpu time      0.0005: real time      0.0005
    CHARGE:  cpu time      0.0658: real time      0.0685
    MIXING:  cpu time      0.0011: real time      0.0031
    --------------------------------------------
      LOOP:  cpu time      2.1482: real time      2.1716

 eigenvalue-minimisations  :  2816
 total energy-change (2. order) : 0.5519493E+01  (-0.4663762E+01)
 number of electron     240.0000011 magnetization      16.3397153
 augmentation part        1.7019498 magnetization      16.5228712

 Broyden mixing:
  rms(total) = 0.33013E+01    rms(broyden)= 0.33011E+01
  rms(prec ) = 0.34153E+01
  weight for this iteration     100.00

 eigenvalues of (default mixing * dielectric matrix)
  average eigenvalue GAMMA=   0.7252
  0.7252

 Free energy of the ion-electron system (eV)
  ---------------------------------------------------
  alpha Z        PSCENC =       301.10675736
  Ewald energy   TEWEN  =     -8824.53044521
  -Hartree energ DENC   =     -2152.79376120
  -exchange      EXHF   =         0.00000000
  -V(xc)+E(xc)   XCENC  =       542.51559912
  PAW double counting   =      8928.99308839    -9065.28783182
  entropy T*S    EENTRO =        -0.00000000
  eigenvalues    EBANDS =     -2669.54352733
  atomic energy  EATOM  =     12703.13999606
  Solvation  Ediel_sol  =         0.00000000
  ---------------------------------------------------
  free energy    TOTEN  =      -236.40012464 eV

  energy without entropy =     -236.40012464  energy(sigma->0) =     -236.40012464


--------------------------------------------------------------------------------------------------------




--------------------------------------- Iteration      1(  12)  ---------------------------------------


    POTLOK:  cpu time      0.0544: real time      0.0552
    SETDIJ:  cpu time      0.4165: real time      0.4185
    EDDIAG:  cpu time      0.3602: real time      0.3622
  RMM-DIIS:  cpu time      1.2335: real time      1.2441
    ORTHCH:  cpu time      0.0635: real time      0.0644
       DOS:  cpu time      0.0005: real time      0.0005
    CHARGE:  cpu time      0.0660: real time      0.0680
    MIXING:  cpu time      0.0011: real time      0.0011
    --------------------------------------------
      LOOP:  cpu time      2.1957: real time      2.2140

 eigenvalue-minimisations  :  2949
 total energy-change (2. order) :-0.1966221E+02  (-0.2104537E+01)
 number of electron     240.0000011 magnetization       0.4929183
 augmentation part        1.8022592 magnetization       0.8329073

 Broyden mixing:
  rms(total) = 0.20213E+01    rms(broyden)= 0.20213E+01
  rms(prec ) = 0.20821E+01
  weight for this iteration     100.00

 eigenvalues of (default mixing * dielectric matrix)
  average eigenvalue GAMMA=   1.1596
  1.6480  0.6711

 Free energy of the ion-electron system (eV)
  ---------------------------------------------------
  alpha Z        PSCENC =       301.10675736
  Ewald energy   TEWEN  =     -8824.53044521
  -Hartree energ DENC   =     -2176.62138187
  -exchange      EXHF   =         0.00000000
  -V(xc)+E(xc)   XCENC  =       536.21191904
  PAW double counting   =      9281.95098787    -9421.82953115
  entropy T*S    EENTRO =        -0.00000000
  eigenvalues    EBANDS =     -2655.49063491
  atomic energy  EATOM  =     12703.13999606
  Solvation  Ediel_sol  =         0.00000000
  ---------------------------------------------------
  free energy    TOTEN  =      -256.06233282 eV

  energy without entropy =     -256.06233282  energy(sigma->0) =     -256.06233282


--------------------------------------------------------------------------------------------------------




--------------------------------------- Iteration      1(  13)  ---------------------------------------


    POTLOK:  cpu time      0.0545: real time      0.0554
    SETDIJ:  cpu time      0.4185: real time      0.4203
    EDDIAG:  cpu time      0.3614: real time      0.3639
  RMM-DIIS:  cpu time      1.2127: real time      1.2234
    ORTHCH:  cpu time      0.0640: real time      0.0650
       DOS:  cpu time      0.0005: real time      0.0005
    CHARGE:  cpu time      0.0664: real time      0.0684
    MIXING:  cpu time      0.0011: real time      0.0011
    --------------------------------------------
      LOOP:  cpu time      2.1791: real time      2.1979

 eigenvalue-minimisations  :  2901
 total energy-change (2. order) :-0.2476151E+01  (-0.8862990E+00)
 number of electron     240.0000011 magnetization      -1.8633264
 augmentation part        1.9028878 magnetization      -1.7598267

 Broyden mixing:
  rms(total) = 0.66408E+00    rms(broyden)= 0.66408E+00
  rms(prec ) = 0.69660E+00
  weight for this iteration     100.00

 eigenvalues of (default mixing * dielectric matrix)
  average eigenvalue GAMMA=   1.3034
  2.5080  0.7488  0.6532

 Free energy of the ion-electron system (eV)
  ---------------------------------------------------
  alpha Z        PSCENC =       301.10675736
  Ewald energy   TEWEN  =     -8824.53044521
  -Hartree energ DENC   =     -2204.04483262
  -exchange      EXHF   =         0.00000000
  -V(xc)+E(xc)   XCENC  =       537.77505058
  PAW double counting   =      9784.99445285    -9928.84295573
  entropy T*S    EENTRO =        -0.00000000
  eigenvalues    EBANDS =     -2628.13650706
  atomic energy  EATOM  =     12703.13999606
  Solvation  Ediel_sol  =         0.00000000
  ---------------------------------------------------
  free energy    TOTEN  =      -258.53848378 eV

  energy without entropy =     -258.53848378  energy(sigma->0) =     -258.53848378


--------------------------------------------------------------------------------------------------------




--------------------------------------- Iteration      1(  14)  ---------------------------------------


    POTLOK:  cpu time      0.0545: real time      0.0555
    SETDIJ:  cpu time      0.4176: real time      0.4192
    EDDIAG:  cpu time      0.3619: real time      0.3645
  RMM-DIIS:  cpu time      1.5756: real time      1.5894
    ORTHCH:  cpu time      0.0632: real time      0.0638
       DOS:  cpu time      0.0005: real time      0.0005
    CHARGE:  cpu time      0.0666: real time      0.0680
    MIXING:  cpu time      0.0011: real time      0.0011
    --------------------------------------------
      LOOP:  cpu time      2.5410: real time      2.5620

 eigenvalue-minimisations  :  3740
 total energy-change (2. order) :-0.1940536E+00  (-0.1927359E+00)
 number of electron     240.0000011 magnetization      -0.8733274
 augmentation part        1.8735354 magnetization      -0.8460673

 Broyden mixing:
  rms(total) = 0.32097E+00    rms(broyden)= 0.32097E+00
  rms(prec ) = 0.35516E+00
  weight for this iteration     100.00

 eigenvalues of (default mixing * dielectric matrix)
  average eigenvalue GAMMA=   1.2677
  2.6189  1.1702  0.6898  0.5919

 Free energy of the ion-electron system (eV)
  ---------------------------------------------------
  alpha Z        PSCENC =       301.10675736
  Ewald energy   TEWEN  =     -8824.53044521
  -Hartree energ DENC   =     -2205.43313873
  -exchange      EXHF   =         0.00000000
  -V(xc)+E(xc)   XCENC  =       538.21763839
  PAW double counting   =      9860.73170098   -10005.37105198
  entropy T*S    EENTRO =        -0.00000000
  eigenvalues    EBANDS =     -2626.59399424
  atomic energy  EATOM  =     12703.13999606
  Solvation  Ediel_sol  =         0.00000000
  ---------------------------------------------------
  free energy    TOTEN  =      -258.73253737 eV

  energy without entropy =     -258.73253737  energy(sigma->0) =     -258.73253737


--------------------------------------------------------------------------------------------------------




--------------------------------------- Iteration      1(  15)  ---------------------------------------


    POTLOK:  cpu time      0.0541: real time      0.0550
    SETDIJ:  cpu time      0.4168: real time      0.4190
    EDDIAG:  cpu time      0.3590: real time      0.3612
  RMM-DIIS:  cpu time      1.2904: real time      1.3019
    ORTHCH:  cpu time      0.0644: real time      0.0657
       DOS:  cpu time      0.0005: real time      0.0005
    CHARGE:  cpu time      0.0663: real time      0.0675
    MIXING:  cpu time      0.0012: real time      0.0012
    --------------------------------------------
      LOOP:  cpu time      2.2526: real time      2.2720

 eigenvalue-minimisations  :  3069
 total energy-change (2. order) : 0.2351744E-01  (-0.3287704E-01)
 number of electron     240.0000011 magnetization      -0.2373666
 augmentation part        1.8251977 magnetization      -0.2108952

 Broyden mixing:
  rms(total) = 0.68113E-01    rms(broyden)= 0.68110E-01
  rms(prec ) = 0.80556E-01
  weight for this iteration     100.00

 eigenvalues of (default mixing * dielectric matrix)
  average eigenvalue GAMMA=   1.2734
  2.5452  1.5870  0.9474  0.6851  0.6024

 Free energy of the ion-electron system (eV)
  ---------------------------------------------------
  alpha Z        PSCENC =       301.10675736
  Ewald energy   TEWEN  =     -8824.53044521
  -Hartree energ DENC   =     -2201.07091324
  -exchange      EXHF   =         0.00000000
  -V(xc)+E(xc)   XCENC  =       537.87105712
  PAW double counting   =      9832.75911308    -9977.21718106
  entropy T*S    EENTRO =        -0.00000000
  eigenvalues    EBANDS =     -2630.76740403
  atomic energy  EATOM  =     12703.13999606
  Solvation  Ediel_sol  =         0.00000000
  ---------------------------------------------------
  free energy    TOTEN  =      -258.70901993 eV

  energy without entropy =     -258.70901993  energy(sigma->0) =     -258.70901993


--------------------------------------------------------------------------------------------------------




--------------------------------------- Iteration      1(  16)  ---------------------------------------


    POTLOK:  cpu time      0.0543: real time      0.0551
    SETDIJ:  cpu time      0.4182: real time      0.4195
    EDDIAG:  cpu time      0.3597: real time      0.3617
  RMM-DIIS:  cpu time      1.3107: real time      1.3221
    ORTHCH:  cpu time      0.0649: real time      0.0656
       DOS:  cpu time      0.0005: real time      0.0005
    CHARGE:  cpu time      0.0659: real time      0.0671
    MIXING:  cpu time      0.0012: real time      0.0012
    --------------------------------------------
      LOOP:  cpu time      2.2754: real time      2.2929

 eigenvalue-minimisations  :  3088
 total energy-change (2. order) :-0.1982892E-01  (-0.1026010E-01)
 number of electron     240.0000011 magnetization      -0.1101659
 augmentation part        1.8028945 magnetization      -0.0960175

 Broyden mixing:
  rms(total) = 0.30500E-01    rms(broyden)= 0.30498E-01
  rms(prec ) = 0.36932E-01
  weight for this iteration     100.00

 eigenvalues of (default mixing * dielectric matrix)
  average eigenvalue GAMMA=   1.2514
  2.4664  1.9391  1.0370  0.6211  0.6992  0.7456

 Free energy of the ion-electron system (eV)
  ---------------------------------------------------
  alpha Z        PSCENC =       301.10675736
  Ewald energy   TEWEN  =     -8824.53044521
  -Hartree energ DENC   =     -2200.54625296
  -exchange      EXHF   =         0.00000000
  -V(xc)+E(xc)   XCENC  =       537.78605146
  PAW double counting   =      9820.91210447    -9965.14113920
  entropy T*S    EENTRO =        -0.00000000
  eigenvalues    EBANDS =     -2631.45592081
  atomic energy  EATOM  =     12703.13999606
[...]
 -0.293   0.302   0.001   0.446  -0.160  -0.044   0.004  -0.001  -0.000   0.005   0.002   0.004  -0.005  -0.001
 -0.332   0.341   0.001  -0.160   0.440   0.013  -0.001   0.003   0.000  -0.005   0.003  -0.003   0.005  -0.002
 -0.251   0.257   0.001  -0.044   0.013   0.876  -0.000   0.000   0.007  -0.004  -0.005   0.005  -0.002  -0.009
 -0.002   0.002   0.000   0.004  -0.001  -0.000   0.000  -0.000  -0.000   0.000   0.000   0.000  -0.000  -0.000
 -0.003   0.003   0.000  -0.001   0.003   0.000  -0.000   0.000   0.000  -0.000   0.000  -0.000   0.000  -0.000
 -0.002   0.001   0.000  -0.000   0.000   0.007  -0.000   0.000   0.000  -0.000  -0.000   0.000  -0.000  -0.000
 -0.006   0.006   0.000   0.005  -0.005  -0.004   0.000  -0.000  -0.000   0.000   0.000   0.000  -0.000   0.000
 -0.018   0.018   0.000   0.002   0.003  -0.005   0.000   0.000  -0.000   0.000   0.000  -0.000   0.000  -0.000
 -0.017   0.018   0.000   0.004  -0.003   0.005   0.000  -0.000   0.000   0.000  -0.000   0.000  -0.000  -0.000
  0.002  -0.002  -0.000  -0.005   0.005  -0.002  -0.000   0.000  -0.000  -0.000   0.000  -0.000   0.000   0.000
  0.028  -0.029  -0.000  -0.001  -0.002  -0.009  -0.000  -0.000  -0.000   0.000  -0.000  -0.000   0.000   0.000
 total augmentation occupancy for first ion, spin component:           2
 -0.000   0.000  -0.000  -0.000   0.000  -0.000   0.000  -0.000  -0.000  -0.000  -0.000  -0.000   0.000  -0.000
  0.000  -0.000   0.000   0.000  -0.000   0.000   0.000  -0.000   0.000   0.000  -0.000   0.000  -0.000   0.000
 -0.000   0.000   0.000   0.000   0.000  -0.000   0.000   0.000  -0.000  -0.000   0.000  -0.000   0.000  -0.000
 -0.000   0.000   0.000   0.000   0.000  -0.000  -0.000   0.000   0.000   0.000   0.000  -0.000  -0.000   0.000
  0.000  -0.000   0.000   0.000   0.000   0.000   0.000  -0.000  -0.000  -0.000  -0.000   0.000   0.000  -0.000
 -0.000   0.000  -0.000  -0.000   0.000   0.000  -0.000   0.000  -0.000   0.000  -0.000   0.000  -0.000   0.000
  0.000   0.000   0.000  -0.000   0.000  -0.000  -0.000   0.000  -0.000  -0.000  -0.000   0.000   0.000  -0.000
 -0.000  -0.000   0.000   0.000  -0.000   0.000   0.000  -0.000   0.000   0.000   0.000  -0.000  -0.000   0.000
 -0.000   0.000  -0.000   0.000  -0.000  -0.000  -0.000   0.000  -0.000  -0.000   0.000   0.000   0.000   0.000
 -0.000   0.000  -0.000   0.000  -0.000   0.000  -0.000   0.000  -0.000   0.000   0.000   0.000  -0.000   0.000
 -0.000  -0.000   0.000   0.000  -0.000  -0.000  -0.000   0.000   0.000   0.000  -0.000   0.000   0.000  -0.000
 -0.000   0.000  -0.000  -0.000   0.000   0.000   0.000  -0.000   0.000   0.000   0.000  -0.000   0.000   0.000
  0.000  -0.000   0.000  -0.000   0.000  -0.000   0.000  -0.000   0.000  -0.000   0.000   0.000  -0.000   0.000
 -0.000   0.000  -0.000   0.000  -0.000   0.000  -0.000   0.000   0.000   0.000  -0.000   0.000   0.000   0.000


------------------------ aborting loop because EDIFF is reached ----------------------------------------


    CHARGE:  cpu time      0.0656: real time      0.0666
    FORLOC:  cpu time      0.0040: real time      0.0040
    FORNL :  cpu time      0.3959: real time      0.3985
    STRESS:  cpu time      1.1956: real time      1.2030
    FORCOR:  cpu time      0.0508: real time      0.0511
    FORHAR:  cpu time      0.0087: real time      0.0088
    MIXING:  cpu time      0.0009: real time      0.0009
    OFIELD:  cpu time      0.0000: real time      0.0000

 ---------------------------------------------------------------------------------------------

         DFTD3 V3.0 Rev 1        
 Edisp (eV)  -13.57449

 E6    (eV) :    -8.3646
 E8    (eV) :    -5.2099
 % E8        : 38.38
    FORVDW:  cpu time      0.2972: real time      0.2992

  FORCE on cell =-STRESS in cart. coord.  units (eV):
  Direction    XX          YY          ZZ          XY          YZ          ZX
  --------------------------------------------------------------------------------------
  Alpha Z   301.10676   301.10676   301.10676
  Ewald   -2937.95554 -2889.57025 -2997.07219   -28.40341   -23.53371     8.52087
  Hartree   738.88653   759.11079   705.11891    -8.86771   -12.43645     1.07128
  E(xc)    -947.79047  -947.67485  -947.91994    -0.06751    -0.05084     0.01966
  Local   -1510.48455 -1571.85926 -1420.93460    34.87932    35.62232    -7.86659
  n-local  1481.64336  1481.07241  1481.91327    -0.40932    -0.36113    -0.00316
  augment  -356.93208  -356.36198  -357.23603     0.00434     0.05619     0.01795
  Kinetic  3246.02050  3236.97821  3250.83743     0.95665    -0.23041    -0.80789
  Fock        0.00000     0.00000     0.00000     0.00000     0.00000     0.00000
  vdW       -14.36047   -14.40682   -14.36103     0.00388    -0.01784     0.01392
  -------------------------------------------------------------------------------------
  Total       0.13403    -1.60500     1.45258    -1.90376    -0.95188     0.96604
  in kB       0.23819    -2.85235     2.58149    -3.38331    -1.69165     1.71683
  external pressure =       -0.01 kB  Pullay stress =        0.00 kB


 VOLUME and BASIS-vectors are now :
 -----------------------------------------------------------------------------
  energy-cutoff  :      520.00
  volume of cell :      901.53
      direct lattice vectors                 reciprocal lattice vectors
     9.660370500  0.000000000  0.000000000     0.103515698  0.000000000  0.000000000
     0.000000000  9.660370500  0.000000000     0.000000000  0.103515698  0.000000000
     0.000000000  0.000000000  9.660370500     0.000000000  0.000000000  0.103515698

  length of vectors
     9.660370500  9.660370500  9.660370500     0.103515698  0.103515698  0.103515698


 FORCES acting on ions
    electron-ion (+dipol)            ewald-force                    non-local-force                 convergence-correction
 -----------------------------------------------------------------------------------------------
   0.538E+00 0.413E+01 0.214E+00   -.123E+01 -.492E+01 -.104E+01   0.687E+00 0.793E+00 0.836E+00   0.140E-04 -.495E-04 -.532E-04
   0.297E+01 0.196E+02 0.106E+02   -.375E+01 -.180E+02 -.918E+01   0.778E+00 -.161E+01 -.137E+01   0.130E-03 0.131E-03 0.855E-04
   0.741E+01 0.380E+01 0.361E+01   -.646E+01 -.301E+01 -.446E+01   -.951E+00 -.789E+00 0.851E+00   0.184E-03 0.883E-04 0.412E-03
   0.337E+01 -.338E+01 -.665E+01   -.263E+01 0.417E+01 0.538E+01   -.744E+00 -.784E+00 0.128E+01   0.560E-05 -.133E-04 -.663E-04
   -.879E+01 -.403E+01 -.950E+01   0.781E+01 0.279E+01 0.857E+01   0.980E+00 0.124E+01 0.920E+00   -.143E-04 -.430E-04 -.410E-04
   -.997E+00 0.492E+00 0.427E+01   -.873E-01 0.708E+00 -.327E+01   0.109E+01 -.120E+01 -.993E+00   0.387E-04 0.590E-04 -.542E-04
   0.103E+02 -.103E+02 -.591E+01   -.875E+01 0.911E+01 0.665E+01   -.154E+01 0.121E+01 -.745E+00   0.341E-04 -.436E-04 -.119E-03
   -.370E+01 0.197E+01 -.831E+00   0.254E+01 -.277E+01 0.167E+00   0.116E+01 0.796E+00 0.659E+00   -.200E-03 -.481E-04 -.517E-04
   0.108E+02 -.900E-01 0.893E+01   -.915E+01 -.757E+00 -.785E+01   -.165E+01 0.844E+00 -.108E+01   0.857E-04 0.506E-04 -.106E-03
   0.394E+01 0.599E+01 -.196E+01   -.244E+01 -.546E+01 0.125E+01   -.150E+01 -.527E+00 0.715E+00   0.158E-03 0.360E-04 -.121E-03
   -.899E+00 -.557E+01 0.369E+00   0.232E+00 0.476E+01 -.140E+01   0.670E+00 0.811E+00 0.103E+01   -.144E-04 0.636E-04 0.611E-04
   -.563E+01 -.366E+01 0.528E+01   0.458E+01 0.443E+01 -.383E+01   0.105E+01 -.770E+00 -.145E+01   0.306E-04 0.311E-04 0.544E-04
   -.121E+02 -.129E+02 0.292E+01   0.107E+02 0.114E+02 -.394E+01   0.140E+01 0.145E+01 0.103E+01   0.103E-03 -.796E-04 0.172E-03
   0.596E+01 -.931E+01 -.772E+01   -.468E+01 0.825E+01 0.884E+01   -.128E+01 0.105E+01 -.111E+01   -.104E-03 -.967E-04 0.151E-03
   0.192E-02 0.125E+01 0.775E+01   0.107E+01 -.201E+01 -.720E+01   -.108E+01 0.752E+00 -.539E+00   -.437E-04 -.217E-05 0.247E-05
   0.231E+01 0.153E+01 -.774E+01   -.101E+01 -.389E+00 0.680E+01   -.130E+01 -.114E+01 0.930E+00   0.187E-03 0.308E-03 0.457E-04
   0.143E+01 -.386E+01 0.511E+01   -.229E+01 0.303E+01 -.607E+01   0.861E+00 0.817E+00 0.968E+00   -.146E-03 0.345E-04 -.949E-04
   -.814E+01 0.328E+01 0.609E+00   0.917E+01 -.236E+01 -.104E+01   -.104E+01 -.922E+00 0.430E+00   -.426E-04 0.620E-04 -.296E-04
   0.567E+01 -.151E+01 -.896E+01   -.698E+01 0.998E+00 0.812E+01   0.131E+01 0.507E+00 0.836E+00   -.343E-05 -.278E-04 -.988E-04
   0.147E+01 -.392E+01 -.690E+01   -.324E+00 0.451E+01 0.562E+01   -.115E+01 -.588E+00 0.127E+01   0.658E-05 -.736E-05 0.993E-05
   0.228E+01 0.537E+01 0.882E+01   -.328E+01 -.435E+01 -.751E+01   0.996E+00 -.102E+01 -.131E+01   -.362E-04 -.268E-04 0.111E-03
   -.911E+01 0.663E+01 0.342E+01   0.863E+01 -.569E+01 -.195E+01   0.473E+00 -.942E+00 -.147E+01   -.137E-03 -.329E-04 -.349E-04
   0.359E+01 0.724E+01 -.233E+01   -.328E+01 -.621E+01 0.104E+01   -.307E+00 -.103E+01 0.129E+01   -.883E-04 -.707E-04 -.724E-05
   0.339E+01 -.926E+00 0.139E+01   -.268E+01 0.143E-01 0.274E-01   -.707E+00 0.914E+00 -.143E+01   -.966E-04 -.538E-04 0.231E-04
   -.414E+01 0.141E+01 0.475E+01   0.408E+01 -.154E+01 -.461E+01   0.645E-01 0.126E+00 -.143E+00   -.582E-04 0.195E-04 0.138E-03
   -.171E+01 0.385E+01 -.365E+01   0.186E+01 -.377E+01 0.400E+01   -.156E+00 -.764E-01 -.349E+00   0.329E-04 -.159E-03 0.779E-04
   0.210E+01 -.250E+01 0.509E+01   -.279E+01 0.268E+01 -.540E+01   0.686E+00 -.179E+00 0.300E+00   0.436E-04 -.222E-03 0.611E-04
   0.403E+01 0.773E+00 -.658E+01   -.351E+01 -.923E+00 0.651E+01   -.518E+00 0.150E+00 0.619E-01   0.177E-03 -.225E-04 0.113E-03
   -.330E+02 0.527E+02 -.412E+02   0.356E+02 -.564E+02 0.436E+02   -.266E+01 0.367E+01 -.239E+01   0.315E-03 0.763E-04 0.118E-04
   -.629E+02 -.238E+02 0.342E+02   0.669E+02 0.256E+02 -.365E+02   -.398E+01 -.187E+01 0.235E+01   -.266E-03 -.106E-03 -.163E-03
   0.463E+02 0.292E+02 0.423E+02   -.494E+02 -.316E+02 -.458E+02   0.317E+01 0.236E+01 0.347E+01   0.273E-04 -.201E-03 0.246E-03
   0.249E+02 -.639E+02 -.421E+02   -.265E+02 0.684E+02 0.450E+02   0.159E+01 -.456E+01 -.283E+01   0.281E-03 0.377E-04 0.156E-03
   0.514E+02 -.395E+02 -.317E+02   -.547E+02 0.425E+02 0.345E+02   0.335E+01 -.295E+01 -.274E+01   -.402E-04 -.167E-03 -.396E-03
   0.411E+02 0.319E+02 0.611E+02   -.438E+02 -.344E+02 -.646E+02   0.264E+01 0.250E+01 0.349E+01   0.113E-03 -.164E-03 0.909E-05
   -.188E+02 -.469E+02 0.529E+02   0.207E+02 0.508E+02 -.562E+02   -.194E+01 -.390E+01 0.331E+01   0.294E-03 0.116E-03 -.364E-03
   -.410E+02 0.492E+02 -.254E+02   0.440E+02 -.531E+02 0.277E+02   -.305E+01 0.391E+01 -.234E+01   -.114E-03 0.149E-03 -.448E-03
   -.403E+02 -.476E+02 0.346E+02   0.431E+02 0.513E+02 -.371E+02   -.284E+01 -.376E+01 0.251E+01   0.900E-05 0.160E-03 -.285E-03
   -.284E+02 0.452E+02 -.484E+02   0.313E+02 -.484E+02 0.516E+02   -.288E+01 0.322E+01 -.324E+01   -.580E-03 0.497E-03 -.297E-03
   0.375E+02 -.307E+02 -.488E+02   -.407E+02 0.330E+02 0.521E+02   0.328E+01 -.230E+01 -.337E+01   -.250E-04 0.279E-03 -.148E-03
   0.411E+02 0.350E+02 0.341E+02   -.443E+02 -.382E+02 -.374E+02   0.315E+01 0.314E+01 0.333E+01   -.283E-03 0.522E-04 -.580E-04
   -.365E+02 -.367E+02 0.370E+02   0.396E+02 0.398E+02 -.403E+02   -.309E+01 -.313E+01 0.328E+01   -.230E-03 -.113E-03 0.793E-04
   -.571E+02 0.259E+02 -.395E+02   0.605E+02 -.279E+02 0.432E+02   -.333E+01 0.203E+01 -.364E+01   -.909E-04 0.414E-05 0.210E-03
   0.513E+02 -.340E+02 -.286E+02   -.551E+02 0.370E+02 0.308E+02   0.377E+01 -.298E+01 -.219E+01   -.772E-04 0.199E-03 0.157E-03
   0.212E+02 0.432E+02 0.448E+02   -.239E+02 -.470E+02 -.476E+02   0.269E+01 0.381E+01 0.285E+01   -.146E-04 -.309E-04 0.335E-03
   -.107E+02 0.184E+02 0.194E+01   0.110E+02 -.187E+02 -.197E+01   -.320E+00 0.275E+00 0.259E-01   -.105E-03 -.116E-03 0.259E-03
   0.128E+02 -.367E+01 0.113E+02   -.130E+02 0.373E+01 -.116E+02   0.206E+00 -.563E-01 0.338E+00   0.134E-03 0.138E-04 -.789E-04
   -.905E+01 -.143E+02 -.463E+01   0.922E+01 0.147E+02 0.488E+01   -.166E+00 -.342E+00 -.245E+00   0.185E-03 -.176E-04 -.135E-03
   0.360E+01 0.197E+01 0.164E+02   -.373E+01 -.213E+01 -.167E+02   0.128E+00 0.155E+00 0.275E+00   -.436E-04 -.110E-03 0.145E-03
   -.156E+02 0.757E+01 -.901E+01   0.160E+02 -.787E+01 0.918E+01   -.425E+00 0.298E+00 -.167E+00   0.139E-03 0.305E-03 0.145E-03
   0.143E+02 0.791E+00 -.599E+02   -.145E+02 -.918E+00 0.609E+02   0.123E+00 0.127E+00 -.973E+00   -.371E-06 -.572E-04 -.144E-03
   0.162E+02 -.244E+01 0.177E+02   -.166E+02 0.252E+01 -.179E+02   0.331E+00 -.734E-01 0.247E+00   -.735E-03 -.449E-03 0.162E-03
   -.226E+02 -.240E+01 -.160E+02   0.229E+02 0.260E+01 0.162E+02   -.310E+00 -.203E+00 -.138E+00   0.236E-03 0.171E-03 -.130E-03
 -----------------------------------------------------------------------------------------------
   0.226E+01 0.716E+00 -.262E+01   0.639E-13 0.311E-13 0.782E-13   -.227E+01 -.733E+00 0.261E+01   -.625E-03 0.414E-03 -.919E-04
 
 
 POSITION                                       TOTAL-FORCE (eV/Angst)
 -----------------------------------------------------------------------------------
      9.50461      2.63183      2.78379         0.000018     -0.000050      0.000091
      9.28079      6.37563      6.36600        -0.000105     -0.000232      0.000054
      0.32232      2.18375      8.41818        -0.000088     -0.000028     -0.000265
      0.31805      6.86231      3.05010        -0.000019      0.000008      0.000188
      3.22366      2.89393      9.49636        -0.000059      0.000001      0.000012
      2.73997      6.69619      0.08243         0.000070     -0.000140      0.000024
      6.46985      3.17897      0.44142        -0.000008      0.000037      0.000066
      8.03557      7.65698      9.32169         0.000152     -0.000059     -0.000009
      1.70680      9.28126      1.59028        -0.000197     -0.000022      0.000141
      1.85361      0.12291      7.61421        -0.000006     -0.000013      0.000171
      7.74435      9.61851      7.56890         0.000119     -0.000168      0.000097
      7.85132      0.41737      1.58634        -0.000061     -0.000033     -0.000086
      3.14532      8.08682      4.33985        -0.000104      0.000135     -0.000043
      1.73439      2.92857      5.21684         0.000240      0.000165     -0.000062
      6.82588      7.95747      4.89710        -0.000043     -0.000046      0.000007
      7.01729      1.97740      4.76772        -0.000148     -0.000137     -0.000064
      2.77256      4.66169      7.53541         0.000152     -0.000058      0.000189
      2.10090      4.94577      2.76510        -0.000018     -0.000065      0.000059
      7.73150      4.60338      3.13715         0.000026     -0.000025      0.000167
      6.41488      5.33542      7.83894        -0.000010      0.000036     -0.000009
      4.51389      1.80646      6.63123        -0.000091     -0.000047     -0.000089
      4.73479      6.58364      1.79509         0.000096      0.000035     -0.000060
      5.04277      1.61814      3.02161        -0.000017      0.000063     -0.000121
      5.06035      7.85255      6.79398         0.000058     -0.000011     -0.000011
      4.83641      4.84442      4.84192         0.000074     -0.000060     -0.000140
      4.86102      9.63925      9.65677         0.000177     -0.000066      0.000080
      9.55026      4.85373      9.65399        -0.000051      0.000334      0.000032
      0.14190      0.01850      4.77280        -0.000188     -0.000011     -0.000155
      1.18732      8.28263      5.84040         0.000002     -0.000018      0.000056
      1.45370      1.08413      3.61284        -0.000034     -0.000057      0.000194
      8.53084      8.69466      3.48880         0.000314      0.000267      0.000094
      8.86015      1.35245      6.02637        -0.000165      0.000164      0.000100
      8.48774      6.00976      1.29922         0.000212     -0.000256     -0.000058
      8.23311      3.78887      8.50732        -0.000150     -0.000009      0.000050
      0.97742      6.04863      8.37979         0.000086      0.000085     -0.000053
      1.13766      3.54956      0.99932        -0.000174     -0.000014      0.000094
      5.97629      1.29385      8.53909         0.000207      0.000143     -0.000010
      6.12320      8.44639      1.07560        -0.000386      0.000399     -0.000523
      3.63649      1.05509      1.23899         0.000012     -0.000218      0.000086
      3.63281      8.48900      8.47364        -0.000085     -0.000310     -0.000213
      6.01675      6.05557      3.67221        -0.000065     -0.000044      0.000059
      6.00148      3.71441      6.09401         0.000016     -0.000023     -0.000080
      3.62258      6.11697      5.89947        -0.000160      0.000123      0.000077
      3.70180      3.54250      3.73754         0.000169      0.000259      0.000027
      7.28713      7.38527      7.11934        -0.000002      0.000013     -0.000053
      7.20955      2.43453      2.51821        -0.000018      0.000005      0.000008
      2.49632      7.17359      2.29271        -0.000042     -0.000009      0.000055
      2.40922      2.39167      7.37186        -0.000034      0.000002     -0.000042
      9.56884      0.01114      9.48350         0.000090     -0.000016      0.000070
      0.16288      4.76708      4.41666         0.000018      0.000005     -0.000135
      5.06035      0.03523      4.97213         0.000097      0.000062     -0.000022
      4.61215      4.90427      9.53704         0.000120     -0.000095     -0.000040
 -----------------------------------------------------------------------------------
    total drift:                               -0.009144     -0.015935     -0.004851


--------------------------------------------------------------------------------------------------------



  FREE ENERGIE OF THE ION-ELECTRON SYSTEM (eV)
  ---------------------------------------------------
  free  energy   TOTEN  =      -272.31108056 eV

  energy  without entropy=     -272.31108056  energy(sigma->0) =     -272.31108056
 
 d Force = 0.7350616E-06[ 0.167E-06, 0.130E-05]  d Energy = 0.2127117E-05-0.139E-05
 d Force = 0.9223974E-02[ 0.922E-02, 0.923E-02]  d Ewald  = 0.9223974E-02-0.164E-10


--------------------------------------------------------------------------------------------------------


    POTLOK:  cpu time      0.4721: real time      0.4738


--------------------------------------------------------------------------------------------------------


 stress matrix after NEB project (eV)
      0.13403     -1.90376      0.96604
     -1.90376     -1.60500     -0.95188
      0.96604     -0.95188      1.45258
  FORCES: max atom, RMS     0.000763    0.000221
  FORCE total and by dimension    0.001597    0.000523
  Stress total and by dimension    3.953631    1.903760


--------------------------------------------------------------------------------------------------------


  
 reached required accuracy - stopping structural energy minimisation
     LOOP+:  cpu time      9.9810: real time     10.0774
    4ORBIT:  cpu time      0.0000: real time      0.0000

 total amount of memory used by VASP MPI-rank0    48203. kBytes
=======================================================================

   base      :      30000. kBytes
   nonlr-proj:       6543. kBytes
   fftplans  :       1747. kBytes
   grid      :       5278. kBytes
   one-center:         62. kBytes
   wavefun   :       4573. kBytes
 
  
  
 General timing and accounting informations for this job:
 ========================================================
  
                  Total CPU time used (sec):      108.563
                            User time (sec):      107.334
                          System time (sec):        1.229
                         Elapsed time (sec):      112.785
  
                   Maximum memory used (kb):      382556.
                   Average memory used (kb):          N/A
  
                          Minor page faults:        58215
                          Major page faults:          132
                 Voluntary context switches:         5057
