<?xml version="1.0" encoding="ISO-8859-1"?>
<modeling>
 <generator>
  <i name="program" type="string">vasp </i>
  <i name="version" type="string">6.4.1  </i>
  <i name="subversion" type="string">05Apr23 (build Jun 07 2023 15:38:11) complex                          parallel </i>
  <i name="platform" type="string">LinuxIFC </i>
  <i name="date" type="string">2023 10 20 </i>
  <i name="time" type="string">18:47:35 </i>
 </generator>
 <incar>
  <i type="string" name="PREC">Accu</i>
  <i type="string" name="ALGO">F</i>
  <i type="logical" name="LDIAG"> T  </i>
  <i type="int" name="ISPIN">     2</i>
  <i type="int" name="NELM">   100</i>
  <i type="int" name="NELMDL">   -10</i>
  <i type="int" name="IBRION">     2</i>
  <i name="EDIFF">      0.00000100</i>
  <i name="EDIFFG">     -0.00100000</i>
  <i type="int" name="NSW">  1000</i>
  <i type="int" name="ISIF">     2</i>
  <i name="ENCUT">    520.00000000</i>
  <i name="POTIM">      0.20000000</i>
  <i type="string" name="LREAL">Auto</i>
  <i type="logical" name="LPLANE"> T  </i>
  <i type="int" name="ISMEAR">     0</i>
  <i name="SIGMA">      0.03000000</i>
  <i type="int" name="LMAXMIX">     4</i>
  <i type="logical" name="LWAVE"> F  </i>
  <i type="logical" name="LCHARG"> F  </i>
  <i type="logical" name="LASPH"> T  </i>
  <i type="string" name="GGA">PE</i>
  <i type="int" name="IVDW">    12</i>
 </incar>
 <primitive_cell>
  <structure name="primitive_cell" >
   <crystal>
    <varray name="basis" >
     <v>       9.66037050       0.00000000       0.00000000 </v>
     <v>       0.00000000       9.66037050       0.00000000 </v>
     <v>       0.00000000       0.00000000       9.66037050 </v>
    </varray>
    <i name="volume">    901.53242014 </i>
    <varray name="rec_basis" >
     <v>       0.10351570       0.00000000       0.00000000 </v>
     <v>       0.00000000       0.10351570       0.00000000 </v>
     <v>       0.00000000       0.00000000       0.10351570 </v>
    </varray>
   </crystal>
   <varray name="positions" >
    <v>       0.98387695       0.27244087       0.28815682 </v>
    <v>       0.96071064       0.65999165       0.65897854 </v>
    <v>       0.03338050       0.22605015       0.87145097 </v>
    <v>       0.03292131       0.71035464       0.31571869 </v>
    <v>       0.33370388       0.29957768       0.98301994 </v>
    <v>       0.28363249       0.69315608       0.00853022 </v>
    <v>       0.66973674       0.32906559       0.04569119 </v>
    <v>       0.83178377       0.79262369       0.96494956 </v>
    <v>       0.17669271       0.96075604       0.16461200 </v>
    <v>       0.19187984       0.01272638       0.78817822 </v>
    <v>       0.80166686       0.99566483       0.78350240 </v>
    <v>       0.81273703       0.04319438       0.16422965 </v>
    <v>       0.32559623       0.83710125       0.44924241 </v>
    <v>       0.17952275       0.30314113       0.54002713 </v>
    <v>       0.70657661       0.82371813       0.50693264 </v>
    <v>       0.72641647       0.20471300       0.49353736 </v>
    <v>       0.28699473       0.48255592       0.78002422 </v>
    <v>       0.21747770       0.51196427       0.28623746 </v>
    <v>       0.80033084       0.47652424       0.32473241 </v>
    <v>       0.66404938       0.55229386       0.81145270 </v>
    <v>       0.46725578       0.18699527       0.68643373 </v>
    <v>       0.49012616       0.68151027       0.18581717 </v>
    <v>       0.52200712       0.16750057       0.31279225 </v>
    <v>       0.52382460       0.81285998       0.70329456 </v>
    <v>       0.50064221       0.50147224       0.50121766 </v>
    <v>       0.50318594       0.99782496       0.99962054 </v>
    <v>       0.98860269       0.50244449       0.99932816 </v>
    <v>       0.01468525       0.00191260       0.49405854 </v>
    <v>       0.12291365       0.85738329       0.60456897 </v>
    <v>       0.15047085       0.11222287       0.37397634 </v>
    <v>       0.88307150       0.90002273       0.36115366 </v>
    <v>       0.91717135       0.13999654       0.62382631 </v>
    <v>       0.87861023       0.62210465       0.13448213 </v>
    <v>       0.85226121       0.39220114       0.88064023 </v>
    <v>       0.10117908       0.62612958       0.86743521 </v>
    <v>       0.11776875       0.36744155       0.10344326 </v>
    <v>       0.61864049       0.13393270       0.88392417 </v>
    <v>       0.63384027       0.87434129       0.11134660 </v>
    <v>       0.37643802       0.10923024       0.12825348 </v>
    <v>       0.37604737       0.87874936       0.87715888 </v>
    <v>       0.62282494       0.62684251       0.38013045 </v>
    <v>       0.62124460       0.38449838       0.63082794 </v>
    <v>       0.37499552       0.63320385       0.61068960 </v>
    <v>       0.38319017       0.36670071       0.38690148 </v>
    <v>       0.75433134       0.76448953       0.73696780 </v>
    <v>       0.74630246       0.25201030       0.26067449 </v>
    <v>       0.25840982       0.74257816       0.23732918 </v>
    <v>       0.24939110       0.24757508       0.76310505 </v>
    <v>       0.99052136       0.00115413       0.98169401 </v>
    <v>       0.01685939       0.49346832       0.45718419 </v>
    <v>       0.52382061       0.00364058       0.51469645 </v>
    <v>       0.47743395       0.50767140       0.98723206 </v>
   </varray>
  </structure>
  <varray name="primitive_index" >
   <v type="int" >        1 </v>
   <v type="int" >        2 </v>
   <v type="int" >        3 </v>
   <v type="int" >        4 </v>
   <v type="int" >        5 </v>
   <v type="int" >        6 </v>
   <v type="int" >        7 </v>
   <v type="int" >        8 </v>
   <v type="int" >        9 </v>
   <v type="int" >       10 </v>
   <v type="int" >       11 </v>
   <v type="int" >       12 </v>
   <v type="int" >       13 </v>
   <v type="int" >       14 </v>
   <v type="int" >       15 </v>
   <v type="int" >       16 </v>
   <v type="int" >       17 </v>
   <v type="int" >       18 </v>
   <v type="int" >       19 </v>
   <v type="int" >       20 </v>
   <v type="int" >       21 </v>
   <v type="int" >       22 </v>
   <v type="int" >       23 </v>
   <v type="int" >       24 </v>
   <v type="int" >       25 </v>
   <v type="int" >       26 </v>
   <v type="int" >       27 </v>
   <v type="int" >       28 </v>
   <v type="int" >       29 </v>
   <v type="int" >       30 </v>
   <v type="int" >       31 </v>
   <v type="int" >       32 </v>
   <v type="int" >       33 </v>
   <v type="int" >       34 </v>
   <v type="int" >       35 </v>
   <v type="int" >       36 </v>
   <v type="int" >       37 </v>
   <v type="int" >       38 </v>
   <v type="int" >       39 </v>
   <v type="int" >       40 </v>
   <v type="int" >       41 </v>
   <v type="int" >       42 </v>
   <v type="int" >       43 </v>
   <v type="int" >       44 </v>
   <v type="int" >       45 </v>
   <v type="int" >       46 </v>
   <v type="int" >       47 </v>
   <v type="int" >       48 </v>
   <v type="int" >       49 </v>
   <v type="int" >       50 </v>
   <v type="int" >       51 </v>
   <v type="int" >       52 </v>
  </varray>
 </primitive_cell>
 <kpoints>
  <generation param="Monkhorst-Pack">
   <v type="int" name="divisions">       2        2        2 </v>
   <v name="usershift">      0.00000000       0.00000000       0.00000000 </v>
   <v name="genvec1">      0.50000000       0.00000000       0.00000000 </v>
   <v name="genvec2">      0.00000000       0.50000000       0.00000000 </v>
   <v name="genvec3">      0.00000000       0.00000000       0.50000000 </v>
   <v name="shift">      0.50000000       0.50000000       0.50000000 </v>
  </generation>
  <varray name="kpointlist" >
   <v>       0.25000000       0.25000000       0.25000000 </v>
   <v>      -0.25000000       0.25000000       0.25000000 </v>
   <v>      -0.25000000      -0.25000000       0.25000000 </v>
   <v>       0.25000000      -0.25000000       0.25000000 </v>
  </varray>
  <varray name="weights" >
   <v>       0.25000000 </v>
   <v>       0.25000000 </v>
   <v>       0.25000000 </v>
   <v>       0.25000000 </v>
  </varray>
 </kpoints>
 <parameters>
  <separator name="general" >
   <i type="string" name="SYSTEM">unknown system</i>
   <i type="logical" name="LCOMPAT"> F  </i>
  </separator>
  <separator name="electronic" >
   <i type="string" name="PREC">accu</i>
   <i name="ENMAX">    520.00000000</i>
   <i name="ENAUG">   1041.69900000</i>
   <i name="EDIFF">      0.00000100</i>
   <i type="int" name="IALGO">    68</i>
   <i type="int" name="IWAVPR">    11</i>
   <i type="int" name="NBANDS">   176</i>
   <i type="int" name="NBANDSLOW">    -1</i>
   <i type="int" name="NBANDSHIGH">    -1</i>
   <i name="NELECT">    240.00000000</i>
   <i type="int" name="TURBO">     0</i>
   <i type="int" name="IRESTART">     0</i>
   <i type="int" name="NREBOOT">     0</i>
   <i type="int" name="NMIN">     0</i>
   <i name="EREF">      0.00000000</i>
   <separator name="electronic smearing" >
    <i type="int" name="ISMEAR">     0</i>
    <i name="SIGMA">      0.03000000</i>
    <i name="KSPACING">      0.50000000</i>
    <i type="logical" name="KGAMMA"> T  </i>
    <i type="logical" name="KBLOWUP"> T  </i>
   </separator>
   <separator name="electronic projectors" >
    <i type="logical" name="LREAL"> T  </i>
    <v name="ROPT">     -0.00025000     -0.00025000     -0.00025000     -0.00025000</v>
    <i type="int" name="LMAXPAW">  -100</i>
    <i type="int" name="LMAXMIX">     4</i>
    <i type="logical" name="NLSPLINE"> F  </i>
   </separator>
   <separator name="electronic startup" >
    <i type="int" name="ISTART">     0</i>
    <i type="int" name="ICHARG">     2</i>
    <i type="int" name="INIWAV">     1</i>
   </separator>
   <separator name="electronic spin" >
    <i type="int" name="ISPIN">     2</i>
    <i type="logical" name="LNONCOLLINEAR"> F  </i>
    <v name="MAGMOM">      1.00000000      1.00000000      1.00000000      1.00000000      1.00000000      1.00000000      1.00000000      1.00000000      1.00000000      1.00000000      1.00000000      1.00000000      1.00000000      1.00000000      1.00000000      1.00000000      1.00000000      1.00000000      1.00000000      1.00000000
      1.00000000      1.00000000      1.00000000      1.00000000      1.00000000      1.00000000      1.00000000      1.00000000      1.00000000      1.00000000      1.00000000      1.00000000      1.00000000      1.00000000      1.00000000      1.00000000      1.00000000      1.00000000      1.00000000      1.00000000
      1.00000000      1.00000000      1.00000000      1.00000000      1.00000000      1.00000000      1.00000000      1.00000000      1.00000000      1.00000000      1.00000000      1.00000000</v>
    <i name="NUPDOWN">     -1.00000000</i>
    <i type="logical" name="LSORBIT"> F  </i>
    <v name="SAXIS">      0.00000000      0.00000000      1.00000000</v>
    <i type="logical" name="LSPIRAL"> F  </i>
    <v name="QSPIRAL">      0.00000000      0.00000000      0.00000000</v>
    <i type="logical" name="LZEROZ"> F  </i>
   </separator>
   <separator name="electronic exchange-correlation" >
    <i type="logical" name="LASPH"> T  </i>
    <i type="logical" name="LMETAGGA"> F  </i>
   </separator>
   <separator name="electronic convergence" >
    <i type="int" name="NELM">   100</i>
    <i type="int" name="NELMDL">   -10</i>
    <i type="int" name="NELMIN">     2</i>
    <i name="ENINI">    520.00000000</i>
    <separator name="electronic convergence detail" >
     <i type="logical" name="LDIAG"> T  </i>
     <i type="logical" name="LSUBROT"> F  </i>
     <i name="WEIMIN">      0.00100000</i>
     <i name="EBREAK">      0.00000000</i>
     <i name="DEPER">      0.30000000</i>
     <i type="int" name="NRMM">     4</i>
     <i name="TIME">      0.40000000</i>
    </separator>
   </separator>
   <separator name="electronic mixer" >
    <i name="AMIX">      0.40000000</i>
    <i name="BMIX">      1.00000000</i>
    <i name="AMIN">      0.10000000</i>
    <i name="AMIX_MAG">      1.60000000</i>
    <i name="BMIX_MAG">      1.00000000</i>
    <separator name="electronic mixer details" >
     <i type="int" name="IMIX">     4</i>
     <i type="logical" name="MIXFIRST"> F  </i>
     <i type="int" name="MAXMIX">   -45</i>
     <i name="WC">    100.00000000</i>
     <i type="int" name="INIMIX">     1</i>
     <i type="int" name="MIXPRE">     1</i>
     <i type="int" name="MREMOVE">     5</i>
    </separator>
   </separator>
   <separator name="electronic dipolcorrection" >
    <i type="logical" name="LDIPOL"> F  </i>
    <i type="logical" name="LMONO"> F  </i>
    <i type="int" name="IDIPOL">     0</i>
    <i name="EPSILON">      1.00000000</i>
    <v name="DIPOL">   -100.00000000   -100.00000000   -100.00000000</v>
    <i name="EFIELD">      0.00000000</i>
   </separator>
  </separator>
  <separator name="grids" >
   <i type="int" name="NGX">    72</i>
   <i type="int" name="NGY">    72</i>
   <i type="int" name="NGZ">    72</i>
   <i type="int" name="NGXF">   144</i>
   <i type="int" name="NGYF">   144</i>
   <i type="int" name="NGZF">   144</i>
   <i type="logical" name="ADDGRID"> F  </i>
  </separator>
  <separator name="ionic" >
   <i type="int" name="NSW">  1000</i>
   <i type="int" name="IBRION">     2</i>
   <i type="int" name="MDALGO">     0</i>
   <i type="int" name="ISIF">     2</i>
   <i name="PSTRESS">      0.00000000</i>
   <i name="EDIFFG">     -0.00100000</i>
   <i type="int" name="NFREE">     1</i>
   <i name="POTIM">      0.20000000</i>
   <i name="SMASS">     -3.00000000</i>
   <i name="SCALEE">      1.00000000</i>
  </separator>
  <separator name="ionic md" >
   <i name="TEBEG">      0.00010000</i>
   <i name="TEEND">      0.00010000</i>
   <i type="int" name="NBLOCK">     1</i>
   <i type="int" name="KBLOCK">  1000</i>
   <i type="int" name="NPACO">   256</i>
   <i name="APACO">     10.00000000</i>
  </separator>
  <separator name="symmetry" >
   <i type="int" name="ISYM">     2</i>
   <i name="SYMPREC">      0.00001000</i>
  </separator>
  <separator name="dos" >
   <i type="int" name="LORBIT">     0</i>
   <v name="RWIGS">     -1.00000000     -1.00000000     -1.00000000     -1.00000000</v>
   <i type="int" name="NEDOS">   301</i>
   <i name="EMIN">     10.00000000</i>
   <i name="EMAX">    -10.00000000</i>
   <i name="EFERMI">      0.00000000</i>
  </separator>
  <separator name="writing" >
   <i type="int" name="NWRITE">     2</i>
   <i type="logical" name="LWAVE"> F  </i>
   <i type="logical" name="LDOWNSAMPLE"> F  </i>
   <i type="logical" name="LCHARG"> F  </i>
   <i type="logical" name="LPARD"> F  </i>
   <i type="logical" name="LVTOT"> F  </i>
   <i type="logical" name="LVHAR"> F  </i>
   <i type="logical" name="LELF"> F  </i>
   <i type="logical" name="LOPTICS"> F  </i>
   <v name="STM">      0.00000000      0.00000000      0.00000000      0.00000000      0.00000000      0.00000000      0.00000000</v>
  </separator>
  <separator name="performance" >
   <i type="int" name="NPAR">     4</i>
   <i type="int" name="NSIM">     4</i>
   <i type="int" name="NBLK">    -1</i>
   <i type="logical" name="LPLANE"> T  </i>
   <i type="logical" name="LSCALAPACK"> T  </i>
   <i type="logical" name="LSCAAWARE"> F  </i>
   <i type="logical" name="LSCALU"> F  </i>
   <i type="logical" name="LASYNC"> F  </i>
   <i type="logical" name="LORBITALREAL"> F  </i>
  </separator>
  <separator name="miscellaneous" >
   <i type="int" name="IDIOT">     3</i>
   <i type="int" name="PHON_NSTRUCT">    -1</i>
   <i type="logical" name="LMUSIC"> F  </i>
   <v name="POMASS">      7.01000000     30.97400000     32.06600000     35.45300000</v>
   <v name="DARWINR">      0.00000000      0.00000000      0.00000000      0.00000000</v>
   <v name="DARWINV">      1.00000000      1.00000000      1.00000000      1.00000000</v>
   <i type="logical" name="LCORR"> T  </i>
  </separator>
  <i type="logical" name="GGA_COMPAT"> T  </i>
  <i type="logical" name="LBERRY"> F  </i>
  <i type="int" name="ICORELEVEL">     0</i>
  <i type="logical" name="LDAU"> F  </i>
  <i type="int" name="I_CONSTRAINED_M">     0</i>
  <separator name="electronic exchange-correlation" >
   <i type="string" name="GGA">PE</i>
   <i type="int" name="VOSKOWN">     0</i>
   <i type="logical" name="LHFCALC"> F  </i>
   <i type="string" name="PRECFOCK"></i>
   <i type="logical" name="LSYMGRAD"> F  </i>
   <i type="logical" name="LHFONE"> F  </i>
   <i type="logical" name="LRHFCALC"> F  </i>
   <i type="logical" name="LTHOMAS"> F  </i>
   <i type="logical" name="LMODELHF"> F  </i>
   <i type="logical" name="LFOCKACE"> F  </i>
   <i name="ENCUT4O">     -1.00000000</i>
   <i type="int" name="EXXOEP">     0</i>
   <i type="int" name="FOURORBIT">     0</i>
   <i name="AEXX">      0.00000000</i>
   <i name="HFALPHA">      0.00000000</i>
   <i name="MCALPHA">      0.00000000</i>
   <i name="ALDAX">      1.00000000</i>
   <i name="AGGAX">      1.00000000</i>
   <i name="ALDAC">      1.00000000</i>
   <i name="AGGAC">      1.00000000</i>
   <i type="int" name="NKREDX">     1</i>
   <i type="int" name="NKREDY">     1</i>
   <i type="int" name="NKREDZ">     1</i>
   <i type="logical" name="SHIFTRED"> F  </i>
   <i type="logical" name="ODDONLY"> F  </i>
   <i type="logical" name="EVENONLY"> F  </i>
   <i type="int" name="LMAXFOCK">     0</i>
   <i type="int" name="NMAXFOCKAE">     0</i>
   <i type="logical" name="LFOCKAEDFT"> F  </i>
   <i name="HFSCREEN">      0.00000000</i>
   <i name="HFSCREENC">      0.00000000</i>
   <i type="int" name="NBANDSGWLOW">     0</i>
  </separator>
  <separator name="vdW DFT" >
   <i type="logical" name="LUSE_VDW"> F  </i>
   <i type="int" name="IVDW_NL">     1</i>
   <i type="logical" name="LSPIN_VDW"> F  </i>
   <i name="Zab_VDW">     -0.84910000</i>
   <i name="PARAM1">      0.12340000</i>
   <i name="PARAM2">      1.00000000</i>
   <i name="PARAM3">      0.00000000</i>
  </separator>
  <separator name="model GW" >
   <i type="int" name="MODEL_GW">     0</i>
   <i name="MODEL_EPS0">     10.40229716</i>
   <i name="MODEL_ALPHA">      1.00000000</i>
  </separator>
  <separator name="linear response parameters" >
   <i type="logical" name="LEPSILON"> F  </i>
   <i type="logical" name="LRPA"> F  </i>
   <i type="logical" name="LNABLA"> F  </i>
   <i type="logical" name="LVEL"> F  </i>
   <i name="CSHIFT">      0.10000000</i>
   <i name="OMEGAMAX">     -1.00000000</i>
   <i name="DEG_THRESHOLD">      0.00200000</i>
   <i name="RTIME">     -0.10000000</i>
   <i name="WPLASMAI">      0.00000000</i>
   <v name="DFIELD">      0.00000000      0.00000000      0.00000000</v>
   <v name="WPLASMA">      0.00000000      0.00000000      0.00000000      0.00000000      0.00000000      0.00000000      0.00000000      0.00000000      0.00000000</v>
  </separator>
  <separator name="orbital magnetization" >
   <i type="logical" name="NUCIND"> F  </i>
   <v name="MAGPOS">      0.00000000      0.00000000      0.00000000</v>
   <i type="logical" name="LNICSALL"> T  </i>
   <i type="logical" name="ORBITALMAG"> F  </i>
   <i type="logical" name="LMAGBLOCH"> F  </i>
   <i type="logical" name="LCHIMAG"> F  </i>
   <i type="logical" name="LGAUGE"> T  </i>
   <i type="int" name="MAGATOM">     0</i>
   <v name="MAGDIPOL">      0.00000000      0.00000000      0.00000000</v>
   <v name="AVECCONST">      0.00000000      0.00000000      0.00000000</v>
  </separator>
  <separator name="response functions" >
   <i type="logical" name="LALL_IN_ONE"> F  </i>
   <i type="int" name="IALL_IN_ONE">    -1</i>
   <i type="int" name="NBANDS_WAVE">    -1</i>
   <i type="logical" name="LFINITE_TEMPERATURE"> F  </i>
   <i type="logical" name="LADDER"> F  </i>
   <i type="logical" name="LRPAFORCE"> F  </i>
   <i type="logical" name="LFXC"> F  </i>
   <i type="logical" name="LHARTREE"> T  </i>
   <i type="int" name="IBSE">     0</i>
   <v type="int" name="KPOINT">    -1     0     0     0</v>
   <i type="logical" name="LTCTC"> F  </i>
   <i type="logical" name="LTCTE"> F  </i>
   <i type="logical" name="LTETE"> F  </i>
   <i type="logical" name="LTRIPLET"> F  </i>
   <i type="logical" name="LFXCEPS"> F  </i>
   <i type="logical" name="LFXHEG"> F  </i>
   <i type="int" name="NATURALO">     2</i>
   <i type="logical" name="LHOLEGF"> F  </i>
   <i type="logical" name="L2ORDER"> F  </i>
   <i type="logical" name="LDMP1"> F  </i>
   <i type="logical" name="LMP2LT"> F  </i>
   <i type="logical" name="LSMP2LT"> F  </i>
   <i type="logical" name="LGWLF"> F  </i>
   <i name="ENCUTGW">     -1.60000002</i>
   <i name="ENCUTGWSOFT">     -1.60000002</i>
   <i name="ENCUTLF">     -1.00000000</i>
   <i type="logical" name="LESF_SPLINES"> F  </i>
   <i type="int" name="LMAXMP2">    -1</i>
   <i name="SCISSOR">      0.00000000</i>
   <i type="int" name="NOMEGA">     0</i>
   <i type="int" name="NOMEGAR">     0</i>
   <i type="int" name="NBANDSGW">    -1</i>
   <i type="int" name="NBANDSO">    -1</i>
   <i type="int" name="NBANDSV">    -1</i>
   <i type="int" name="NELMGW">     1</i>
   <i type="int" name="NELMHF">     1</i>
   <i type="int" name="DIM">     3</i>
   <i type="int" name="IESPILON">     4</i>
   <i type="int" name="ANTIRES">     0</i>
   <i name="OMEGAMAX">    -30.00000000</i>
   <i name="OMEGAMIN">    -30.00000000</i>
   <i name="OMEGATL">   -200.00000000</i>
   <i type="int" name="OMEGAGRID">     0</i>
   <i name="CSHIFT">     -0.10000000</i>
   <i type="logical" name="LSELFENERGY"> F  </i>
   <i type="logical" name="LSPECTRAL"> F  </i>
   <i type="logical" name="LSPECTRALGW"> F  </i>
   <i type="logical" name="LSINGLES"> F  </i>
   <i type="logical" name="LFERMIGW"> F  </i>
   <i type="logical" name="ODDONLYGW"> F  </i>
   <i type="logical" name="EVENONLYGW"> F  </i>
   <i type="int" name="NKREDLFX">     1</i>
   <i type="int" name="NKREDLFY">     1</i>
   <i type="int" name="NKREDLFZ">     1</i>
   <i type="int" name="MAXMEM">  2800</i>
   <i type="int" name="TELESCOPE">     0</i>
   <i type="int" name="NTAUPAR">    -1</i>
   <i type="int" name="NOMEGAPAR">    -1</i>
   <i name="DAMP_NEWTON">      0.80000001</i>
   <i name="LAMBDA">      1.00000000</i>
  </separator>
  <separator name="External order field" >
   <i name="OFIELD_KAPPA">      0.00000000</i>
   <v name="OFIELD_K">      0.00000000      0.00000000      0.00000000</v>
   <i name="OFIELD_Q6_NEAR">      0.00000000</i>
   <i name="OFIELD_Q6_FAR">      0.00000000</i>
   <i name="OFIELD_A">      0.00000000</i>
  </separator>
  <separator name="optional k-points parameters" >
   <i type="int" name="KPOINTS_OPT_MODE">     1</i>
   <i type="logical" name="LKPOINTS_OPT"> F  </i>
  </separator>
 </parameters>
 <atominfo>
  <atoms>      52 </atoms>
  <types>       4 </types>
  <array name="atoms" >
   <dimension dim="1">ion</dimension>
   <field type="string">element</field>
   <field type="int">atomtype</field>
   <set>
    <rc><c>Li</c><c>   1</c></rc>
    <rc><c>Li</c><c>   1</c></rc>
    <rc><c>Li</c><c>   1</c></rc>
    <rc><c>Li</c><c>   1</c></rc>
    <rc><c>Li</c><c>   1</c></rc>
    <rc><c>Li</c><c>   1</c></rc>
    <rc><c>Li</c><c>   1</c></rc>
    <rc><c>Li</c><c>   1</c></rc>
    <rc><c>Li</c><c>   1</c></rc>
    <rc><c>Li</c><c>   1</c></rc>
    <rc><c>Li</c><c>   1</c></rc>
    <rc><c>Li</c><c>   1</c></rc>
    <rc><c>Li</c><c>   1</c></rc>
    <rc><c>Li</c><c>   1</c></rc>
    <rc><c>Li</c><c>   1</c></rc>
    <rc><c>Li</c><c>   1</c></rc>
    <rc><c>Li</c><c>   1</c></rc>
    <rc><c>Li</c><c>   1</c></rc>
    <rc><c>Li</c><c>   1</c></rc>
    <rc><c>Li</c><c>   1</c></rc>
    <rc><c>Li</c><c>   1</c></rc>
    <rc><c>Li</c><c>   1</c></rc>
    <rc><c>Li</c><c>   1</c></rc>
    <rc><c>Li</c><c>   1</c></rc>
    <rc><c>P </c><c>   2</c></rc>
    <rc><c>P </c><c>   2</c></rc>
    <rc><c>P </c><c>   2</c></rc>
    <rc><c>P </c><c>   2</c></rc>
    <rc><c>S </c><c>   3</c></rc>
    <rc><c>S </c><c>   3</c></rc>
    <rc><c>S </c><c>   3</c></rc>
    <rc><c>S </c><c>   3</c></rc>
    <rc><c>S </c><c>   3</c></rc>
    <rc><c>S </c><c>   3</c></rc>
    <rc><c>S </c><c>   3</c></rc>
    <rc><c>S </c><c>   3</c></rc>
    <rc><c>S </c><c>   3</c></rc>
    <rc><c>S </c><c>   3</c></rc>
    <rc><c>S </c><c>   3</c></rc>
    <rc><c>S </c><c>   3</c></rc>
    <rc><c>S </c><c>   3</c></rc>
    <rc><c>S </c><c>   3</c></rc>
    <rc><c>S </c><c>   3</c></rc>
    <rc><c>S </c><c>   3</c></rc>
    <rc><c>S </c><c>   3</c></rc>
    <rc><c>S </c><c>   3</c></rc>
    <rc><c>S </c><c>   3</c></rc>
    <rc><c>S </c><c>   3</c></rc>
    <rc><c>Cl</c><c>   4</c></rc>
    <rc><c>Cl</c><c>   4</c></rc>
    <rc><c>Cl</c><c>   4</c></rc>
    <rc><c>Cl</c><c>   4</c></rc>
   </set>
  </array>
  <array name="atomtypes" >
   <dimension dim="1">type</dimension>
   <field type="int">atomspertype</field>
   <field type="string">element</field>
   <field>mass</field>
   <field>valence</field>
   <field type="string">pseudopotential</field>
   <set>
    <rc><c>  24</c><c>Li</c><c>      7.01000000</c><c>      3.00000000</c><c>  PAW_PBE Li_sv_GW 25Mar2010            </c></rc>
    <rc><c>   4</c><c>P </c><c>     30.97400000</c><c>      5.00000000</c><c>  PAW_PBE P_GW 19Mar2012                </c></rc>
    <rc><c>  20</c><c>S </c><c>     32.06600000</c><c>      6.00000000</c><c>  PAW_PBE S_GW 19Mar2012                </c></rc>
    <rc><c>   4</c><c>Cl</c><c>     35.45300000</c><c>      7.00000000</c><c>  PAW_PBE Cl_GW 19Mar2012               </c></rc>
   </set>
  </array>
 </atominfo>
 <structure name="initialpos" >
  <crystal>
   <varray name="basis" >
    <v>       9.66037050       0.00000000       0.00000000 </v>
    <v>       0.00000000       9.66037050       0.00000000 </v>
    <v>       0.00000000       0.00000000       9.66037050 </v>
   </varray>
   <i name="volume">    901.53242014 </i>
   <varray name="rec_basis" >
    <v>       0.10351570       0.00000000       0.00000000 </v>
    <v>       0.00000000       0.10351570       0.00000000 </v>
    <v>       0.00000000       0.00000000       0.10351570 </v>
   </varray>
  </crystal>
  <varray name="positions" >
   <v>       0.98387695       0.27244087       0.28815682 </v>
   <v>       0.96071064       0.65999165       0.65897854 </v>
   <v>       0.03338050       0.22605015       0.87145097 </v>
   <v>       0.03292131       0.71035464       0.31571869 </v>
   <v>       0.33370388       0.29957768       0.98301994 </v>
   <v>       0.28363249       0.69315608       0.00853022 </v>
   <v>       0.66973674       0.32906559       0.04569119 </v>
   <v>       0.83178377       0.79262369       0.96494956 </v>
   <v>       0.17669271       0.96075604       0.16461200 </v>
   <v>       0.19187984       0.01272638       0.78817822 </v>
   <v>       0.80166686       0.99566483       0.78350240 </v>
   <v>       0.81273703       0.04319438       0.16422965 </v>
   <v>       0.32559623       0.83710125       0.44924241 </v>
   <v>       0.17952275       0.30314113       0.54002713 </v>
   <v>       0.70657661       0.82371813       0.50693264 </v>
   <v>       0.72641647       0.20471300       0.49353736 </v>
   <v>       0.28699473       0.48255592       0.78002422 </v>
   <v>       0.21747770       0.51196427       0.28623746 </v>
   <v>       0.80033084       0.47652424       0.32473241 </v>
   <v>       0.66404938       0.55229386       0.81145270 </v>
   <v>       0.46725578       0.18699527       0.68643373 </v>
   <v>       0.49012616       0.68151027       0.18581717 </v>
   <v>       0.52200712       0.16750057       0.31279225 </v>
   <v>       0.52382460       0.81285998       0.70329456 </v>
   <v>       0.50064221       0.50147224       0.50121766 </v>
   <v>       0.50318594       0.99782496       0.99962054 </v>
   <v>       0.98860269       0.50244449       0.99932816 </v>
   <v>       0.01468525       0.00191260       0.49405854 </v>
   <v>       0.12291365       0.85738329       0.60456897 </v>
   <v>       0.15047085       0.11222287       0.37397634 </v>
   <v>       0.88307150       0.90002273       0.36115366 </v>
   <v>       0.91717135       0.13999654       0.62382631 </v>
   <v>       0.87861023       0.62210465       0.13448213 </v>
   <v>       0.85226121       0.39220114       0.88064023 </v>
   <v>       0.10117908       0.62612958       0.86743521 </v>
   <v>       0.11776875       0.36744155       0.10344326 </v>
   <v>       0.61864049       0.13393270       0.88392417 </v>
   <v>       0.63384027       0.87434129       0.11134660 </v>
   <v>       0.37643802       0.10923024       0.12825348 </v>
   <v>       0.37604737       0.87874936       0.87715888 </v>
   <v>       0.62282494       0.62684251       0.38013045 </v>
   <v>       0.62124460       0.38449838       0.63082794 </v>
   <v>       0.37499552       0.63320385       0.61068960 </v>
   <v>       0.38319017       0.36670071       0.38690148 </v>
   <v>       0.75433134       0.76448953       0.73696780 </v>
   <v>       0.74630246       0.25201030       0.26067449 </v>
   <v>       0.25840982       0.74257816       0.23732918 </v>
   <v>       0.24939110       0.24757508       0.76310505 </v>
   <v>       0.99052136       0.00115413       0.98169401 </v>
   <v>       0.01685939       0.49346832       0.45718419 </v>
   <v>       0.52382061       0.00364058       0.51469645 </v>
   <v>       0.47743395       0.50767140       0.98723206 </v>
  </varray>
 </structure>
 <calculation>
  <scstep>
   <time name="dav">    2.24    2.49</time>
   <time name="total">    2.73    3.01</time>
   <energy>
    <i name="alphaZ">    301.10675736 </i>
    <i name="ewald">  -8824.53044521 </i>
    <i name="hartreedc">  -2104.92579521 </i>
    <i name="XCdc">    534.26196705 </i>
    <i name="pawpsdc">   8141.38806575 </i>
    <i name="pawaedc">  -8271.61346273 </i>
    <i name="eentropy">     -0.00538629 </i>
    <i name="bandstr">   -888.00481328 </i>
    <i name="atom">  12703.13999606 </i>
    <i name="e_fr_energy">   1590.81688348 </i>
    <i name="e_wo_entrp">   1590.82226978 </i>
    <i name="e_0_energy">   1590.81957663 </i>
   </energy>
  </scstep>
  <scstep>
   <time name="dav">    2.62    2.64</time>
   <time name="total">    2.62    2.64</time>
   <energy>
    <i name="e_fr_energy">    -55.19719105 </i>
    <i name="e_wo_entrp">    -55.19719105 </i>
    <i name="e_0_energy">    -55.19719105 </i>
   </energy>
  </scstep>
  <scstep>
   <time name="dav">    2.59    2.61</time>
   <time name="total">    2.59    2.61</time>
   <energy>
    <i name="e_fr_energy">   -228.17534124 </i>
    <i name="e_wo_entrp">   -228.17534124 </i>
    <i name="e_0_energy">   -228.17534124 </i>
   </energy>
  </scstep>
  <scstep>
   <time name="dav">    3.13    3.16</time>
   <time name="total">    3.13    3.16</time>
   <energy>
    <i name="e_fr_energy">   -241.67612590 </i>
    <i name="e_wo_entrp">   -241.67612590 </i>
    <i name="e_0_energy">   -241.67612590 </i>
   </energy>
  </scstep>
  <scstep>
   <time name="dav">    2.91    2.94</time>
   <time name="total">    2.92    2.94</time>
   <energy>
    <i name="e_fr_energy">   -241.90728745 </i>
    <i name="e_wo_entrp">   -241.90728745 </i>
    <i name="e_0_energy">   -241.90728745 </i>
   </energy>
  </scstep>
  <scstep>
   <time name="dav">    3.04    3.07</time>
   <time name="total">    3.04    3.07</time>
   <energy>
    <i name="e_fr_energy">   -241.91921503 </i>
    <i name="e_wo_entrp">   -241.91921503 </i>
    <i name="e_0_energy">   -241.91921503 </i>
   </energy>
  </scstep>
  <scstep>
   <time name="dav">    3.00    3.02</time>
   <time name="total">    3.00    3.02</time>
   <energy>
    <i name="e_fr_energy">   -241.91959464 </i>
    <i name="e_wo_entrp">   -241.91959464 </i>
    <i name="e_0_energy">   -241.91959464 </i>
   </energy>
  </scstep>
  <scstep>
   <time name="dav">    3.00    3.04</time>
   <time name="total">    3.01    3.04</time>
   <energy>
    <i name="e_fr_energy">   -241.91961661 </i>
    <i name="e_wo_entrp">   -241.91961661 </i>
    <i name="e_0_energy">   -241.91961661 </i>
   </energy>
  </scstep>
  <scstep>
   <time name="dav">    2.93    2.96</time>
   <time name="total">    2.93    2.96</time>
   <energy>
    <i name="e_fr_energy">   -241.91961802 </i>
    <i name="e_wo_entrp">   -241.91961802 </i>
    <i name="e_0_energy">   -241.91961802 </i>
   </energy>
  </scstep>
  <scstep>
   <time name="dav">    1.96    1.98</time>
   <time name="total">    2.04    2.06</time>
   <energy>
    <i name="e_fr_energy">   -241.91961808 </i>
    <i name="e_wo_entrp">   -241.91961808 </i>
    <i name="e_0_energy">   -241.91961808 </i>
   </energy>
  </scstep>
  <scstep>
   <time name="diag">    0.36    0.37</time>
   <time name="diis">    1.18    1.19</time>
   <time name="orth">    0.06    0.07</time>
   <time name="total">    2.15    2.17</time>
   <energy>
    <i name="e_fr_energy">   -236.40012464 </i>
    <i name="e_wo_entrp">   -236.40012464 </i>
    <i name="e_0_energy">   -236.40012464 </i>
   </energy>
  </scstep>
  <scstep>
   <time name="diag">    0.36    0.36</time>
   <time name="diis">    1.23    1.24</time>
   <time name="orth">    0.06    0.06</time>
   <time name="total">    2.20    2.21</time>
   <energy>
    <i name="e_fr_energy">   -256.06233282 </i>
    <i name="e_wo_entrp">   -256.06233282 </i>
    <i name="e_0_energy">   -256.06233282 </i>
   </energy>
  </scstep>
  <scstep>
   <time name="diag">    0.36    0.36</time>
   <time name="diis">    1.21    1.22</time>
   <time name="orth">    0.06    0.07</time>
   <time name="total">    2.18    2.20</time>
   <energy>
    <i name="e_fr_energy">   -258.53848378 </i>
    <i name="e_wo_entrp">   -258.53848378 </i>
    <i name="e_0_energy">   -258.53848378 </i>
   </energy>
  </scstep>
  <scstep>
   <time name="diag">    0.36    0.36</time>
   <time name="diis">    1.58    1.59</time>
   <time name="orth">    0.06    0.06</time>
   <time name="total">    2.54    2.56</time>
   <energy>
    <i name="e_fr_energy">   -258.73253737 </i>
    <i name="e_wo_entrp">   -258.73253737 </i>
    <i name="e_0_energy">   -258.73253737 </i>
   </energy>
  </scstep>
  <scstep>
   <time name="diag">    0.36    0.36</time>
   <time name="diis">    1.29    1.30</time>
   <time name="orth">    0.06    0.07</time>
   <time name="total">    2.25    2.27</time>
   <energy>
    <i name="e_fr_energy">   -258.70901993 </i>
    <i name="e_wo_entrp">   -258.70901993 </i>
    <i name="e_0_energy">   -258.70901993 </i>
   </energy>
  </scstep>
  <scstep>
   <time name="diag">    0.36    0.36</time>
   <time name="diis">    1.31    1.32</time>
   <time name="orth">    0.06    0.07</time>
   <time name="total">    2.28    2.29</time>
   <energy>
    <i name="e_fr_energy">   -258.72884885 </i>
    <i name="e_wo_entrp">   -258.72884885 </i>
    <i name="e_0_energy">   -258.72884885 </i>
   </energy>
  </scstep>
  <scstep>
   <time name="diag">    0.36    0.36</time>
   <time name="diis">    1.44    1.46</time>
   <time name="orth">    0.07    0.07</time>
   <time name="total">    2.41    2.43</time>
   <energy>
    <i name="e_fr_energy">   -258.73476199 </i>
    <i name="e_wo_entrp">   -258.73476199 </i>
    <i name="e_0_energy">   -258.73476199 </i>
   </energy>
  </scstep>
  <scstep>
   <time name="diag">    0.36    0.36</time>
   <time name="diis">    1.42    1.44</time>
   <time name="orth">    0.06    0.07</time>
   <time name="total">    2.39    2.41</time>
   <energy>
    <i name="e_fr_energy">   -258.73601042 </i>
    <i name="e_wo_entrp">   -258.73601042 </i>
    <i name="e_0_energy">   -258.73601042 </i>
   </energy>
  </scstep>
  <scstep>
   <time name="diag">    0.36    0.36</time>
   <time name="diis">    1.66    1.68</time>
   <time name="orth">    0.06    0.07</time>
   <time name="total">    2.62    2.65</time>
   <energy>
    <i name="e_fr_energy">   -258.73646809 </i>
    <i name="e_wo_entrp">   -258.73646809 </i>
    <i name="e_0_energy">   -258.73646809 </i>
   </energy>
  </scstep>
  <scstep>
   <time name="diag">    0.36    0.36</time>
   <time name="diis">    1.62    1.63</time>
   <time name="orth">    0.06    0.06</time>
   <time name="total">    2.58    2.61</time>
   <energy>
    <i name="e_fr_energy">   -258.73655894 </i>
    <i name="e_wo_entrp">   -258.73655894 </i>
    <i name="e_0_energy">   -258.73655894 </i>
   </energy>
  </scstep>
  <scstep>
   <time name="diag">    0.36    0.36</time>
   <time name="diis">    1.44    1.45</time>
   <time name="orth">    0.06    0.06</time>
   <time name="total">    2.40    2.42</time>
   <energy>
    <i name="e_fr_energy">   -258.73657548 </i>
    <i name="e_wo_entrp">   -258.73657548 </i>
    <i name="e_0_energy">   -258.73657548 </i>
   </energy>
  </scstep>
  <scstep>
   <time name="diag">    0.36    0.36</time>
   <time name="diis">    1.59    1.61</time>
   <time name="orth">    0.06    0.07</time>
   <time name="total">    2.55    2.57</time>
   <energy>
    <i name="e_fr_energy">   -258.73658155 </i>
    <i name="e_wo_entrp">   -258.73658155 </i>
    <i name="e_0_energy">   -258.73658155 </i>
   </energy>
  </scstep>
  <scstep>
   <time name="diag">    0.36    0.36</time>
   <time name="diis">    1.28    1.29</time>
   <time name="orth">    0.06    0.06</time>
   <time name="total">    2.24    2.26</time>
   <energy>
    <i name="e_fr_energy">   -258.73658124 </i>
    <i name="e_wo_entrp">   -258.73658124 </i>
    <i name="e_0_energy">   -258.73658124 </i>
   </energy>
  </scstep>
  <scstep>
   <time name="diag">    0.36    0.36</time>
   <time name="diis">    0.97    0.98</time>
   <time name="orth">    0.06    0.06</time>
   <time name="total">    1.87    1.88</time>
   <energy>
    <i name="alphaZ">    301.10675736 </i>
    <i name="ewald">  -8824.53044521 </i>
    <i name="hartreedc">  -2203.13147731 </i>
    <i name="XCdc">    537.88005045 </i>
    <i name="pawpsdc">   9818.14939455 </i>
    <i name="pawaedc">  -9962.13719798 </i>
    <i name="eentropy">     -0.00000000 </i>
    <i name="bandstr">  -2629.21365846 </i>
    <i name="atom">  12703.13999606 </i>
    <i name="e_fr_energy">   -258.73658054 </i>
    <i name="e_wo_entrp">   -258.73658054 </i>
    <i name="e_0_energy">   -258.73658054 </i>
   </energy>
  </scstep>
  <structure>
   <crystal>
    <varray name="basis" >
     <v>       9.66037050       0.00000000       0.00000000 </v>
     <v>       0.00000000       9.66037050       0.00000000 </v>
     <v>       0.00000000       0.00000000       9.66037050 </v>
    </varray>
    <i name="volume">    901.53242014 </i>
    <varray name="rec_basis" >
     <v>       0.10351570       0.00000000       0.00000000 </v>
     <v>       0.00000000       0.10351570       0.00000000 </v>
     <v>       0.00000000       0.00000000       0.10351570 </v>
    </varray>
   </crystal>
   <varray name="positions" >
    <v>       0.98387695       0.27244087       0.28815682 </v>
    <v>       0.96071064       0.65999165       0.65897854 </v>
    <v>       0.03338050       0.22605015       0.87145097 </v>
    <v>       0.03292131       0.71035464       0.31571869 </v>
    <v>       0.33370388       0.29957768       0.98301994 </v>
    <v>       0.28363249       0.69315608       0.00853022 </v>
    <v>       0.66973674       0.32906559       0.04569119 </v>
    <v>       0.83178377       0.79262369       0.96494956 </v>
    <v>       0.17669271       0.96075604       0.16461200 </v>
    <v>       0.19187984       0.01272638       0.78817822 </v>
    <v>       0.80166686       0.99566483       0.78350240 </v>
    <v>       0.81273703       0.04319438       0.16422965 </v>
    <v>       0.32559623       0.83710125       0.44924241 </v>
    <v>       0.17952275       0.30314113       0.54002713 </v>
    <v>       0.70657661       0.82371813       0.50693264 </v>
    <v>       0.72641647       0.20471300       0.49353736 </v>
    <v>       0.28699473       0.48255592       0.78002422 </v>
    <v>       0.21747770       0.51196427       0.28623746 </v>
    <v>       0.80033084       0.47652424       0.32473241 </v>
    <v>       0.66404938       0.55229386       0.81145270 </v>
    <v>       0.46725578       0.18699527       0.68643373 </v>
    <v>       0.49012616       0.68151027       0.18581717 </v>
    <v>       0.52200712       0.16750057       0.31279225 </v>
    <v>       0.52382460       0.81285998       0.70329456 </v>
    <v>       0.50064221       0.50147224       0.50121766 </v>
    <v>       0.50318594       0.99782496       0.99962054 </v>
    <v>       0.98860269       0.50244449       0.99932816 </v>
    <v>       0.01468525       0.00191260       0.49405854 </v>
    <v>       0.12291365       0.85738329       0.60456897 </v>
    <v>       0.15047085       0.11222287       0.37397634 </v>
    <v>       0.88307150       0.90002273       0.36115366 </v>
    <v>       0.91717135       0.13999654       0.62382631 </v>
    <v>       0.87861023       0.62210465       0.13448213 </v>
    <v>       0.85226121       0.39220114       0.88064023 </v>
    <v>       0.10117908       0.62612958       0.86743521 </v>
    <v>       0.11776875       0.36744155       0.10344326 </v>
    <v>       0.61864049       0.13393270       0.88392417 </v>
    <v>       0.63384027       0.87434129       0.11134660 </v>
    <v>       0.37643802       0.10923024       0.12825348 </v>
    <v>       0.37604737       0.87874936       0.87715888 </v>
    <v>       0.62282494       0.62684251       0.38013045 </v>
    <v>       0.62124460       0.38449838       0.63082794 </v>
    <v>       0.37499552       0.63320385       0.61068960 </v>
    <v>       0.38319017       0.36670071       0.38690148 </v>
    <v>       0.75433134       0.76448953       0.73696780 </v>
    <v>       0.74630246       0.25201030       0.26067449 </v>
    <v>       0.25840982       0.74257816       0.23732918 </v>
    <v>       0.24939110       0.24757508       0.76310505 </v>
    <v>       0.99052136       0.00115413       0.98169401 </v>
    <v>       0.01685939       0.49346832       0.45718419 </v>
    <v>       0.52382061       0.00364058       0.51469645 </v>
    <v>       0.47743395       0.50767140       0.98723206 </v>
   </varray>
  </structure>
  <varray name="forces" >
   <v>       0.00000220      -0.00028876       0.00056162 </v>
   <v>      -0.00019864      -0.00085232       0.00007906 </v>
   <v>      -0.00088856       0.00013251      -0.00219171 </v>
   <v>       0.00009539       0.00010984       0.00086502 </v>
   <v>      -0.00033693      -0.00062147       0.00020683 </v>
   <v>      -0.00010796       0.00027913       0.00021546 </v>
   <v>      -0.00032490       0.00051216       0.00020315 </v>
   <v>       0.00136191      -0.00032719      -0.00040136 </v>
   <v>      -0.00078484       0.00001831       0.00042199 </v>
   <v>      -0.00011975      -0.00021553       0.00070676 </v>
   <v>      -0.00033577       0.00008383      -0.00013259 </v>
   <v>      -0.00020932       0.00051834      -0.00110655 </v>
   <v>      -0.00036379       0.00070062       0.00000261 </v>
   <v>       0.00087104       0.00068165      -0.00022965 </v>
   <v>       0.00056289       0.00026183      -0.00038815 </v>
   <v>      -0.00102602      -0.00125755      -0.00022196 </v>
   <v>       0.00058535       0.00008547       0.00056354 </v>
   <v>      -0.00007258      -0.00001202      -0.00038966 </v>
   <v>       0.00007449      -0.00014205       0.00069898 </v>
   <v>      -0.00054361       0.00034678       0.00005802 </v>
   <v>       0.00012932       0.00013988       0.00013208 </v>
   <v>       0.00000223       0.00006409       0.00013171 </v>
   <v>      -0.00008788       0.00016138      -0.00050749 </v>
   <v>       0.00008724       0.00011576      -0.00068010 </v>
   <v>       0.00017459      -0.00019418      -0.00050049 </v>
   <v>       0.00112833      -0.00167640       0.00149182 </v>
   <v>      -0.00019639      -0.00100196       0.00157108 </v>
   <v>       0.00037263      -0.00014438      -0.00031171 </v>
   <v>      -0.00049284      -0.00005834       0.00025574 </v>
   <v>       0.00053665      -0.00000353       0.00076668 </v>
   <v>       0.00034529       0.00081671      -0.00038700 </v>
   <v>      -0.00053555       0.00040832       0.00004472 </v>
   <v>       0.00037857      -0.00015374       0.00021733 </v>
   <v>      -0.00046914       0.00039849      -0.00001083 </v>
   <v>       0.00029664       0.00036745      -0.00023405 </v>
   <v>      -0.00049197      -0.00006410      -0.00026927 </v>
   <v>       0.00025046       0.00046621      -0.00000676 </v>
   <v>      -0.00032668       0.00031125      -0.00109780 </v>
   <v>      -0.00042379      -0.00066881       0.00018969 </v>
   <v>       0.00012893      -0.00043686      -0.00053587 </v>
   <v>       0.00005144       0.00021417       0.00011446 </v>
   <v>       0.00017594       0.00006576      -0.00011500 </v>
   <v>      -0.00031694       0.00011911       0.00001937 </v>
   <v>       0.00038530       0.00039714      -0.00033032 </v>
   <v>       0.00009814       0.00006335      -0.00032418 </v>
   <v>      -0.00012019       0.00009610      -0.00002024 </v>
   <v>      -0.00006618       0.00017251       0.00014704 </v>
   <v>       0.00005620       0.00001379      -0.00014890 </v>
   <v>       0.00059056      -0.00022534      -0.00004634 </v>
   <v>       0.00009233      -0.00009579       0.00115851 </v>
   <v>       0.00009049       0.00049235      -0.00045120 </v>
   <v>      -0.00008436      -0.00017398       0.00021593 </v>
  </varray>
  <varray name="stress" >
   <v>       0.25269663      -3.38067999       1.71386727 </v>
   <v>      -3.38067961      -2.83606450      -1.69084173 </v>
   <v>       1.71386776      -1.69084267       2.59890648 </v>
  </varray>
  <energy>
   <i name="e_fr_energy">   -272.31107577 </i>
   <i name="e_wo_entrp">   -272.31107577 </i>
   <i name="e_0_energy">   -272.31107577 </i>
  </energy>
  <time name="totalsc">   63.79   64.64</time>
 </calculation>
 <calculation>
  <scstep>
   <time name="dav">    2.25    2.28</time>
   <time name="total">    2.79    2.82</time>
   <energy>
    <i name="alphaZ">    301.10675736 </i>
    <i name="ewald">  -8824.53424120 </i>
    <i name="hartreedc">  -2203.13225456 </i>
    <i name="XCdc">    537.88006498 </i>
    <i name="pawpsdc">   9818.14197713 </i>
    <i name="pawaedc">  -9962.12968324 </i>
    <i name="eentropy">     -0.00000000 </i>
    <i name="bandstr">  -2629.20919794 </i>
    <i name="atom">  12703.13999606 </i>
    <i name="e_fr_energy">   -258.73658141 </i>
    <i name="e_wo_entrp">   -258.73658141 </i>
    <i name="e_0_energy">   -258.73658141 </i>
   </energy>
  </scstep>
  <scstep>
   <time name="diag">    0.36    0.37</time>
   <time name="diis">    0.84    0.85</time>
   <time name="orth">    0.06    0.07</time>
   <time name="total">    1.74    1.76</time>
   <energy>
    <i name="alphaZ">    301.10675736 </i>
    <i name="ewald">  -8824.53424120 </i>
    <i name="hartreedc">  -2203.13413720 </i>
    <i name="XCdc">    537.87991415 </i>
    <i name="pawpsdc">   9818.12018458 </i>
    <i name="pawaedc">  -9962.10746630 </i>
    <i name="eentropy">     -0.00000000 </i>
    <i name="bandstr">  -2629.20758909 </i>
    <i name="atom">  12703.13999606 </i>
    <i name="e_fr_energy">   -258.73658163 </i>
    <i name="e_wo_entrp">   -258.73658163 </i>
    <i name="e_0_energy">   -258.73658163 </i>
   </energy>
  </scstep>
  <structure>
   <crystal>
    <varray name="basis" >
     <v>       9.66037050       0.00000000       0.00000000 </v>
     <v>       0.00000000       9.66037050       0.00000000 </v>
     <v>       0.00000000       0.00000000       9.66037050 </v>
    </varray>
    <i name="volume">    901.53242014 </i>
    <varray name="rec_basis" >
     <v>       0.10351570       0.00000000       0.00000000 </v>
     <v>       0.00000000       0.10351570       0.00000000 </v>
     <v>       0.00000000       0.00000000       0.10351570 </v>
    </varray>
   </crystal>
   <varray name="positions" >
    <v>       0.98387695       0.27244030       0.28815794 </v>
    <v>       0.96071025       0.65998995       0.65897869 </v>
    <v>       0.03337873       0.22605041       0.87144659 </v>
    <v>       0.03292150       0.71035486       0.31572042 </v>
    <v>       0.33370321       0.29957644       0.98302035 </v>
    <v>       0.28363228       0.69315663       0.00853065 </v>
    <v>       0.66973609       0.32906661       0.04569159 </v>
    <v>       0.83178649       0.79262304       0.96494875 </v>
    <v>       0.17669114       0.96075608       0.16461285 </v>
    <v>       0.19187960       0.01272595       0.78817963 </v>
    <v>       0.80166619       0.99566500       0.78350214 </v>
    <v>       0.81273661       0.04319541       0.16422743 </v>
    <v>       0.32559550       0.83710265       0.44924242 </v>
    <v>       0.17952449       0.30314250       0.54002667 </v>
    <v>       0.70657773       0.82371865       0.50693187 </v>
    <v>       0.72641442       0.20471049       0.49353692 </v>
    <v>       0.28699590       0.48255610       0.78002534 </v>
    <v>       0.21747756       0.51196425       0.28623668 </v>
    <v>       0.80033099       0.47652396       0.32473381 </v>
    <v>       0.66404829       0.55229456       0.81145282 </v>
    <v>       0.46725604       0.18699555       0.68643399 </v>
    <v>       0.49012617       0.68151040       0.18581744 </v>
    <v>       0.52200694       0.16750089       0.31279123 </v>
    <v>       0.52382478       0.81286021       0.70329320 </v>
    <v>       0.50064256       0.50147185       0.50121666 </v>
    <v>       0.50318819       0.99782161       0.99962352 </v>
    <v>       0.98860229       0.50244248       0.99933130 </v>
    <v>       0.01468599       0.00191231       0.49405792 </v>
    <v>       0.12291267       0.85738317       0.60456948 </v>
    <v>       0.15047193       0.11222286       0.37397787 </v>
    <v>       0.88307219       0.90002436       0.36115288 </v>
    <v>       0.91717028       0.13999736       0.62382640 </v>
    <v>       0.87861099       0.62210434       0.13448257 </v>
    <v>       0.85226027       0.39220194       0.88064021 </v>
    <v>       0.10117967       0.62613031       0.86743474 </v>
    <v>       0.11776777       0.36744142       0.10344272 </v>
    <v>       0.61864099       0.13393364       0.88392415 </v>
    <v>       0.63383961       0.87434191       0.11134441 </v>
    <v>       0.37643717       0.10922891       0.12825386 </v>
    <v>       0.37604763       0.87874849       0.87715781 </v>
    <v>       0.62282504       0.62684293       0.38013068 </v>
    <v>       0.62124495       0.38449851       0.63082771 </v>
    <v>       0.37499488       0.63320409       0.61068964 </v>
    <v>       0.38319094       0.36670150       0.38690082 </v>
    <v>       0.75433154       0.76448966       0.73696716 </v>
    <v>       0.74630222       0.25201050       0.26067445 </v>
    <v>       0.25840969       0.74257851       0.23732948 </v>
    <v>       0.24939122       0.24757510       0.76310475 </v>
    <v>       0.99052254       0.00115368       0.98169392 </v>
    <v>       0.01685957       0.49346813       0.45718651 </v>
    <v>       0.52382079       0.00364157       0.51469555 </v>
    <v>       0.47743378       0.50767105       0.98723249 </v>
   </varray>
  </structure>
  <varray name="forces" >
   <v>      -0.00001467      -0.00015648       0.00036228 </v>
   <v>      -0.00012234      -0.00054607       0.00009072 </v>
   <v>      -0.00059020       0.00010022      -0.00134722 </v>
   <v>       0.00006887       0.00004784       0.00053761 </v>
   <v>      -0.00014352      -0.00037361       0.00009087 </v>
   <v>      -0.00008140       0.00016715       0.00004509 </v>
   <v>      -0.00020153       0.00031306       0.00011091 </v>
   <v>       0.00089229      -0.00019740      -0.00031196 </v>
   <v>      -0.00047364      -0.00000354       0.00025462 </v>
   <v>      -0.00004970      -0.00008639       0.00045224 </v>
   <v>      -0.00018812       0.00008343      -0.00007847 </v>
   <v>      -0.00007621       0.00042275      -0.00069297 </v>
   <v>      -0.00021340       0.00042099       0.00001787 </v>
   <v>       0.00052618       0.00044276      -0.00007318 </v>
   <v>       0.00032124       0.00018583      -0.00017011 </v>
   <v>      -0.00059273      -0.00075576      -0.00010193 </v>
   <v>       0.00034100       0.00007875       0.00036533 </v>
   <v>      -0.00005875       0.00003930      -0.00017700 </v>
   <v>       0.00005912      -0.00005712       0.00044636 </v>
   <v>      -0.00034254       0.00024471       0.00004975 </v>
   <v>       0.00009461       0.00008360       0.00012961 </v>
   <v>      -0.00004771       0.00000538       0.00010475 </v>
   <v>      -0.00005755       0.00011679      -0.00029661 </v>
   <v>       0.00005073       0.00009500      -0.00039148 </v>
   <v>       0.00010086       0.00007425      -0.00012160 </v>
   <v>       0.00031864      -0.00058076       0.00033424 </v>
   <v>      -0.00002441      -0.00039032       0.00064042 </v>
   <v>       0.00013959       0.00008124       0.00004687 </v>
   <v>      -0.00022957      -0.00006058       0.00020216 </v>
   <v>       0.00031220       0.00022067       0.00028713 </v>
   <v>       0.00010177       0.00034290      -0.00028035 </v>
   <v>      -0.00037931       0.00012214      -0.00006677 </v>
   <v>       0.00015993       0.00005908       0.00040257 </v>
   <v>      -0.00016361       0.00013591       0.00006372 </v>
   <v>       0.00001975      -0.00015075       0.00030007 </v>
   <v>       0.00001844      -0.00029361       0.00018675 </v>
   <v>      -0.00005066      -0.00002572       0.00019543 </v>
   <v>       0.00053254      -0.00045502      -0.00005576 </v>
   <v>      -0.00011550      -0.00030074      -0.00005923 </v>
   <v>       0.00023120      -0.00014955      -0.00021036 </v>
   <v>       0.00018826       0.00020671      -0.00000996 </v>
   <v>       0.00008509      -0.00001797      -0.00006011 </v>
   <v>      -0.00004355      -0.00005479       0.00002670 </v>
   <v>       0.00001984       0.00013889      -0.00031837 </v>
   <v>      -0.00009139       0.00023306      -0.00015087 </v>
   <v>       0.00007323       0.00007356       0.00006656 </v>
   <v>      -0.00014849      -0.00012134       0.00001456 </v>
   <v>       0.00009061       0.00008931       0.00004699 </v>
   <v>      -0.00041556       0.00021705      -0.00038017 </v>
   <v>       0.00012946       0.00000986      -0.00074309 </v>
   <v>       0.00055425       0.00004644       0.00038378 </v>
   <v>      -0.00051365      -0.00012111      -0.00015837 </v>
  </varray>
  <varray name="stress" >
   <v>       0.24454004      -3.38287783       1.71661586 </v>
   <v>      -3.38287738      -2.84474465      -1.69189227 </v>
   <v>       1.71661641      -1.69189316       2.59024753 </v>
  </varray>
  <energy>
   <i name="e_fr_energy">   -272.31107698 </i>
   <i name="e_wo_entrp">   -272.31107698 </i>
   <i name="e_0_energy">   -272.31107698 </i>
  </energy>
  <time name="totalsc">    7.65    7.74</time>
 </calculation>
 <calculation>
  <scstep>
   <time name="dav">    2.18    2.20</time>
   <time name="total">    2.72    2.74</time>
   <energy>
    <i name="alphaZ">    301.10675736 </i>
    <i name="ewald">  -8824.53690108 </i>
    <i name="hartreedc">  -2203.13255679 </i>
    <i name="XCdc">    537.87975799 </i>
    <i name="pawpsdc">   9818.10431249 </i>
    <i name="pawaedc">  -9962.09121084 </i>
    <i name="eentropy">     -0.00000000 </i>
    <i name="bandstr">  -2629.20673708 </i>
    <i name="atom">  12703.13999606 </i>
    <i name="e_fr_energy">   -258.73658189 </i>
    <i name="e_wo_entrp">   -258.73658189 </i>
    <i name="e_0_energy">   -258.73658189 </i>
   </energy>
  </scstep>
  <scstep>
   <time name="diag">    0.36    0.36</time>
   <time name="diis">    0.81    0.82</time>
   <time name="orth">    0.07    0.07</time>
   <time name="total">    1.71    1.72</time>
   <energy>
    <i name="alphaZ">    301.10675736 </i>
    <i name="ewald">  -8824.53690108 </i>
    <i name="hartreedc">  -2203.13251247 </i>
    <i name="XCdc">    537.87964729 </i>
    <i name="pawpsdc">   9818.09141388 </i>
    <i name="pawaedc">  -9962.07811151 </i>
    <i name="eentropy">     -0.00000000 </i>
    <i name="bandstr">  -2629.20687147 </i>
    <i name="atom">  12703.13999606 </i>
    <i name="e_fr_energy">   -258.73658195 </i>
    <i name="e_wo_entrp">   -258.73658195 </i>
    <i name="e_0_energy">   -258.73658195 </i>
   </energy>
  </scstep>
  <structure>
   <crystal>
    <varray name="basis" >
     <v>       9.66037050       0.00000000       0.00000000 </v>
     <v>       0.00000000       9.66037050       0.00000000 </v>
     <v>       0.00000000       0.00000000       9.66037050 </v>
    </varray>
    <i name="volume">    901.53242014 </i>
    <varray name="rec_basis" >
     <v>       0.10351570       0.00000000       0.00000000 </v>
     <v>       0.00000000       0.10351570       0.00000000 </v>
     <v>       0.00000000       0.00000000       0.10351570 </v>
    </varray>
   </crystal>
   <varray name="positions" >
    <v>       0.98387696       0.27243989       0.28815873 </v>
    <v>       0.96070997       0.65998876       0.65897880 </v>
    <v>       0.03337749       0.22605060       0.87144352 </v>
    <v>       0.03292163       0.71035502       0.31572163 </v>
    <v>       0.33370273       0.29957557       0.98302064 </v>
    <v>       0.28363213       0.69315702       0.00853096 </v>
    <v>       0.66973564       0.32906733       0.04569188 </v>
    <v>       0.83178840       0.79262258       0.96494819 </v>
    <v>       0.17669004       0.96075611       0.16461344 </v>
    <v>       0.19187943       0.01272565       0.78818062 </v>
    <v>       0.80166572       0.99566511       0.78350195 </v>
    <v>       0.81273632       0.04319614       0.16422589 </v>
    <v>       0.32559500       0.83710363       0.44924242 </v>
    <v>       0.17952571       0.30314345       0.54002635 </v>
    <v>       0.70657852       0.82371902       0.50693132 </v>
    <v>       0.72641298       0.20470873       0.49353661 </v>
    <v>       0.28699672       0.48255621       0.78002613 </v>
    <v>       0.21747746       0.51196423       0.28623613 </v>
    <v>       0.80033109       0.47652376       0.32473479 </v>
    <v>       0.66404753       0.55229504       0.81145290 </v>
    <v>       0.46725622       0.18699575       0.68643418 </v>
    <v>       0.49012617       0.68151049       0.18581762 </v>
    <v>       0.52200682       0.16750112       0.31279052 </v>
    <v>       0.52382490       0.81286037       0.70329225 </v>
    <v>       0.50064280       0.50147158       0.50121596 </v>
    <v>       0.50318977       0.99781926       0.99962560 </v>
    <v>       0.98860202       0.50244108       0.99933350 </v>
    <v>       0.01468651       0.00191211       0.49405748 </v>
    <v>       0.12291198       0.85738309       0.60456984 </v>
    <v>       0.15047268       0.11222285       0.37397894 </v>
    <v>       0.88307267       0.90002550       0.36115234 </v>
    <v>       0.91716953       0.13999793       0.62382646 </v>
    <v>       0.87861152       0.62210413       0.13448287 </v>
    <v>       0.85225962       0.39220249       0.88064020 </v>
    <v>       0.10118009       0.62613082       0.86743442 </v>
    <v>       0.11776708       0.36744133       0.10344234 </v>
    <v>       0.61864134       0.13393429       0.88392414 </v>
    <v>       0.63383916       0.87434234       0.11134288 </v>
    <v>       0.37643658       0.10922797       0.12825413 </v>
    <v>       0.37604781       0.87874788       0.87715706 </v>
    <v>       0.62282512       0.62684323       0.38013084 </v>
    <v>       0.62124519       0.38449860       0.63082755 </v>
    <v>       0.37499444       0.63320426       0.61068966 </v>
    <v>       0.38319148       0.36670205       0.38690036 </v>
    <v>       0.75433167       0.76448975       0.73696670 </v>
    <v>       0.74630205       0.25201063       0.26067442 </v>
    <v>       0.25840960       0.74257875       0.23732968 </v>
    <v>       0.24939130       0.24757512       0.76310455 </v>
    <v>       0.99052337       0.00115336       0.98169385 </v>
    <v>       0.01685970       0.49346800       0.45718813 </v>
    <v>       0.52382091       0.00364225       0.51469492 </v>
    <v>       0.47743366       0.50767081       0.98723280 </v>
   </varray>
  </structure>
  <varray name="forces" >
   <v>      -0.00001581      -0.00020834       0.00045298 </v>
   <v>      -0.00012994      -0.00067608       0.00012668 </v>
   <v>      -0.00074851       0.00011263      -0.00177980 </v>
   <v>       0.00008314       0.00006121       0.00065242 </v>
   <v>      -0.00013973      -0.00044681       0.00009784 </v>
   <v>      -0.00010603       0.00021374       0.00004525 </v>
   <v>      -0.00023758       0.00034264       0.00011086 </v>
   <v>       0.00118595      -0.00028229      -0.00040882 </v>
   <v>      -0.00054526      -0.00001048       0.00029440 </v>
   <v>      -0.00005870      -0.00011022       0.00053511 </v>
   <v>      -0.00021501       0.00010818      -0.00009047 </v>
   <v>      -0.00008576       0.00051922      -0.00085774 </v>
   <v>      -0.00024138       0.00047803       0.00003624 </v>
   <v>       0.00064406       0.00055320      -0.00007506 </v>
   <v>       0.00037256       0.00019995      -0.00018219 </v>
   <v>      -0.00077330      -0.00099125      -0.00011007 </v>
   <v>       0.00038118       0.00010387       0.00042549 </v>
   <v>      -0.00004470       0.00004011      -0.00017306 </v>
   <v>       0.00005955      -0.00007302       0.00054108 </v>
   <v>      -0.00037834       0.00026360       0.00006413 </v>
   <v>       0.00009785       0.00006601       0.00014996 </v>
   <v>      -0.00005992      -0.00002362       0.00011822 </v>
   <v>      -0.00007318       0.00011334      -0.00030096 </v>
   <v>       0.00004460       0.00008850      -0.00042824 </v>
   <v>       0.00003098       0.00023147       0.00013794 </v>
   <v>      -0.00021827       0.00011603      -0.00040590 </v>
   <v>       0.00006235       0.00002416      -0.00004904 </v>
   <v>       0.00000500       0.00024327       0.00030411 </v>
   <v>      -0.00024808      -0.00008295       0.00021297 </v>
   <v>       0.00040825       0.00022749       0.00029790 </v>
   <v>       0.00009559       0.00033989      -0.00035584 </v>
   <v>      -0.00030322       0.00003459      -0.00018930 </v>
   <v>       0.00011194       0.00008327       0.00052442 </v>
   <v>      -0.00011991       0.00017504       0.00012899 </v>
   <v>      -0.00016770      -0.00035878       0.00052331 </v>
   <v>       0.00009036      -0.00045361       0.00033551 </v>
   <v>      -0.00014155      -0.00020411       0.00041136 </v>
   <v>       0.00081622      -0.00078943       0.00023081 </v>
   <v>      -0.00004523      -0.00044930      -0.00003521 </v>
   <v>       0.00037359      -0.00012044      -0.00006255 </v>
   <v>       0.00022326       0.00020307      -0.00002862 </v>
   <v>       0.00010811       0.00000685      -0.00011097 </v>
   <v>       0.00002629      -0.00016519      -0.00006026 </v>
   <v>       0.00002671       0.00010179      -0.00041069 </v>
   <v>      -0.00004831       0.00018541      -0.00014757 </v>
   <v>       0.00004272       0.00008080       0.00005104 </v>
   <v>      -0.00013262      -0.00008756       0.00005999 </v>
   <v>       0.00007152       0.00007910       0.00001746 </v>
   <v>      -0.00028676       0.00015971      -0.00036169 </v>
   <v>       0.00012786      -0.00001598      -0.00045134 </v>
   <v>       0.00056986       0.00015751       0.00025840 </v>
   <v>      -0.00049472      -0.00016421      -0.00006948 </v>
  </varray>
  <varray name="stress" >
   <v>       0.24156214      -3.38402156       1.71806305 </v>
   <v>      -3.38402128      -2.84789859      -1.69241964 </v>
   <v>       1.71806347      -1.69242051       2.58668616 </v>
  </varray>
  <energy>
   <i name="e_fr_energy">   -272.31107739 </i>
   <i name="e_wo_entrp">   -272.31107739 </i>
   <i name="e_0_energy">   -272.31107739 </i>
  </energy>
  <time name="totalsc">    7.55    7.63</time>
 </calculation>
 <calculation>
  <scstep>
   <time name="dav">    2.37    2.39</time>
   <time name="total">    2.91    2.93</time>
   <energy>
    <i name="alphaZ">    301.10675736 </i>
    <i name="ewald">  -8824.54221949 </i>
    <i name="hartreedc">  -2203.12778925 </i>
    <i name="XCdc">    537.87953029 </i>
    <i name="pawpsdc">   9818.08327516 </i>
    <i name="pawaedc">  -9962.06988702 </i>
    <i name="eentropy">     -0.00000000 </i>
    <i name="bandstr">  -2629.20624509 </i>
    <i name="atom">  12703.13999606 </i>
    <i name="e_fr_energy">   -258.73658198 </i>
    <i name="e_wo_entrp">   -258.73658198 </i>
    <i name="e_0_energy">   -258.73658198 </i>
   </energy>
  </scstep>
  <scstep>
   <time name="diag">    0.36    0.36</time>
   <time name="diis">    0.85    0.86</time>
   <time name="orth">    0.06    0.07</time>
   <time name="total">    1.75    1.77</time>
   <energy>
    <i name="alphaZ">    301.10675736 </i>
    <i name="ewald">  -8824.54221949 </i>
    <i name="hartreedc">  -2203.12757339 </i>
    <i name="XCdc">    537.87948548 </i>
    <i name="pawpsdc">   9818.07656870 </i>
    <i name="pawaedc">  -9962.06312791 </i>
    <i name="eentropy">     -0.00000000 </i>
    <i name="bandstr">  -2629.20646902 </i>
    <i name="atom">  12703.13999606 </i>
    <i name="e_fr_energy">   -258.73658220 </i>
    <i name="e_wo_entrp">   -258.73658220 </i>
    <i name="e_0_energy">   -258.73658220 </i>
   </energy>
  </scstep>
  <structure>
   <crystal>
    <varray name="basis" >
     <v>       9.66037050       0.00000000       0.00000000 </v>
     <v>       0.00000000       9.66037050       0.00000000 </v>
     <v>       0.00000000       0.00000000       9.66037050 </v>
    </varray>
    <i name="volume">    901.53242014 </i>
    <varray name="rec_basis" >
     <v>       0.10351570       0.00000000       0.00000000 </v>
     <v>       0.00000000       0.10351570       0.00000000 </v>
     <v>       0.00000000       0.00000000       0.10351570 </v>
    </varray>
   </crystal>
   <varray name="positions" >
    <v>       0.98387696       0.27243908       0.28816030 </v>
    <v>       0.96070941       0.65998637       0.65897903 </v>
    <v>       0.03337500       0.22605097       0.87143739 </v>
    <v>       0.03292190       0.71035532       0.31572405 </v>
    <v>       0.33370179       0.29957383       0.98302122 </v>
    <v>       0.28363183       0.69315781       0.00853156 </v>
    <v>       0.66973473       0.32906876       0.04569244 </v>
    <v>       0.83179221       0.79262166       0.96494707 </v>
    <v>       0.17668784       0.96075616       0.16461462 </v>
    <v>       0.19187910       0.01272505       0.78818260 </v>
    <v>       0.80166478       0.99566535       0.78350158 </v>
    <v>       0.81273573       0.04319759       0.16422279 </v>
    <v>       0.32559398       0.83710559       0.44924243 </v>
    <v>       0.17952815       0.30314536       0.54002571 </v>
    <v>       0.70658010       0.82371975       0.50693024 </v>
    <v>       0.72641011       0.20470521       0.49353599 </v>
    <v>       0.28699836       0.48255645       0.78002771 </v>
    <v>       0.21747725       0.51196420       0.28623504 </v>
    <v>       0.80033130       0.47652336       0.32473674 </v>
    <v>       0.66404601       0.55229601       0.81145306 </v>
    <v>       0.46725658       0.18699614       0.68643455 </v>
    <v>       0.49012618       0.68151066       0.18581799 </v>
    <v>       0.52200657       0.16750157       0.31278910 </v>
    <v>       0.52382515       0.81286069       0.70329034 </v>
    <v>       0.50064329       0.50147103       0.50121456 </v>
    <v>       0.50319293       0.99781457       0.99962978 </v>
    <v>       0.98860147       0.50243828       0.99933790 </v>
    <v>       0.01468756       0.00191171       0.49405661 </v>
    <v>       0.12291060       0.85738293       0.60457056 </v>
    <v>       0.15047418       0.11222284       0.37398109 </v>
    <v>       0.88307364       0.90002779       0.36115126 </v>
    <v>       0.91716803       0.13999907       0.62382659 </v>
    <v>       0.87861258       0.62210370       0.13448348 </v>
    <v>       0.85225830       0.39220361       0.88064017 </v>
    <v>       0.10118092       0.62613185       0.86743376 </v>
    <v>       0.11776570       0.36744115       0.10344159 </v>
    <v>       0.61864204       0.13393559       0.88392412 </v>
    <v>       0.63383824       0.87434322       0.11133980 </v>
    <v>       0.37643539       0.10922610       0.12825466 </v>
    <v>       0.37604817       0.87874666       0.87715556 </v>
    <v>       0.62282526       0.62684383       0.38013116 </v>
    <v>       0.62124569       0.38449878       0.63082723 </v>
    <v>       0.37499355       0.63320459       0.61068972 </v>
    <v>       0.38319256       0.36670317       0.38689943 </v>
    <v>       0.75433195       0.76448992       0.73696580 </v>
    <v>       0.74630171       0.25201090       0.26067437 </v>
    <v>       0.25840941       0.74257923       0.23733010 </v>
    <v>       0.24939145       0.24757516       0.76310413 </v>
    <v>       0.99052502       0.00115273       0.98169372 </v>
    <v>       0.01685996       0.49346773       0.45719137 </v>
    <v>       0.52382117       0.00364363       0.51469366 </v>
    <v>       0.47743342       0.50767032       0.98723340 </v>
   </varray>
  </structure>
  <varray name="forces" >
   <v>      -0.00004192      -0.00012268       0.00028669 </v>
   <v>      -0.00005617      -0.00045219       0.00015140 </v>
   <v>      -0.00051910       0.00007792      -0.00121057 </v>
   <v>       0.00007513       0.00003846       0.00047114 </v>
   <v>      -0.00000499      -0.00032514      -0.00001183 </v>
   <v>      -0.00012536       0.00017582      -0.00009657 </v>
   <v>      -0.00017025       0.00019016       0.00001009 </v>
   <v>       0.00085523      -0.00019414      -0.00040477 </v>
   <v>      -0.00032242      -0.00001708       0.00016088 </v>
   <v>      -0.00000488      -0.00004384       0.00037256 </v>
   <v>      -0.00015510       0.00013700      -0.00008428 </v>
   <v>       0.00002601       0.00045181      -0.00053101 </v>
   <v>      -0.00015783       0.00029650       0.00005630 </v>
   <v>       0.00036343       0.00035087       0.00004162 </v>
   <v>       0.00023387       0.00015387      -0.00005613 </v>
   <v>      -0.00045096      -0.00061217      -0.00001301 </v>
   <v>       0.00020733       0.00013719       0.00027297 </v>
   <v>      -0.00002761       0.00008308      -0.00008063 </v>
   <v>       0.00003668      -0.00002357       0.00040730 </v>
   <v>      -0.00024786       0.00018263       0.00002958 </v>
   <v>       0.00007558       0.00002596       0.00015687 </v>
   <v>      -0.00011420      -0.00007620       0.00008563 </v>
   <v>      -0.00007900       0.00009812      -0.00019020 </v>
   <v>       0.00000066       0.00006451      -0.00026525 </v>
   <v>      -0.00008092       0.00058400       0.00060472 </v>
   <v>      -0.00134231       0.00154804      -0.00195361 </v>
   <v>       0.00022934       0.00084633      -0.00141224 </v>
   <v>      -0.00025223       0.00057218       0.00078938 </v>
   <v>      -0.00007956      -0.00010936       0.00013101 </v>
   <v>       0.00040073       0.00031951      -0.00005028 </v>
   <v>      -0.00010122       0.00000041      -0.00036410 </v>
   <v>      -0.00001804      -0.00029203      -0.00041856 </v>
   <v>      -0.00017007       0.00029478       0.00070363 </v>
   <v>       0.00011771       0.00011716       0.00021796 </v>
   <v>      -0.00069133      -0.00097549       0.00113101 </v>
   <v>       0.00056901      -0.00081581       0.00075923 </v>
   <v>      -0.00053719      -0.00076260       0.00081706 </v>
   <v>       0.00175626      -0.00175325       0.00133776 </v>
   <v>       0.00026645      -0.00038409      -0.00020236 </v>
   <v>       0.00057547       0.00020087       0.00038182 </v>
   <v>       0.00028998       0.00019441      -0.00015796 </v>
   <v>       0.00002798       0.00001572      -0.00014803 </v>
   <v>       0.00031026      -0.00039475      -0.00024729 </v>
   <v>      -0.00020071      -0.00016836      -0.00048795 </v>
   <v>      -0.00006533       0.00015975      -0.00007092 </v>
   <v>       0.00006464       0.00006554       0.00003141 </v>
   <v>      -0.00011907      -0.00012234       0.00003076 </v>
   <v>       0.00004607       0.00007743       0.00004128 </v>
   <v>      -0.00056681       0.00026709      -0.00035201 </v>
   <v>       0.00007535       0.00003409      -0.00094049 </v>
   <v>       0.00054024      -0.00005289       0.00044342 </v>
   <v>      -0.00044099      -0.00006325      -0.00017346 </v>
  </varray>
  <varray name="stress" >
   <v>       0.24104746      -3.38690362       1.72160872 </v>
   <v>      -3.38690319      -2.84878396      -1.69372648 </v>
   <v>       1.72160911      -1.69372740       2.58509060 </v>
  </varray>
  <energy>
   <i name="e_fr_energy">   -272.31107782 </i>
   <i name="e_wo_entrp">   -272.31107782 </i>
   <i name="e_0_energy">   -272.31107782 </i>
  </energy>
  <time name="totalsc">    7.77    7.85</time>
 </calculation>
 <calculation>
  <scstep>
   <time name="dav">    2.33    2.35</time>
   <time name="total">    2.87    2.89</time>
   <energy>
    <i name="alphaZ">    301.10675736 </i>
    <i name="ewald">  -8824.54529446 </i>
    <i name="hartreedc">  -2203.12507866 </i>
    <i name="XCdc">    537.87940063 </i>
    <i name="pawpsdc">   9818.07179466 </i>
    <i name="pawaedc">  -9962.05831231 </i>
    <i name="eentropy">     -0.00000000 </i>
    <i name="bandstr">  -2629.20584610 </i>
    <i name="atom">  12703.13999606 </i>
    <i name="e_fr_energy">   -258.73658283 </i>
    <i name="e_wo_entrp">   -258.73658283 </i>
    <i name="e_0_energy">   -258.73658283 </i>
   </energy>
  </scstep>
  <scstep>
   <time name="diag">    0.36    0.36</time>
   <time name="diis">    0.80    0.81</time>
   <time name="orth">    0.07    0.07</time>
   <time name="total">    1.70    1.72</time>
   <energy>
    <i name="alphaZ">    301.10675736 </i>
    <i name="ewald">  -8824.54529446 </i>
    <i name="hartreedc">  -2203.12483009 </i>
    <i name="XCdc">    537.87937287 </i>
    <i name="pawpsdc">   9818.06670042 </i>
    <i name="pawaedc">  -9962.05319005 </i>
    <i name="eentropy">     -0.00000000 </i>
    <i name="bandstr">  -2629.20609511 </i>
    <i name="atom">  12703.13999606 </i>
    <i name="e_fr_energy">   -258.73658299 </i>
    <i name="e_wo_entrp">   -258.73658299 </i>
    <i name="e_0_energy">   -258.73658299 </i>
   </energy>
  </scstep>
  <structure>
   <crystal>
    <varray name="basis" >
     <v>       9.66037050       0.00000000       0.00000000 </v>
     <v>       0.00000000       9.66037050       0.00000000 </v>
     <v>       0.00000000       0.00000000       9.66037050 </v>
    </varray>
    <i name="volume">    901.53242014 </i>
    <varray name="rec_basis" >
     <v>       0.10351570       0.00000000       0.00000000 </v>
     <v>       0.00000000       0.10351570       0.00000000 </v>
     <v>       0.00000000       0.00000000       0.10351570 </v>
    </varray>
   </crystal>
   <varray name="positions" >
    <v>       0.98387690       0.27243837       0.28816178 </v>
    <v>       0.96070897       0.65998410       0.65897942 </v>
    <v>       0.03337255       0.22605133       0.87143148 </v>
    <v>       0.03292220       0.71035558       0.31572638 </v>
    <v>       0.33370119       0.29957218       0.98302156 </v>
    <v>       0.28363142       0.69315859       0.00853178 </v>
    <v>       0.66973387       0.32906999       0.04569282 </v>
    <v>       0.83179606       0.79262076       0.96494568 </v>
    <v>       0.17668591       0.96075616       0.16461564 </v>
    <v>       0.19187888       0.01272459       0.78818447 </v>
    <v>       0.80166393       0.99566573       0.78350121 </v>
    <v>       0.81273540       0.04319927       0.16421994 </v>
    <v>       0.32559307       0.83710733       0.44924253 </v>
    <v>       0.17953030       0.30314715       0.54002537 </v>
    <v>       0.70658148       0.82372048       0.50692946 </v>
    <v>       0.72640754       0.20470196       0.49353558 </v>
    <v>       0.28699974       0.48255684       0.78002917 </v>
    <v>       0.21747708       0.51196432       0.28623422 </v>
    <v>       0.80033150       0.47652307       0.32473867 </v>
    <v>       0.66404463       0.55229693       0.81145322 </v>
    <v>       0.46725694       0.18699643       0.68643505 </v>
    <v>       0.49012599       0.68151065       0.18581837 </v>
    <v>       0.52200628       0.16750202       0.31278789 </v>
    <v>       0.52382530       0.81286101       0.70328870 </v>
    <v>       0.50064346       0.50147168       0.50121470 </v>
    <v>       0.50319265       0.99781424       0.99962910 </v>
    <v>       0.98860151       0.50243794       0.99933828 </v>
    <v>       0.01468778       0.00191242       0.49405739 </v>
    <v>       0.12290959       0.85738264       0.60457123 </v>
    <v>       0.15047580       0.11222338       0.37398235 </v>
    <v>       0.88307408       0.90002923       0.36114996 </v>
    <v>       0.91716706       0.13999930       0.62382596 </v>
    <v>       0.87861296       0.62210393       0.13448505 </v>
    <v>       0.85225767       0.39220451       0.88064052 </v>
    <v>       0.10118027       0.62613085       0.86743526 </v>
    <v>       0.11776580       0.36743966       0.10344240 </v>
    <v>       0.61864158       0.13393512       0.88392550 </v>
    <v>       0.63384064       0.87434080       0.11134013 </v>
    <v>       0.37643510       0.10922427       0.12825465 </v>
    <v>       0.37604937       0.87874623       0.87715526 </v>
    <v>       0.62282584       0.62684454       0.38013109 </v>
    <v>       0.62124604       0.38449893       0.63082677 </v>
    <v>       0.37499352       0.63320413       0.61068933 </v>
    <v>       0.38319289       0.36670358       0.38689802 </v>
    <v>       0.75433201       0.76449031       0.73696510 </v>
    <v>       0.74630161       0.25201118       0.26067438 </v>
    <v>       0.25840909       0.74257933       0.23733041 </v>
    <v>       0.24939163       0.24757532       0.76310394 </v>
    <v>       0.99052510       0.00115279       0.98169305 </v>
    <v>       0.01686025       0.49346762       0.45719182 </v>
    <v>       0.52382224       0.00364441       0.51469361 </v>
    <v>       0.47743253       0.50766990       0.98723349 </v>
   </varray>
  </structure>
  <varray name="forces" >
   <v>       0.00000360      -0.00017081       0.00032999 </v>
   <v>      -0.00009864      -0.00054540       0.00013132 </v>
   <v>      -0.00053007       0.00005809      -0.00131073 </v>
   <v>       0.00006852       0.00002531       0.00053544 </v>
   <v>      -0.00009233      -0.00036836       0.00005595 </v>
   <v>      -0.00006649       0.00011806       0.00001975 </v>
   <v>      -0.00014338       0.00018981       0.00007433 </v>
   <v>       0.00088182      -0.00022452      -0.00032110 </v>
   <v>      -0.00042538      -0.00003375       0.00024705 </v>
   <v>      -0.00002025      -0.00008516       0.00043607 </v>
   <v>      -0.00013797       0.00003047      -0.00004837 </v>
   <v>      -0.00004258       0.00036166      -0.00061015 </v>
   <v>      -0.00019347       0.00035891       0.00003986 </v>
   <v>       0.00050339       0.00039849      -0.00002528 </v>
   <v>       0.00023519       0.00010433      -0.00008840 </v>
   <v>      -0.00055274      -0.00073733      -0.00006630 </v>
   <v>       0.00031535       0.00004957       0.00035508 </v>
   <v>      -0.00002079       0.00000059      -0.00009689 </v>
   <v>       0.00006212      -0.00006267       0.00044749 </v>
   <v>      -0.00022114       0.00015674       0.00004163 </v>
[...]
       <r>     7.9371    10.0132   143.5703 </r>
       <r>     8.1297    12.7018   146.0187 </r>
       <r>     8.3222    16.1869   149.1370 </r>
       <r>     8.5147    13.3580   151.7108 </r>
       <r>     8.7072    13.6029   154.3296 </r>
       <r>     8.8997    19.6318   158.1091 </r>
       <r>     9.0922    16.8784   161.3597 </r>
       <r>     9.2848    16.9328   164.6209 </r>
       <r>     9.4773    18.5226   168.1904 </r>
       <r>     9.6698    17.6390   171.5888 </r>
       <r>     9.8623    17.0027   174.8670 </r>
       <r>    10.0548     5.8745   176.0000 </r>
       <r>    10.2473     0.0000   176.0000 </r>
       <r>    10.4398     0.0000   176.0000 </r>
       <r>    10.6324     0.0000   176.0000 </r>
       <r>    10.8249     0.0000   176.0000 </r>
       <r>    11.0174     0.0000   176.0000 </r>
       <r>    11.2099     0.0000   176.0000 </r>
       <r>    11.4024     0.0000   176.0000 </r>
       <r>    11.5949     0.0000   176.0000 </r>
       <r>    11.7875     0.0000   176.0000 </r>
       <r>    11.9800     0.0000   176.0000 </r>
       <r>    12.1725     0.0000   176.0000 </r>
       <r>    12.3650     0.0000   176.0000 </r>
       <r>    12.5575     0.0000   176.0000 </r>
      </set>
      <set comment="spin 2">
       <r>   -45.1972     0.0000     0.0000 </r>
       <r>   -45.0047     0.0000     0.0000 </r>
       <r>   -44.8122     0.0000     0.0000 </r>
       <r>   -44.6197     0.0000     0.0000 </r>
       <r>   -44.4272     0.0000     0.0000 </r>
       <r>   -44.2347     0.0000     0.0000 </r>
       <r>   -44.0421     0.0000     0.0000 </r>
       <r>   -43.8496     0.0000     0.0000 </r>
       <r>   -43.6571     0.0000     0.0000 </r>
       <r>   -43.4646     0.0000     0.0000 </r>
       <r>   -43.2721     0.0000     0.0000 </r>
       <r>   -43.0796     0.0000     0.0000 </r>
       <r>   -42.8870     0.0000     0.0000 </r>
       <r>   -42.6945     0.0000     0.0000 </r>
       <r>   -42.5020    20.9988     4.0426 </r>
       <r>   -42.3095    70.7338    17.6605 </r>
       <r>   -42.1170    32.9244    24.0000 </r>
       <r>   -41.9245     0.0000    24.0000 </r>
       <r>   -41.7319     0.0000    24.0000 </r>
       <r>   -41.5394     0.0000    24.0000 </r>
       <r>   -41.3469     0.0000    24.0000 </r>
       <r>   -41.1544     0.0000    24.0000 </r>
       <r>   -40.9619     0.0000    24.0000 </r>
       <r>   -40.7694     0.0000    24.0000 </r>
       <r>   -40.5769     0.0000    24.0000 </r>
       <r>   -40.3843     0.0000    24.0000 </r>
       <r>   -40.1918     0.0000    24.0000 </r>
       <r>   -39.9993     0.0000    24.0000 </r>
       <r>   -39.8068     0.0000    24.0000 </r>
       <r>   -39.6143     0.0000    24.0000 </r>
       <r>   -39.4218     0.0000    24.0000 </r>
       <r>   -39.2292     0.0000    24.0000 </r>
       <r>   -39.0367     0.0000    24.0000 </r>
       <r>   -38.8442     0.0000    24.0000 </r>
       <r>   -38.6517     0.0000    24.0000 </r>
       <r>   -38.4592     0.0000    24.0000 </r>
       <r>   -38.2667     0.0000    24.0000 </r>
       <r>   -38.0741     0.0000    24.0000 </r>
       <r>   -37.8816     0.0000    24.0000 </r>
       <r>   -37.6891     0.0000    24.0000 </r>
       <r>   -37.4966     0.0000    24.0000 </r>
       <r>   -37.3041     0.0000    24.0000 </r>
       <r>   -37.1116     0.0000    24.0000 </r>
       <r>   -36.9190     0.0000    24.0000 </r>
       <r>   -36.7265     0.0000    24.0000 </r>
       <r>   -36.5340     0.0000    24.0000 </r>
       <r>   -36.3415     0.0000    24.0000 </r>
       <r>   -36.1490     0.0000    24.0000 </r>
       <r>   -35.9565     0.0000    24.0000 </r>
       <r>   -35.7640     0.0000    24.0000 </r>
       <r>   -35.5714     0.0000    24.0000 </r>
       <r>   -35.3789     0.0000    24.0000 </r>
       <r>   -35.1864     0.0000    24.0000 </r>
       <r>   -34.9939     0.0000    24.0000 </r>
       <r>   -34.8014     0.0000    24.0000 </r>
       <r>   -34.6089     0.0000    24.0000 </r>
       <r>   -34.4163     0.0000    24.0000 </r>
       <r>   -34.2238     0.0000    24.0000 </r>
       <r>   -34.0313     0.0000    24.0000 </r>
       <r>   -33.8388     0.0000    24.0000 </r>
       <r>   -33.6463     0.0000    24.0000 </r>
       <r>   -33.4538     0.0000    24.0000 </r>
       <r>   -33.2612     0.0000    24.0000 </r>
       <r>   -33.0687     0.0000    24.0000 </r>
       <r>   -32.8762     0.0000    24.0000 </r>
       <r>   -32.6837     0.0000    24.0000 </r>
       <r>   -32.4912     0.0000    24.0000 </r>
       <r>   -32.2987     0.0000    24.0000 </r>
       <r>   -32.1062     0.0000    24.0000 </r>
       <r>   -31.9136     0.0000    24.0000 </r>
       <r>   -31.7211     0.0000    24.0000 </r>
       <r>   -31.5286     0.0000    24.0000 </r>
       <r>   -31.3361     0.0000    24.0000 </r>
       <r>   -31.1436     0.0000    24.0000 </r>
       <r>   -30.9511     0.0000    24.0000 </r>
       <r>   -30.7585     0.0000    24.0000 </r>
       <r>   -30.5660     0.0000    24.0000 </r>
       <r>   -30.3735     0.0000    24.0000 </r>
       <r>   -30.1810     0.0000    24.0000 </r>
       <r>   -29.9885     0.0000    24.0000 </r>
       <r>   -29.7960     0.0000    24.0000 </r>
       <r>   -29.6034     0.0000    24.0000 </r>
       <r>   -29.4109     0.0000    24.0000 </r>
       <r>   -29.2184     0.0000    24.0000 </r>
       <r>   -29.0259     0.0000    24.0000 </r>
       <r>   -28.8334     0.0000    24.0000 </r>
       <r>   -28.6409     0.0000    24.0000 </r>
       <r>   -28.4484     0.0000    24.0000 </r>
       <r>   -28.2558     0.0000    24.0000 </r>
       <r>   -28.0633     0.0000    24.0000 </r>
       <r>   -27.8708     0.0000    24.0000 </r>
       <r>   -27.6783     0.0000    24.0000 </r>
       <r>   -27.4858     0.0000    24.0000 </r>
       <r>   -27.2933     0.0000    24.0000 </r>
       <r>   -27.1007     0.0000    24.0000 </r>
       <r>   -26.9082     0.0000    24.0000 </r>
       <r>   -26.7157     0.0000    24.0000 </r>
       <r>   -26.5232     0.0000    24.0000 </r>
       <r>   -26.3307     0.0000    24.0000 </r>
       <r>   -26.1382     0.0000    24.0000 </r>
       <r>   -25.9456     0.0000    24.0000 </r>
       <r>   -25.7531     0.0000    24.0000 </r>
       <r>   -25.5606     0.0000    24.0000 </r>
       <r>   -25.3681     0.0000    24.0000 </r>
       <r>   -25.1756     0.0000    24.0000 </r>
       <r>   -24.9831     0.0000    24.0000 </r>
       <r>   -24.7906     0.0000    24.0000 </r>
       <r>   -24.5980     0.0000    24.0000 </r>
       <r>   -24.4055     0.0000    24.0000 </r>
       <r>   -24.2130     0.0000    24.0000 </r>
       <r>   -24.0205     0.0000    24.0000 </r>
       <r>   -23.8280     0.0000    24.0000 </r>
       <r>   -23.6355     0.0000    24.0000 </r>
       <r>   -23.4429     0.0000    24.0000 </r>
       <r>   -23.2504     0.0000    24.0000 </r>
       <r>   -23.0579     0.0000    24.0000 </r>
       <r>   -22.8654     0.0000    24.0000 </r>
       <r>   -22.6729     0.0000    24.0000 </r>
       <r>   -22.4804     0.0000    24.0000 </r>
       <r>   -22.2878     0.0000    24.0000 </r>
       <r>   -22.0953     0.0000    24.0000 </r>
       <r>   -21.9028     0.0000    24.0000 </r>
       <r>   -21.7103     0.0000    24.0000 </r>
       <r>   -21.5178     0.0000    24.0000 </r>
       <r>   -21.3253     0.0000    24.0000 </r>
       <r>   -21.1327     0.0000    24.0000 </r>
       <r>   -20.9402     0.0000    24.0000 </r>
       <r>   -20.7477     0.0000    24.0000 </r>
       <r>   -20.5552     0.0000    24.0000 </r>
       <r>   -20.3627     0.0000    24.0000 </r>
       <r>   -20.1702     0.0000    24.0000 </r>
       <r>   -19.9777     0.0000    24.0000 </r>
       <r>   -19.7851     0.0000    24.0000 </r>
       <r>   -19.5926     0.0000    24.0000 </r>
       <r>   -19.4001     0.0000    24.0000 </r>
       <r>   -19.2076     0.0000    24.0000 </r>
       <r>   -19.0151     0.0000    24.0000 </r>
       <r>   -18.8226     0.0000    24.0000 </r>
       <r>   -18.6300     0.0000    24.0000 </r>
       <r>   -18.4375     0.0000    24.0000 </r>
       <r>   -18.2450     0.0000    24.0000 </r>
       <r>   -18.0525     0.0000    24.0000 </r>
       <r>   -17.8600     0.0000    24.0000 </r>
       <r>   -17.6675     0.0000    24.0000 </r>
       <r>   -17.4749     0.0000    24.0000 </r>
       <r>   -17.2824     0.0000    24.0000 </r>
       <r>   -17.0899     0.0000    24.0000 </r>
       <r>   -16.8974     0.0000    24.0000 </r>
       <r>   -16.7049     0.0000    24.0000 </r>
       <r>   -16.5124     0.0000    24.0000 </r>
       <r>   -16.3199     0.0000    24.0000 </r>
       <r>   -16.1273     0.0000    24.0000 </r>
       <r>   -15.9348     0.0000    24.0000 </r>
       <r>   -15.7423     0.0000    24.0000 </r>
       <r>   -15.5498     0.0000    24.0000 </r>
       <r>   -15.3573     0.0000    24.0000 </r>
       <r>   -15.1648     0.0000    24.0000 </r>
       <r>   -14.9722     0.0000    24.0000 </r>
       <r>   -14.7797     0.0000    24.0000 </r>
       <r>   -14.5872     0.0000    24.0000 </r>
       <r>   -14.3947     0.0000    24.0000 </r>
       <r>   -14.2022     0.0000    24.0000 </r>
       <r>   -14.0097     0.0000    24.0000 </r>
       <r>   -13.8171     0.0000    24.0000 </r>
       <r>   -13.6246     0.0000    24.0000 </r>
       <r>   -13.4321     0.0000    24.0000 </r>
       <r>   -13.2396     0.0000    24.0000 </r>
       <r>   -13.0471     2.8099    24.5409 </r>
       <r>   -12.8546    17.9630    27.9991 </r>
       <r>   -12.6621     3.2603    28.6277 </r>
       <r>   -12.4695    17.5172    32.0000 </r>
       <r>   -12.2770     0.0000    32.0000 </r>
       <r>   -12.0845     0.0000    32.0000 </r>
       <r>   -11.8920     0.0000    32.0000 </r>
       <r>   -11.6995     0.0000    32.0000 </r>
       <r>   -11.5070     0.0000    32.0000 </r>
       <r>   -11.3144     0.0000    32.0000 </r>
       <r>   -11.1219     0.0000    32.0000 </r>
       <r>   -10.9294     0.0000    32.0000 </r>
       <r>   -10.7369     0.0000    32.0000 </r>
       <r>   -10.5444     0.0000    32.0000 </r>
       <r>   -10.3519     0.0016    32.0003 </r>
       <r>   -10.1593    15.6932    35.0215 </r>
       <r>    -9.9668    22.0578    39.2706 </r>
       <r>    -9.7743    24.5493    43.9998 </r>
       <r>    -9.5818     0.0000    44.0000 </r>
       <r>    -9.3893     0.0000    44.0000 </r>
       <r>    -9.1968     0.0000    44.0000 </r>
       <r>    -9.0043     0.0000    44.0000 </r>
       <r>    -8.8117     0.0000    44.0000 </r>
       <r>    -8.6192     0.0000    44.0000 </r>
       <r>    -8.4267     0.0476    44.0092 </r>
       <r>    -8.2342    20.4818    47.9522 </r>
       <r>    -8.0417     0.1853    48.0000 </r>
       <r>    -7.8492     0.0000    48.0000 </r>
       <r>    -7.6566     0.0000    48.0000 </r>
       <r>    -7.4641     0.0000    48.0000 </r>
       <r>    -7.2716     0.0000    48.0000 </r>
       <r>    -7.0791     0.0000    48.0000 </r>
       <r>    -6.8866     0.0000    48.0000 </r>
       <r>    -6.6941     0.0000    48.0000 </r>
       <r>    -6.5015     0.0000    48.0000 </r>
       <r>    -6.3090     0.0000    48.0000 </r>
       <r>    -6.1165     2.1062    48.4055 </r>
       <r>    -5.9240     3.0882    49.0000 </r>
       <r>    -5.7315     1.1228    49.2162 </r>
       <r>    -5.5390    14.2194    51.9536 </r>
       <r>    -5.3464     0.2311    52.0000 </r>
       <r>    -5.1539     0.0000    52.0000 </r>
       <r>    -4.9614     0.0000    52.0000 </r>
       <r>    -4.7689     0.0000    52.0000 </r>
       <r>    -4.5764     0.0000    52.0000 </r>
       <r>    -4.3839     0.0000    52.0000 </r>
       <r>    -4.1914     0.0000    52.0000 </r>
       <r>    -3.9988     0.0000    52.0000 </r>
       <r>    -3.8063     0.0000    52.0000 </r>
       <r>    -3.6138     0.0000    52.0000 </r>
       <r>    -3.4213     0.0000    52.0000 </r>
       <r>    -3.2288     2.7961    52.5383 </r>
       <r>    -3.0363    12.7871    55.0000 </r>
       <r>    -2.8437     3.0748    55.5920 </r>
       <r>    -2.6512    10.8818    57.6869 </r>
       <r>    -2.4587     9.6421    59.5457 </r>
       <r>    -2.2662    19.5274    63.3059 </r>
       <r>    -2.0737     3.5930    64.0000 </r>
       <r>    -1.8812     0.0000    64.0000 </r>
       <r>    -1.6886     0.0000    64.0000 </r>
       <r>    -1.4961    11.2068    66.1575 </r>
       <r>    -1.3036    24.3726    70.8519 </r>
       <r>    -1.1111    19.6446    74.6357 </r>
       <r>    -0.9186     7.0787    76.0000 </r>
       <r>    -0.7261     0.0000    76.0000 </r>
       <r>    -0.5336     5.3872    77.0371 </r>
       <r>    -0.3410    12.4359    79.4312 </r>
       <r>    -0.1485    10.4335    81.4398 </r>
       <r>     0.0440    28.4071    86.9087 </r>
       <r>     0.2365    26.5498    92.0206 </r>
       <r>     0.4290    17.8587    95.4608 </r>
       <r>     0.6215     2.7906    96.0000 </r>
       <r>     0.8141     8.9258    97.7184 </r>
       <r>     1.0066    19.7535   101.5245 </r>
       <r>     1.1991    22.3987   105.8375 </r>
       <r>     1.3916    25.0348   110.6611 </r>
       <r>     1.5841    30.0183   116.4427 </r>
       <r>     1.7766    17.3208   119.7797 </r>
       <r>     1.9692     1.1441   120.0000 </r>
       <r>     2.1617     0.0000   120.0000 </r>
       <r>     2.3542     0.0000   120.0000 </r>
       <r>     2.5467     0.0000   120.0000 </r>
       <r>     2.7392     0.0000   120.0000 </r>
       <r>     2.9317     0.0000   120.0000 </r>
       <r>     3.1242     0.0000   120.0000 </r>
       <r>     3.3168     0.0000   120.0000 </r>
       <r>     3.5093     0.0000   120.0000 </r>
       <r>     3.7018     0.0000   120.0000 </r>
       <r>     3.8943     0.0000   120.0000 </r>
       <r>     4.0868     0.0000   120.0000 </r>
       <r>     4.2793     0.0000   120.0000 </r>
       <r>     4.4719     4.1864   120.8059 </r>
       <r>     4.6644     1.0080   121.0000 </r>
       <r>     4.8569     0.0000   121.0000 </r>
       <r>     5.0494     0.0000   121.0000 </r>
       <r>     5.2419     3.5956   121.6922 </r>
       <r>     5.4344    11.9463   123.9921 </r>
       <r>     5.6270     0.0206   124.0000 </r>
       <r>     5.8195     0.0007   124.0001 </r>
       <r>     6.0120     9.6508   125.8581 </r>
       <r>     6.2045    15.0071   128.7482 </r>
       <r>     6.3970     6.4858   130.0000 </r>
       <r>     6.5895     7.8843   131.5178 </r>
       <r>     6.7820     9.1520   133.2798 </r>
       <r>     6.9746    14.0650   135.9875 </r>
       <r>     7.1671     5.1210   136.9737 </r>
       <r>     7.3596     1.2246   137.2143 </r>
       <r>     7.5521     9.9778   139.1352 </r>
       <r>     7.7446    13.0123   141.6419 </r>
       <r>     7.9371    10.0132   143.5703 </r>
       <r>     8.1297    12.7018   146.0187 </r>
       <r>     8.3222    16.1869   149.1370 </r>
       <r>     8.5147    13.3580   151.7108 </r>
       <r>     8.7072    13.6029   154.3296 </r>
       <r>     8.8997    19.6318   158.1091 </r>
       <r>     9.0922    16.8784   161.3597 </r>
       <r>     9.2848    16.9327   164.6209 </r>
       <r>     9.4773    18.5166   168.1892 </r>
       <r>     9.6698    17.5513   171.5708 </r>
       <r>     9.8623    16.6395   174.7792 </r>
       <r>    10.0548     6.3333   176.0000 </r>
       <r>    10.2473     0.0000   176.0000 </r>
       <r>    10.4398     0.0000   176.0000 </r>
       <r>    10.6324     0.0000   176.0000 </r>
       <r>    10.8249     0.0000   176.0000 </r>
       <r>    11.0174     0.0000   176.0000 </r>
       <r>    11.2099     0.0000   176.0000 </r>
       <r>    11.4024     0.0000   176.0000 </r>
       <r>    11.5949     0.0000   176.0000 </r>
       <r>    11.7875     0.0000   176.0000 </r>
       <r>    11.9800     0.0000   176.0000 </r>
       <r>    12.1725     0.0000   176.0000 </r>
       <r>    12.3650     0.0000   176.0000 </r>
       <r>    12.5575     0.0000   176.0000 </r>
      </set>
     </set>
    </array>
   </total>
  </dos>
 </calculation>
 <structure name="finalpos" >
  <crystal>
   <varray name="basis" >
    <v>       9.66037050       0.00000000       0.00000000 </v>
    <v>       0.00000000       9.66037050       0.00000000 </v>
    <v>       0.00000000       0.00000000       9.66037050 </v>
   </varray>
   <i name="volume">    901.53242014 </i>
   <varray name="rec_basis" >
    <v>       0.10351570       0.00000000       0.00000000 </v>
    <v>       0.00000000       0.10351570       0.00000000 </v>
    <v>       0.00000000       0.00000000       0.10351570 </v>
   </varray>
  </crystal>
  <varray name="positions" >
   <v>       0.98387670       0.27243622       0.28816620 </v>
   <v>       0.96070763       0.65997730       0.65898061 </v>
   <v>       0.03336522       0.22605243       0.87141374 </v>
   <v>       0.03292308       0.71035636       0.31573334 </v>
   <v>       0.33369938       0.29956725       0.98302260 </v>
   <v>       0.28363022       0.69316096       0.00853242 </v>
   <v>       0.66973128       0.32907366       0.04569394 </v>
   <v>       0.83180760       0.79261804       0.96494150 </v>
   <v>       0.17668013       0.96075617       0.16461868 </v>
   <v>       0.19187822       0.01272323       0.78819010 </v>
   <v>       0.80166137       0.99566687       0.78350008 </v>
   <v>       0.81273443       0.04320430       0.16421139 </v>
   <v>       0.32559034       0.83711254       0.44924283 </v>
   <v>       0.17953675       0.30315254       0.54002437 </v>
   <v>       0.70658565       0.82372264       0.50692712 </v>
   <v>       0.72639983       0.20469220       0.49353434 </v>
   <v>       0.28700389       0.48255799       0.78003353 </v>
   <v>       0.21747656       0.51196468       0.28623175 </v>
   <v>       0.80033208       0.47652220       0.32474443 </v>
   <v>       0.66404050       0.55229969       0.81145367 </v>
   <v>       0.46725800       0.18699730       0.68643654 </v>
   <v>       0.49012542       0.68151060       0.18581950 </v>
   <v>       0.52200542       0.16750337       0.31278424 </v>
   <v>       0.52382576       0.81286195       0.70328376 </v>
   <v>       0.50064398       0.50147362       0.50121513 </v>
   <v>       0.50319179       0.99781324       0.99962706 </v>
   <v>       0.98860164       0.50243695       0.99933941 </v>
   <v>       0.01468847       0.00191457       0.49405976 </v>
   <v>       0.12290658       0.85738178       0.60457325 </v>
   <v>       0.15048067       0.11222498       0.37398615 </v>
   <v>       0.88307539       0.90003355       0.36114606 </v>
   <v>       0.91716414       0.13999997       0.62382407 </v>
   <v>       0.87861409       0.62210461       0.13448978 </v>
   <v>       0.85225579       0.39220721       0.88064157 </v>
   <v>       0.10117833       0.62612784       0.86743977 </v>
   <v>       0.11776609       0.36743518       0.10344483 </v>
   <v>       0.61864017       0.13393371       0.88392961 </v>
   <v>       0.63384783       0.87433354       0.11134113 </v>
   <v>       0.37643421       0.10921878       0.12825462 </v>
   <v>       0.37605297       0.87874494       0.87715437 </v>
   <v>       0.62282759       0.62684666       0.38013089 </v>
   <v>       0.62124711       0.38449935       0.63082541 </v>
   <v>       0.37499342       0.63320276       0.61068818 </v>
   <v>       0.38319391       0.36670483       0.38689380 </v>
   <v>       0.75433220       0.76449145       0.73696303 </v>
   <v>       0.74630130       0.25201202       0.26067444 </v>
   <v>       0.25840814       0.74257962       0.23733134 </v>
   <v>       0.24939216       0.24757578       0.76310336 </v>
   <v>       0.99052534       0.00115295       0.98169101 </v>
   <v>       0.01686112       0.49346728       0.45719317 </v>
   <v>       0.52382546       0.00364674       0.51469348 </v>
   <v>       0.47742984       0.50766866       0.98723375 </v>
  </varray>
 </structure>
</modeling>
