  52  52   0  16
  0.1732244E+02  0.9657635E-09  0.9657635E-09  0.9657635E-09  0.2000000E-15
  1.000000000000000E-004
  CAR 
 unknown system                          
     12.59298663    -45.20088444  301      2.04560516      1.00000000
    -45.201  0.0000E+00  0.0000E+00  0.0000E+00  0.0000E+00
    -45.008  0.0000E+00  0.0000E+00  0.0000E+00  0.0000E+00
    -44.816  0.0000E+00  0.0000E+00  0.0000E+00  0.0000E+00
    -44.623  0.0000E+00  0.0000E+00  0.0000E+00  0.0000E+00
    -44.430  0.0000E+00  0.0000E+00  0.0000E+00  0.0000E+00
    -44.238  0.0000E+00  0.0000E+00  0.0000E+00  0.0000E+00
    -44.045  0.0000E+00  0.0000E+00  0.0000E+00  0.0000E+00
    -43.852  0.0000E+00  0.0000E+00  0.0000E+00  0.0000E+00
    -43.660  0.0000E+00  0.0000E+00  0.0000E+00  0.0000E+00
    -43.467  0.0000E+00  0.0000E+00  0.0000E+00  0.0000E+00
    -43.274  0.0000E+00  0.0000E+00  0.0000E+00  0.0000E+00
    -43.082  0.0000E+00  0.0000E+00  0.0000E+00  0.0000E+00
    -42.889  0.0000E+00  0.0000E+00  0.0000E+00  0.0000E+00
    -42.696  0.1949E-10  0.1949E-10  0.3754E-11  0.3754E-11
    -42.504  0.1054E-01  0.1054E-01  0.2030E-02  0.2030E-02
    -42.311  0.7272E-01  0.7272E-01  0.1604E-01  0.1604E-01
    -42.119  0.4127E-01  0.4127E-01  0.2400E-01  0.2400E-01
    -41.926  0.0000E+00  0.0000E+00  0.2400E-01  0.2400E-01
    -41.733  0.0000E+00  0.0000E+00  0.2400E-01  0.2400E-01
    -41.541  0.0000E+00  0.0000E+00  0.2400E-01  0.2400E-01
    -41.348  0.0000E+00  0.0000E+00  0.2400E-01  0.2400E-01
    -41.155  0.0000E+00  0.0000E+00  0.2400E-01  0.2400E-01
    -40.963  0.0000E+00  0.0000E+00  0.2400E-01  0.2400E-01
    -40.770  0.0000E+00  0.0000E+00  0.2400E-01  0.2400E-01
    -40.577  0.0000E+00  0.0000E+00  0.2400E-01  0.2400E-01
    -40.385  0.0000E+00  0.0000E+00  0.2400E-01  0.2400E-01
    -40.192  0.0000E+00  0.0000E+00  0.2400E-01  0.2400E-01
    -39.999  0.0000E+00  0.0000E+00  0.2400E-01  0.2400E-01
    -39.807  0.0000E+00  0.0000E+00  0.2400E-01  0.2400E-01
    -39.614  0.0000E+00  0.0000E+00  0.2400E-01  0.2400E-01
    -39.421  0.0000E+00  0.0000E+00  0.2400E-01  0.2400E-01
    -39.229  0.0000E+00  0.0000E+00  0.2400E-01  0.2400E-01
    -39.036  0.0000E+00  0.0000E+00  0.2400E-01  0.2400E-01
    -38.844  0.0000E+00  0.0000E+00  0.2400E-01  0.2400E-01
    -38.651  0.0000E+00  0.0000E+00  0.2400E-01  0.2400E-01
    -38.458  0.0000E+00  0.0000E+00  0.2400E-01  0.2400E-01
    -38.266  0.0000E+00  0.0000E+00  0.2400E-01  0.2400E-01
    -38.073  0.0000E+00  0.0000E+00  0.2400E-01  0.2400E-01
    -37.880  0.0000E+00  0.0000E+00  0.2400E-01  0.2400E-01
    -37.688  0.0000E+00  0.0000E+00  0.2400E-01  0.2400E-01
    -37.495  0.0000E+00  0.0000E+00  0.2400E-01  0.2400E-01
    -37.302  0.0000E+00  0.0000E+00  0.2400E-01  0.2400E-01
    -37.110  0.0000E+00  0.0000E+00  0.2400E-01  0.2400E-01
    -36.917  0.0000E+00  0.0000E+00  0.2400E-01  0.2400E-01
    -36.724  0.0000E+00  0.0000E+00  0.2400E-01  0.2400E-01
    -36.532  0.0000E+00  0.0000E+00  0.2400E-01  0.2400E-01
    -36.339  0.0000E+00  0.0000E+00  0.2400E-01  0.2400E-01
    -36.147  0.0000E+00  0.0000E+00  0.2400E-01  0.2400E-01
    -35.954  0.0000E+00  0.0000E+00  0.2400E-01  0.2400E-01
    -35.761  0.0000E+00  0.0000E+00  0.2400E-01  0.2400E-01
    -35.569  0.0000E+00  0.0000E+00  0.2400E-01  0.2400E-01
    -35.376  0.0000E+00  0.0000E+00  0.2400E-01  0.2400E-01
    -35.183  0.0000E+00  0.0000E+00  0.2400E-01  0.2400E-01
    -34.991  0.0000E+00  0.0000E+00  0.2400E-01  0.2400E-01
    -34.798  0.0000E+00  0.0000E+00  0.2400E-01  0.2400E-01
    -34.605  0.0000E+00  0.0000E+00  0.2400E-01  0.2400E-01
    -34.413  0.0000E+00  0.0000E+00  0.2400E-01  0.2400E-01
    -34.220  0.0000E+00  0.0000E+00  0.2400E-01  0.2400E-01
    -34.027  0.0000E+00  0.0000E+00  0.2400E-01  0.2400E-01
    -33.835  0.0000E+00  0.0000E+00  0.2400E-01  0.2400E-01
    -33.642  0.0000E+00  0.0000E+00  0.2400E-01  0.2400E-01
    -33.449  0.0000E+00  0.0000E+00  0.2400E-01  0.2400E-01
    -33.257  0.0000E+00  0.0000E+00  0.2400E-01  0.2400E-01
    -33.064  0.0000E+00  0.0000E+00  0.2400E-01  0.2400E-01
    -32.872  0.0000E+00  0.0000E+00  0.2400E-01  0.2400E-01
    -32.679  0.0000E+00  0.0000E+00  0.2400E-01  0.2400E-01
    -32.486  0.0000E+00  0.0000E+00  0.2400E-01  0.2400E-01
    -32.294  0.0000E+00  0.0000E+00  0.2400E-01  0.2400E-01
    -32.101  0.0000E+00  0.0000E+00  0.2400E-01  0.2400E-01
    -31.908  0.0000E+00  0.0000E+00  0.2400E-01  0.2400E-01
    -31.716  0.0000E+00  0.0000E+00  0.2400E-01  0.2400E-01
    -31.523  0.0000E+00  0.0000E+00  0.2400E-01  0.2400E-01
    -31.330  0.0000E+00  0.0000E+00  0.2400E-01  0.2400E-01
    -31.138  0.0000E+00  0.0000E+00  0.2400E-01  0.2400E-01
    -30.945  0.0000E+00  0.0000E+00  0.2400E-01  0.2400E-01
    -30.752  0.0000E+00  0.0000E+00  0.2400E-01  0.2400E-01
    -30.560  0.0000E+00  0.0000E+00  0.2400E-01  0.2400E-01
    -30.367  0.0000E+00  0.0000E+00  0.2400E-01  0.2400E-01
    -30.174  0.0000E+00  0.0000E+00  0.2400E-01  0.2400E-01
    -29.982  0.0000E+00  0.0000E+00  0.2400E-01  0.2400E-01
    -29.789  0.0000E+00  0.0000E+00  0.2400E-01  0.2400E-01
    -29.597  0.0000E+00  0.0000E+00  0.2400E-01  0.2400E-01
    -29.404  0.0000E+00  0.0000E+00  0.2400E-01  0.2400E-01
    -29.211  0.0000E+00  0.0000E+00  0.2400E-01  0.2400E-01
    -29.019  0.0000E+00  0.0000E+00  0.2400E-01  0.2400E-01
    -28.826  0.0000E+00  0.0000E+00  0.2400E-01  0.2400E-01
    -28.633  0.0000E+00  0.0000E+00  0.2400E-01  0.2400E-01
    -28.441  0.0000E+00  0.0000E+00  0.2400E-01  0.2400E-01
    -28.248  0.0000E+00  0.0000E+00  0.2400E-01  0.2400E-01
    -28.055  0.0000E+00  0.0000E+00  0.2400E-01  0.2400E-01
    -27.863  0.0000E+00  0.0000E+00  0.2400E-01  0.2400E-01
    -27.670  0.0000E+00  0.0000E+00  0.2400E-01  0.2400E-01
    -27.477  0.0000E+00  0.0000E+00  0.2400E-01  0.2400E-01
    -27.285  0.0000E+00  0.0000E+00  0.2400E-01  0.2400E-01
    -27.092  0.0000E+00  0.0000E+00  0.2400E-01  0.2400E-01
    -26.899  0.0000E+00  0.0000E+00  0.2400E-01  0.2400E-01
    -26.707  0.0000E+00  0.0000E+00  0.2400E-01  0.2400E-01
    -26.514  0.0000E+00  0.0000E+00  0.2400E-01  0.2400E-01
    -26.322  0.0000E+00  0.0000E+00  0.2400E-01  0.2400E-01
    -26.129  0.0000E+00  0.0000E+00  0.2400E-01  0.2400E-01
    -25.936  0.0000E+00  0.0000E+00  0.2400E-01  0.2400E-01
    -25.744  0.0000E+00  0.0000E+00  0.2400E-01  0.2400E-01
    -25.551  0.0000E+00  0.0000E+00  0.2400E-01  0.2400E-01
    -25.358  0.0000E+00  0.0000E+00  0.2400E-01  0.2400E-01
    -25.166  0.0000E+00  0.0000E+00  0.2400E-01  0.2400E-01
    -24.973  0.0000E+00  0.0000E+00  0.2400E-01  0.2400E-01
    -24.780  0.0000E+00  0.0000E+00  0.2400E-01  0.2400E-01
    -24.588  0.0000E+00  0.0000E+00  0.2400E-01  0.2400E-01
    -24.395  0.0000E+00  0.0000E+00  0.2400E-01  0.2400E-01
    -24.202  0.0000E+00  0.0000E+00  0.2400E-01  0.2400E-01
    -24.010  0.0000E+00  0.0000E+00  0.2400E-01  0.2400E-01
    -23.817  0.0000E+00  0.0000E+00  0.2400E-01  0.2400E-01
    -23.625  0.0000E+00  0.0000E+00  0.2400E-01  0.2400E-01
    -23.432  0.0000E+00  0.0000E+00  0.2400E-01  0.2400E-01
    -23.239  0.0000E+00  0.0000E+00  0.2400E-01  0.2400E-01
    -23.047  0.0000E+00  0.0000E+00  0.2400E-01  0.2400E-01
    -22.854  0.0000E+00  0.0000E+00  0.2400E-01  0.2400E-01
    -22.661  0.0000E+00  0.0000E+00  0.2400E-01  0.2400E-01
    -22.469  0.0000E+00  0.0000E+00  0.2400E-01  0.2400E-01
    -22.276  0.0000E+00  0.0000E+00  0.2400E-01  0.2400E-01
    -22.083  0.0000E+00  0.0000E+00  0.2400E-01  0.2400E-01
    -21.891  0.0000E+00  0.0000E+00  0.2400E-01  0.2400E-01
    -21.698  0.0000E+00  0.0000E+00  0.2400E-01  0.2400E-01
    -21.505  0.0000E+00  0.0000E+00  0.2400E-01  0.2400E-01
    -21.313  0.0000E+00  0.0000E+00  0.2400E-01  0.2400E-01
    -21.120  0.0000E+00  0.0000E+00  0.2400E-01  0.2400E-01
    -20.927  0.0000E+00  0.0000E+00  0.2400E-01  0.2400E-01
    -20.735  0.0000E+00  0.0000E+00  0.2400E-01  0.2400E-01
    -20.542  0.0000E+00  0.0000E+00  0.2400E-01  0.2400E-01
    -20.350  0.0000E+00  0.0000E+00  0.2400E-01  0.2400E-01
    -20.157  0.0000E+00  0.0000E+00  0.2400E-01  0.2400E-01
    -19.964  0.0000E+00  0.0000E+00  0.2400E-01  0.2400E-01
    -19.772  0.0000E+00  0.0000E+00  0.2400E-01  0.2400E-01
    -19.579  0.0000E+00  0.0000E+00  0.2400E-01  0.2400E-01
    -19.386  0.0000E+00  0.0000E+00  0.2400E-01  0.2400E-01
    -19.194  0.0000E+00  0.0000E+00  0.2400E-01  0.2400E-01
    -19.001  0.0000E+00  0.0000E+00  0.2400E-01  0.2400E-01
    -18.808  0.0000E+00  0.0000E+00  0.2400E-01  0.2400E-01
    -18.616  0.0000E+00  0.0000E+00  0.2400E-01  0.2400E-01
    -18.423  0.0000E+00  0.0000E+00  0.2400E-01  0.2400E-01
    -18.230  0.0000E+00  0.0000E+00  0.2400E-01  0.2400E-01
    -18.038  0.0000E+00  0.0000E+00  0.2400E-01  0.2400E-01
    -17.845  0.0000E+00  0.0000E+00  0.2400E-01  0.2400E-01
    -17.652  0.0000E+00  0.0000E+00  0.2400E-01  0.2400E-01
    -17.460  0.0000E+00  0.0000E+00  0.2400E-01  0.2400E-01
    -17.267  0.0000E+00  0.0000E+00  0.2400E-01  0.2400E-01
    -17.075  0.0000E+00  0.0000E+00  0.2400E-01  0.2400E-01
    -16.882  0.0000E+00  0.0000E+00  0.2400E-01  0.2400E-01
    -16.689  0.0000E+00  0.0000E+00  0.2400E-01  0.2400E-01
    -16.497  0.0000E+00  0.0000E+00  0.2400E-01  0.2400E-01
    -16.304  0.0000E+00  0.0000E+00  0.2400E-01  0.2400E-01
    -16.111  0.0000E+00  0.0000E+00  0.2400E-01  0.2400E-01
    -15.919  0.0000E+00  0.0000E+00  0.2400E-01  0.2400E-01
    -15.726  0.0000E+00  0.0000E+00  0.2400E-01  0.2400E-01
    -15.533  0.0000E+00  0.0000E+00  0.2400E-01  0.2400E-01
    -15.341  0.0000E+00  0.0000E+00  0.2400E-01  0.2400E-01
    -15.148  0.0000E+00  0.0000E+00  0.2400E-01  0.2400E-01
    -14.955  0.0000E+00  0.0000E+00  0.2400E-01  0.2400E-01
    -14.763  0.0000E+00  0.0000E+00  0.2400E-01  0.2400E-01
    -14.570  0.0000E+00  0.0000E+00  0.2400E-01  0.2400E-01
    -14.377  0.0000E+00  0.0000E+00  0.2400E-01  0.2400E-01
    -14.185  0.0000E+00  0.0000E+00  0.2400E-01  0.2400E-01
    -13.992  0.0000E+00  0.0000E+00  0.2400E-01  0.2400E-01
    -13.800  0.0000E+00  0.0000E+00  0.2400E-01  0.2400E-01
    -13.607  0.0000E+00  0.0000E+00  0.2400E-01  0.2400E-01
    -13.414  0.0000E+00  0.0000E+00  0.2400E-01  0.2400E-01
    -13.222  0.2882E-18  0.2882E-18  0.2400E-01  0.2400E-01
    -13.029  0.4196E-02  0.4196E-02  0.2481E-01  0.2481E-01
    -12.836  0.1657E-01  0.1657E-01  0.2800E-01  0.2800E-01
    -12.644  0.4529E-02  0.4529E-02  0.2887E-01  0.2887E-01
    -12.451  0.1118E-01  0.1118E-01  0.3103E-01  0.3103E-01
    -12.258  0.5053E-02  0.5053E-02  0.3200E-01  0.3200E-01
    -12.066  0.0000E+00  0.0000E+00  0.3200E-01  0.3200E-01
    -11.873  0.0000E+00  0.0000E+00  0.3200E-01  0.3200E-01
    -11.680  0.0000E+00  0.0000E+00  0.3200E-01  0.3200E-01
    -11.488  0.0000E+00  0.0000E+00  0.3200E-01  0.3200E-01
    -11.295  0.0000E+00  0.0000E+00  0.3200E-01  0.3200E-01
    -11.103  0.0000E+00  0.0000E+00  0.3200E-01  0.3200E-01
    -10.910  0.0000E+00  0.0000E+00  0.3200E-01  0.3200E-01
    -10.717  0.0000E+00  0.0000E+00  0.3200E-01  0.3200E-01
    -10.525  0.0000E+00  0.0000E+00  0.3200E-01  0.3200E-01
    -10.332  0.1669E-05  0.1669E-05  0.3200E-01  0.3200E-01
    -10.139  0.1582E-01  0.1582E-01  0.3505E-01  0.3505E-01
     -9.947  0.2712E-01  0.2712E-01  0.4027E-01  0.4027E-01
     -9.754  0.1933E-01  0.1933E-01  0.4400E-01  0.4400E-01
     -9.561  0.0000E+00  0.0000E+00  0.4400E-01  0.4400E-01
     -9.369  0.0000E+00  0.0000E+00  0.4400E-01  0.4400E-01
     -9.176  0.0000E+00  0.0000E+00  0.4400E-01  0.4400E-01
     -8.983  0.0000E+00  0.0000E+00  0.4400E-01  0.4400E-01
     -8.791  0.0000E+00  0.0000E+00  0.4400E-01  0.4400E-01
     -8.598  0.0000E+00  0.0000E+00  0.4400E-01  0.4400E-01
     -8.405  0.7304E-03  0.7304E-03  0.4414E-01  0.4414E-01
     -8.213  0.1843E-01  0.1843E-01  0.4769E-01  0.4769E-01
     -8.020  0.1556E-02  0.1556E-02  0.4800E-01  0.4800E-01
     -7.828  0.0000E+00  0.0000E+00  0.4800E-01  0.4800E-01
     -7.635  0.0000E+00  0.0000E+00  0.4800E-01  0.4800E-01
     -7.442  0.0000E+00  0.0000E+00  0.4800E-01  0.4800E-01
     -7.250  0.0000E+00  0.0000E+00  0.4800E-01  0.4800E-01
     -7.057  0.0000E+00  0.0000E+00  0.4800E-01  0.4800E-01
     -6.864  0.0000E+00  0.0000E+00  0.4800E-01  0.4800E-01
     -6.672  0.0000E+00  0.0000E+00  0.4800E-01  0.4800E-01
     -6.479  0.0000E+00  0.0000E+00  0.4800E-01  0.4800E-01
     -6.286  0.2161E-18  0.2161E-18  0.4800E-01  0.4800E-01
     -6.094  0.4008E-02  0.4008E-02  0.4877E-01  0.4877E-01
     -5.901  0.1183E-02  0.1183E-02  0.4900E-01  0.4900E-01
     -5.708  0.2261E-02  0.2261E-02  0.4944E-01  0.4944E-01
     -5.516  0.1329E-01  0.1329E-01  0.5200E-01  0.5200E-01
     -5.323  0.2007E-04  0.2007E-04  0.5200E-01  0.5200E-01
     -5.130  0.0000E+00  0.0000E+00  0.5200E-01  0.5200E-01
     -4.938  0.0000E+00  0.0000E+00  0.5200E-01  0.5200E-01
     -4.745  0.0000E+00  0.0000E+00  0.5200E-01  0.5200E-01
     -4.553  0.0000E+00  0.0000E+00  0.5200E-01  0.5200E-01
     -4.360  0.0000E+00  0.0000E+00  0.5200E-01  0.5200E-01
     -4.167  0.0000E+00  0.0000E+00  0.5200E-01  0.5200E-01
     -3.975  0.0000E+00  0.0000E+00  0.5200E-01  0.5200E-01
     -3.782  0.0000E+00  0.0000E+00  0.5200E-01  0.5200E-01
     -3.589  0.0000E+00  0.0000E+00  0.5200E-01  0.5200E-01
     -3.397  0.0000E+00  0.0000E+00  0.5200E-01  0.5200E-01
     -3.204  0.4102E-02  0.4102E-02  0.5279E-01  0.5279E-01
     -3.011  0.1147E-01  0.1147E-01  0.5500E-01  0.5500E-01
     -2.819  0.3827E-02  0.3827E-02  0.5574E-01  0.5574E-01
     -2.626  0.1112E-01  0.1112E-01  0.5788E-01  0.5788E-01
     -2.433  0.1188E-01  0.1188E-01  0.6017E-01  0.6017E-01
     -2.241  0.1854E-01  0.1854E-01  0.6374E-01  0.6374E-01
     -2.048  0.1344E-02  0.1344E-02  0.6400E-01  0.6400E-01
     -1.855  0.0000E+00  0.0000E+00  0.6400E-01  0.6400E-01
     -1.663  0.9097E-14  0.9097E-14  0.6400E-01  0.6400E-01
     -1.470  0.9098E-02  0.9098E-02  0.6575E-01  0.6575E-01
     -1.278  0.3009E-01  0.3009E-01  0.7155E-01  0.7155E-01
     -1.085  0.1261E-01  0.1261E-01  0.7399E-01  0.7399E-01
     -0.892  0.1043E-01  0.1043E-01  0.7600E-01  0.7600E-01
     -0.700  0.7099E-15  0.7099E-15  0.7600E-01  0.7600E-01
     -0.507  0.7561E-02  0.7561E-02  0.7746E-01  0.7746E-01
     -0.314  0.1069E-01  0.1069E-01  0.7952E-01  0.7952E-01
     -0.122  0.1285E-01  0.1285E-01  0.8199E-01  0.8199E-01
      0.071  0.2905E-01  0.2905E-01  0.8759E-01  0.8759E-01
      0.264  0.2474E-01  0.2474E-01  0.9236E-01  0.9236E-01
      0.456  0.1815E-01  0.1815E-01  0.9586E-01  0.9586E-01
      0.649  0.7567E-03  0.7567E-03  0.9600E-01  0.9600E-01
      0.842  0.1020E-01  0.1020E-01  0.9797E-01  0.9797E-01
      1.034  0.2214E-01  0.2214E-01  0.1022E+00  0.1022E+00
      1.227  0.2297E-01  0.2297E-01  0.1067E+00  0.1067E+00
      1.420  0.2417E-01  0.2417E-01  0.1113E+00  0.1113E+00
      1.612  0.2985E-01  0.2985E-01  0.1171E+00  0.1171E+00
      1.805  0.1431E-01  0.1431E-01  0.1198E+00  0.1198E+00
      1.997  0.8627E-03  0.8628E-03  0.1200E+00  0.1200E+00
      2.190  0.0000E+00  0.0000E+00  0.1200E+00  0.1200E+00
      2.383  0.0000E+00  0.0000E+00  0.1200E+00  0.1200E+00
      2.575  0.0000E+00  0.0000E+00  0.1200E+00  0.1200E+00
      2.768  0.0000E+00  0.0000E+00  0.1200E+00  0.1200E+00
      2.961  0.0000E+00  0.0000E+00  0.1200E+00  0.1200E+00
      3.153  0.0000E+00  0.0000E+00  0.1200E+00  0.1200E+00
      3.346  0.0000E+00  0.0000E+00  0.1200E+00  0.1200E+00
      3.539  0.0000E+00  0.0000E+00  0.1200E+00  0.1200E+00
      3.731  0.0000E+00  0.0000E+00  0.1200E+00  0.1200E+00
      3.924  0.0000E+00  0.0000E+00  0.1200E+00  0.1200E+00
      4.117  0.0000E+00  0.0000E+00  0.1200E+00  0.1200E+00
      4.309  0.1080E-11  0.1080E-11  0.1200E+00  0.1200E+00
      4.502  0.5123E-02  0.5123E-02  0.1210E+00  0.1210E+00
      4.694  0.4999E-04  0.4999E-04  0.1210E+00  0.1210E+00
      4.887  0.0000E+00  0.0000E+00  0.1210E+00  0.1210E+00
      5.080  0.1101E-15  0.1101E-15  0.1210E+00  0.1210E+00
      5.272  0.3248E-02  0.3248E-02  0.1216E+00  0.1216E+00
      5.465  0.1232E-01  0.1232E-01  0.1240E+00  0.1240E+00
      5.658  0.0000E+00  0.0000E+00  0.1240E+00  0.1240E+00
      5.850  0.1276E-04  0.1276E-04  0.1240E+00  0.1240E+00
      6.043  0.1139E-01  0.1139E-01  0.1262E+00  0.1262E+00
      6.236  0.1725E-01  0.1725E-01  0.1295E+00  0.1295E+00
      6.428  0.2542E-02  0.2542E-02  0.1300E+00  0.1300E+00
      6.621  0.1227E-01  0.1227E-01  0.1324E+00  0.1324E+00
      6.814  0.7395E-02  0.7395E-02  0.1338E+00  0.1338E+00
      7.006  0.1142E-01  0.1142E-01  0.1360E+00  0.1360E+00
      7.199  0.5160E-02  0.5160E-02  0.1370E+00  0.1370E+00
      7.392  0.2978E-02  0.2978E-02  0.1376E+00  0.1376E+00
      7.584  0.8729E-02  0.8729E-02  0.1392E+00  0.1392E+00
      7.777  0.1288E-01  0.1288E-01  0.1417E+00  0.1417E+00
      7.969  0.1145E-01  0.1145E-01  0.1439E+00  0.1439E+00
      8.162  0.1222E-01  0.1222E-01  0.1463E+00  0.1463E+00
      8.355  0.1568E-01  0.1568E-01  0.1493E+00  0.1493E+00
      8.547  0.1557E-01  0.1557E-01  0.1523E+00  0.1523E+00
      8.740  0.1638E-01  0.1638E-01  0.1555E+00  0.1555E+00
      8.933  0.1540E-01  0.1540E-01  0.1584E+00  0.1584E+00
      9.125  0.1874E-01  0.1874E-01  0.1621E+00  0.1621E+00
      9.318  0.1706E-01  0.1706E-01  0.1653E+00  0.1653E+00
      9.511  0.1667E-01  0.1666E-01  0.1686E+00  0.1686E+00
      9.703  0.1822E-01  0.1802E-01  0.1721E+00  0.1720E+00
      9.896  0.1611E-01  0.1701E-01  0.1752E+00  0.1753E+00
     10.089  0.4301E-02  0.3598E-02  0.1760E+00  0.1760E+00
     10.281  0.0000E+00  0.0000E+00  0.1760E+00  0.1760E+00
     10.474  0.0000E+00  0.0000E+00  0.1760E+00  0.1760E+00
     10.667  0.0000E+00  0.0000E+00  0.1760E+00  0.1760E+00
     10.859  0.0000E+00  0.0000E+00  0.1760E+00  0.1760E+00
     11.052  0.0000E+00  0.0000E+00  0.1760E+00  0.1760E+00
     11.244  0.0000E+00  0.0000E+00  0.1760E+00  0.1760E+00
     11.437  0.0000E+00  0.0000E+00  0.1760E+00  0.1760E+00
     11.630  0.0000E+00  0.0000E+00  0.1760E+00  0.1760E+00
     11.822  0.0000E+00  0.0000E+00  0.1760E+00  0.1760E+00
     12.015  0.0000E+00  0.0000E+00  0.1760E+00  0.1760E+00
     12.208  0.0000E+00  0.0000E+00  0.1760E+00  0.1760E+00
     12.400  0.0000E+00  0.0000E+00  0.1760E+00  0.1760E+00
     12.593  0.0000E+00  0.0000E+00  0.1760E+00  0.1760E+00
