 vasp.6.4.1 05Apr23 (build Jun 07 2023 15:38:11) complex                        
  
 executed on             LinuxIFC date 2023.10.20  18:45:24
 running  128 mpi-ranks, with    1 threads/rank, on    1 nodes
 distrk:  each k-point on  128 cores,    1 groups
 distr:  one band on NCORE=  32 cores,    4 groups


--------------------------------------------------------------------------------------------------------


 INCAR:
   GGA = PE
   PREC = Accu
   EDIFF = 1.e-6
   EDIFFG = -1.e-3
   ENCUT = 520.
   NELM = 100
   NELMDL = -10
   LASPH = .TRUE.
   LREAL = Auto
   LMAXMIX = 4
   ISPIN = 2
   LDIAG = .TRUE.
   LPLANE = .TRUE.
   IVDW = 12
   SIGMA = 0.03
   ISMEAR = 0
   NSW = 1000    number of steps for IOM
   IBRION = 2    ionic relax: 0-MD 1-quasi-New 2-CG
   ISIF = 2    ionic relaxation + stress tensor calcn.
   LCHARG = .FALSE.
   LWAVE = .FALSE.
   ALGO = F
   KPAR = 1
   NPAR = 4
   POTIM = 0.2

 POTCAR:    PAW_PBE Li_sv_GW 25Mar2010            
 POTCAR:    PAW_PBE P_GW 19Mar2012                
 POTCAR:    PAW_PBE S_GW 19Mar2012                
 POTCAR:    PAW_PBE Cl_GW 19Mar2012               
 -----------------------------------------------------------------------------
|                                                                             |
|           W    W    AA    RRRRR   N    N  II  N    N   GGGG   !!!           |
|           W    W   A  A   R    R  NN   N  II  NN   N  G    G  !!!           |
|           W    W  A    A  R    R  N N  N  II  N N  N  G       !!!           |
|           W WW W  AAAAAA  RRRRR   N  N N  II  N  N N  G  GGG   !            |
|           WW  WW  A    A  R   R   N   NN  II  N   NN  G    G                |
|           W    W  A    A  R    R  N    N  II  N    N   GGGG   !!!           |
|                                                                             |
|     You use a magnetic or noncollinear calculation, but did not specify     |
|     the initial magnetic moment with the MAGMOM tag. Note that a            |
|     default of 1 will be used for all atoms. This ferromagnetic setup       |
|     may break the symmetry of the crystal, in particular it may rule        |
|     out finding an antiferromagnetic solution. Thence, we recommend         |
|     setting the initial magnetic moment manually or verifying carefully     |
|     that this magnetic setup is desired.                                    |
|                                                                             |
 -----------------------------------------------------------------------------

 POTCAR:    PAW_PBE Li_sv_GW 25Mar2010            
   SHA256 =  24a6ace15a582615486b36ce4dc781b048409f4015b7684ed1273ae395fa2fdc Li_sv_GW/POTCAR       
   COPYR  = (c) Copyright 25Mar2010 Georg Kresse                                                    
   COPYR  = This file is part of the software VASP. Any use, copying, and all other rights are regul
   COPYR  = If you do not have a valid VASP license, you may not use, copy or distribute this file. 
   VRHFIN =Li: 1s2s                                                                                 
   LEXCH  = PE                                                                                      
   EATOM  =   200.9989 eV,   14.7730 Ry                                                             
                                                                                                    
   TITEL  = PAW_PBE Li_sv_GW 25Mar2010                                                              
   LULTRA =        F    use ultrasoft PP ?                                                          
   IUNSCR =        0    unscreen: 0-lin 1-nonlin 2-no                                               
   RPACOR =    0.000    partial core radius                                                         
   POMASS =    7.010; ZVAL   =    3.000    mass and valenz                                          
   RCORE  =    1.500    outmost cutoff radius                                                       
   RWIGS  =    1.600; RWIGS  =    0.847    wigner-seitz radius (au A)                               
   ENMAX  =  433.699; ENMIN  =  325.274 eV                                                          
   RCLOC  =    1.003    cutoff for local pot                                                        
   LCOR   =        T    correct aug charges                                                         
   LPAW   =        T    paw PP                                                                      
   EAUG   = 1041.699                                                                                
   RMAX   =    1.536    core radius for proj-oper                                                   
   RAUG   =    1.300    factor for augmentation sphere                                              
   RDEP   =    1.520    radius for radial grids                                                     
   RDEPT  =    1.300    core radius for aug-charge                                                  
                                                                                                    
   Atomic configuration                                                                             
    4 entries                                                                                       
     n  l   j            E        occ.                                                              
     1  0  0.50       -53.3604   2.0000                                                             
     1  0  0.50       -52.0001   0.0000                                                             
     2  1  0.50        -1.5636   1.0000                                                             
     3  2  1.50        -1.3606   0.0000                                                             
   Description                                                                                      
     l       E           TYP  RCUT    TYP  RCUT                                                     
     0    -53.3603633     23  1.200                                                                 
     0    -52.0001064     23  1.200                                                                 
     0    176.8757380     23  1.300                                                                 
     1     -1.5635925     23  1.500                                                                 
     1    108.8466080     23  1.500                                                                 
     2     81.6349560     23  1.500                                                                 
  local pseudopotential read in
  kinetic energy density of atom read in
  atomic valenz-charges read in
  non local Contribution for L=           0  read in
    real space projection operators read in
  non local Contribution for L=           0  read in
    real space projection operators read in
  non local Contribution for L=           0  read in
    real space projection operators read in
  non local Contribution for L=           1  read in
    real space projection operators read in
  non local Contribution for L=           1  read in
    real space projection operators read in
  non local Contribution for L=           2  read in
    real space projection operators read in
    PAW grid and wavefunctions read in
 
   number of l-projection  operators is LMAX  =           6
   number of lm-projection operators is LMMAX =          14
 
 POTCAR:    PAW_PBE P_GW 19Mar2012                
   SHA256 =  715c28f2291d37b61637ce89646c59f66f71c8b8d8bfba631e5feb9f7b42defe P_GW/POTCAR           
   COPYR  = (c) Copyright 19Mar2012 Georg Kresse                                                    
   COPYR  = This file is part of the software VASP. Any use, copying, and all other rights are regul
   COPYR  = If you do not have a valid VASP license, you may not use, copy or distribute this file. 
   VRHFIN =P : s2p3                                                                                 
   LEXCH  = PE                                                                                      
   EATOM  =   176.0430 eV,   12.9388 Ry                                                             
                                                                                                    
   TITEL  = PAW_PBE P_GW 19Mar2012                                                                  
   LULTRA =        F    use ultrasoft PP ?                                                          
   IUNSCR =        1    unscreen: 0-lin 1-nonlin 2-no                                               
   RPACOR =    1.400    partial core radius                                                         
   POMASS =   30.974; ZVAL   =    5.000    mass and valenz                                          
   RCORE  =    2.000    outmost cutoff radius                                                       
   RWIGS  =    1.900; RWIGS  =    1.005    wigner-seitz radius (au A)                               
   ENMAX  =  255.040; ENMIN  =  191.280 eV                                                          
   ICORE  =        3    local potential                                                             
   LCOR   =        T    correct aug charges                                                         
   LPAW   =        T    paw PP                                                                      
   EAUG   =  499.732                                                                                
   DEXC   =    0.000                                                                                
   RMAX   =    2.047    core radius for proj-oper                                                   
   RAUG   =    1.300    factor for augmentation sphere                                              
   RDEP   =    2.059    radius for radial grids                                                     
   RDEPT  =    1.900    core radius for aug-charge                                                  
                                                                                                    
   Atomic configuration                                                                             
    7 entries                                                                                       
     n  l   j            E        occ.                                                              
     1  0  0.50     -2084.0982   2.0000                                                             
     2  0  0.50      -173.9859   2.0000                                                             
     2  1  1.50      -124.4865   6.0000                                                             
     3  0  0.50       -13.9692   2.0000                                                             
     3  1  0.50        -5.5067   3.0000                                                             
     3  2  1.50        -6.8029   0.0000                                                             
     4  3  2.50        -1.3606   0.0000                                                             
   Description                                                                                      
     l       E           TYP  RCUT    TYP  RCUT                                                     
     0    -13.9691528     23  1.900                                                                 
     0    102.0436950     23  1.900                                                                 
     1     -5.5066939     23  1.900                                                                 
     1    102.0436950     23  1.900                                                                 
     2     -8.1634956     23  2.000                                                                 
     2     81.6349560     23  2.000                                                                 
     3     27.2116520     23  2.000                                                                 
  local pseudopotential read in
  partial core-charges read in
  partial kinetic energy density read in
  kinetic energy density of atom read in
  atomic valenz-charges read in
  non local Contribution for L=           0  read in
    real space projection operators read in
  non local Contribution for L=           0  read in
    real space projection operators read in
  non local Contribution for L=           1  read in
    real space projection operators read in
  non local Contribution for L=           1  read in
    real space projection operators read in
  non local Contribution for L=           2  read in
    real space projection operators read in
  non local Contribution for L=           2  read in
    real space projection operators read in
    PAW grid and wavefunctions read in
 
   number of l-projection  operators is LMAX  =           6
   number of lm-projection operators is LMMAX =          18
 
 POTCAR:    PAW_PBE S_GW 19Mar2012                
   SHA256 =  357db9cfb0783579b2eebe03197c2d807131fea8ea663b1fcfb6ce2fa75af011 S_GW/POTCAR           
   COPYR  = (c) Copyright 19Mar2012 Georg Kresse                                                    
   COPYR  = This file is part of the software VASP. Any use, copying, and all other rights are regul
   COPYR  = If you do not have a valid VASP license, you may not use, copy or distribute this file. 
   VRHFIN =S : s2p4                                                                                 
   LEXCH  = PE                                                                                      
   EATOM  =   276.8230 eV,   20.3459 Ry                                                             
                                                                                                    
   TITEL  = PAW_PBE S_GW 19Mar2012                                                                  
   LULTRA =        F    use ultrasoft PP ?                                                          
   IUNSCR =        1    unscreen: 0-lin 1-nonlin 2-no                                               
   RPACOR =    1.400    partial core radius                                                         
   POMASS =   32.066; ZVAL   =    6.000    mass and valenz                                          
   RCORE  =    1.900    outmost cutoff radius                                                       
   RWIGS  =    1.900; RWIGS  =    1.005    wigner-seitz radius (au A)                               
   ENMAX  =  258.689; ENMIN  =  194.016 eV                                                          
   ICORE  =        3    local potential                                                             
   LCOR   =        T    correct aug charges                                                         
   LPAW   =        T    paw PP                                                                      
   EAUG   =  488.319                                                                                
   DEXC   =    0.000                                                                                
   RMAX   =    1.942    core radius for proj-oper                                                   
   RAUG   =    1.300    factor for augmentation sphere                                              
   RDEP   =    1.954    radius for radial grids                                                     
   RDEPT  =    1.900    core radius for aug-charge                                                  
                                                                                                    
   Atomic configuration                                                                             
    7 entries                                                                                       
     n  l   j            E        occ.                                                              
     1  0  0.50     -2405.8406   2.0000                                                             
     2  0  0.50      -211.7007   2.0000                                                             
     2  1  1.50      -156.4958   6.0000                                                             
     3  0  0.50       -17.2562   2.0000                                                             
     3  1  0.50        -7.0085   4.0000                                                             
     3  2  1.50        -8.1635   0.0000                                                             
     4  3  2.50        -1.3606   0.0000                                                             
   Description                                                                                      
     l       E           TYP  RCUT    TYP  RCUT                                                     
     0    -17.2561639     23  1.700                                                                 
     0     88.4378690     23  1.900                                                                 
     1     -7.0085399     23  1.900                                                                 
     1     88.4378690     23  1.900                                                                 
     2    -10.8846608     23  1.900                                                                 
     2     54.4233040     23  1.900                                                                 
     3     27.2116520     23  1.800                                                                 
  local pseudopotential read in
  partial core-charges read in
  partial kinetic energy density read in
  kinetic energy density of atom read in
  atomic valenz-charges read in
  non local Contribution for L=           0  read in
    real space projection operators read in
  non local Contribution for L=           0  read in
    real space projection operators read in
  non local Contribution for L=           1  read in
    real space projection operators read in
  non local Contribution for L=           1  read in
    real space projection operators read in
  non local Contribution for L=           2  read in
    real space projection operators read in
  non local Contribution for L=           2  read in
    real space projection operators read in
    PAW grid and wavefunctions read in
 
   number of l-projection  operators is LMAX  =           6
   number of lm-projection operators is LMMAX =          18
 
 POTCAR:    PAW_PBE Cl_GW 19Mar2012               
   SHA256 =  3ef3b3169d6a9a89979f58b4cf17d927a58518fc660d8883d88cacaee8175441 Cl_GW/POTCAR          
   COPYR  = (c) Copyright 19Mar2012 Georg Kresse                                                    
   COPYR  = This file is part of the software VASP. Any use, copying, and all other rights are regul
   COPYR  = If you do not have a valid VASP license, you may not use, copy or distribute this file. 
   VRHFIN =Cl: s2p5                                                                                 
   LEXCH  = PE                                                                                      
   EATOM  =   409.7259 eV,   30.1140 Ry                                                             
                                                                                                    
   TITEL  = PAW_PBE Cl_GW 19Mar2012                                                                 
   LULTRA =        F    use ultrasoft PP ?                                                          
   IUNSCR =        1    unscreen: 0-lin 1-nonlin 2-no                                               
   RPACOR =    1.400    partial core radius                                                         
   POMASS =   35.453; ZVAL   =    7.000    mass and valenz                                          
   RCORE  =    1.900    outmost cutoff radius                                                       
   RWIGS  =    1.900; RWIGS  =    1.005    wigner-seitz radius (au A)                               
   ENMAX  =  262.472; ENMIN  =  196.854 eV                                                          
   ICORE  =        3    local potential                                                             
   LCOR   =        T    correct aug charges                                                         
   LPAW   =        T    paw PP                                                                      
   EAUG   =  456.703                                                                                
   DEXC   =    0.000                                                                                
   RMAX   =    1.945    core radius for proj-oper                                                   
   RAUG   =    1.300    factor for augmentation sphere                                              
   RDEP   =    2.020    radius for radial grids                                                     
   RDEPT  =    1.900    core radius for aug-charge                                                  
                                                                                                    
   Atomic configuration                                                                             
    7 entries                                                                                       
     n  l   j            E        occ.                                                              
     1  0  0.50     -2751.1850   2.0000                                                             
     2  0  0.50      -252.6861   2.0000                                                             
     2  1  1.50      -191.6157   6.0000                                                             
     3  0  0.50       -20.6916   2.0000                                                             
     3  1  0.50        -8.5949   5.0000                                                             
     3  2  1.50        -9.5241   0.0000                                                             
     4  3  2.50        -9.5241   0.0000                                                             
   Description                                                                                      
     l       E           TYP  RCUT    TYP  RCUT                                                     
     0    -20.6915657     23  1.700                                                                 
     0     95.2407820     23  1.800                                                                 
     1     -8.5948577     23  1.900                                                                 
     1     95.2407820     23  1.900                                                                 
     2    -10.8846608     23  1.900                                                                 
     2     54.4233040     23  1.900                                                                 
     3     27.2116520     23  1.900                                                                 
  local pseudopotential read in
  partial core-charges read in
  partial kinetic energy density read in
  kinetic energy density of atom read in
  atomic valenz-charges read in
  non local Contribution for L=           0  read in
    real space projection operators read in
  non local Contribution for L=           0  read in
    real space projection operators read in
  non local Contribution for L=           1  read in
    real space projection operators read in
  non local Contribution for L=           1  read in
    real space projection operators read in
  non local Contribution for L=           2  read in
    real space projection operators read in
  non local Contribution for L=           2  read in
    real space projection operators read in
    PAW grid and wavefunctions read in
 
   number of l-projection  operators is LMAX  =           6
   number of lm-projection operators is LMMAX =          18
 
 Optimization of the real space projectors (new method)

 maximal supplied QI-value         = 25.13
 optimisation between [QCUT,QGAM] = [ 11.56, 23.12] = [ 37.43,149.72] Ry 
 Optimized for a Real-space Cutoff    1.28 Angstroem

   l    n(q)    QCUT    max X(q) W(low)/X(q) W(high)/X(q)  e(spline) 
   0      9    11.561    87.733    0.11E-03    0.32E-04    0.56E-06
   0      9    11.561    82.800    0.11E-03    0.35E-04    0.56E-06
   0      9    11.561     2.509    0.22E-03    0.42E-04    0.79E-06
   1      8    11.561    12.580    0.94E-04    0.26E-03    0.21E-06
   1      8    11.561     1.319    0.33E-04    0.15E-03    0.19E-06
   2      8    11.561     1.993    0.36E-04    0.89E-04    0.26E-06
 Optimization of the real space projectors (new method)

 maximal supplied QI-value         = 18.90
 optimisation between [QCUT,QGAM] = [ 11.53, 23.24] = [ 37.21,151.29] Ry 
 Optimized for a Real-space Cutoff    1.21 Angstroem

   l    n(q)    QCUT    max X(q) W(low)/X(q) W(high)/X(q)  e(spline) 
   0      8    11.527     8.355    0.73E-04    0.70E-04    0.26E-07
   0      8    11.527     1.401    0.17E-03    0.17E-03    0.63E-07
   1      8    11.527     4.747    0.13E-03    0.17E-03    0.11E-06
   1      8    11.527     2.025    0.16E-03    0.18E-03    0.12E-06
   2      7    11.527     3.169    0.51E-04    0.25E-03    0.60E-07
   2      7    11.527     3.441    0.82E-04    0.22E-03    0.14E-06
 Optimization of the real space projectors (new method)

 maximal supplied QI-value         = 19.84
 optimisation between [QCUT,QGAM] = [ 11.51, 23.22] = [ 37.09,150.92] Ry 
 Optimized for a Real-space Cutoff    1.49 Angstroem

   l    n(q)    QCUT    max X(q) W(low)/X(q) W(high)/X(q)  e(spline) 
   0     10    11.508     7.541    0.34E-04    0.13E-04    0.69E-07
   0     10    11.508     1.809    0.49E-04    0.27E-04    0.14E-06
   1     10    11.508     4.107    0.27E-05    0.41E-05    0.14E-06
   1     10    11.508     2.196    0.26E-05    0.25E-05    0.22E-06
   2      9    11.508     4.265    0.18E-03    0.11E-03    0.81E-06
   2      9    11.508     1.925    0.97E-04    0.76E-04    0.47E-06
 Optimization of the real space projectors (new method)

 maximal supplied QI-value         = 19.84
 optimisation between [QCUT,QGAM] = [ 11.51, 23.22] = [ 37.09,150.92] Ry 
 Optimized for a Real-space Cutoff    1.21 Angstroem

   l    n(q)    QCUT    max X(q) W(low)/X(q) W(high)/X(q)  e(spline) 
   0      8    11.508     6.761    0.57E-04    0.57E-04    0.35E-07
   0      8    11.508     1.642    0.14E-03    0.14E-03    0.91E-07
   1      8    11.508     3.519    0.20E-04    0.72E-04    0.47E-07
   1      8    11.508     2.150    0.27E-04    0.11E-03    0.89E-07
   2      7    11.508     2.976    0.19E-03    0.33E-03    0.16E-06
   2      7    11.508     1.494    0.14E-03    0.29E-03    0.14E-06
  PAW_PBE Li_sv_GW 25Mar2010            :
 energy of atom  1       EATOM= -200.9989
 kinetic energy error for atom=    0.0127 (will be added to EATOM!!)
  PAW_PBE P_GW 19Mar2012                :
 energy of atom  2       EATOM= -176.0430
 kinetic energy error for atom=    0.0011 (will be added to EATOM!!)
  PAW_PBE S_GW 19Mar2012                :
 energy of atom  3       EATOM= -276.8230
 kinetic energy error for atom=    0.0024 (will be added to EATOM!!)
  PAW_PBE Cl_GW 19Mar2012               :
 energy of atom  4       EATOM= -409.7259
 kinetic energy error for atom=    0.0030 (will be added to EATOM!!)
 
 
 POSCAR: Li24 P4 S20 Cl4
  positions in direct lattice
  velocities in cartesian coordinates
 exchange correlation table for  LEXCH =        8
   RHO(1)=    0.500       N(1)  =     2000
   RHO(2)=  100.500       N(2)  =     4000

 VTST: version 4.1, (05/19/21)

 CHAIN: initializing optimizer
 
 OPT: Using VASP Conjugate-Gradient optimizer
 CHAIN: Read ICHAIN            0
 
 POSCAR: Li24 P4 S20 Cl4
  positions in direct lattice
  velocities in cartesian coordinates
 


--------------------------------------------------------------------------------------------------------


 ion  position               nearest neighbor table
   1  0.958  0.187  0.175-
   2  0.981  0.815  0.778-
   3  0.042  0.163  0.831-
   4  0.009  0.762  0.211-
   5  0.285  0.283  0.988-
   6  0.221  0.783  0.008-
   7  0.681  0.338  0.046-
   8  0.794  0.827  0.983-
   9  0.206  0.978  0.219-
  10  0.330  0.029  0.663-
  11  0.676  0.978  0.708-
  12  0.716  0.017  0.293-
  13  0.176  0.659  0.466-
  14  0.164  0.314  0.540-
  15  0.699  0.769  0.527-
  16  0.822  0.278  0.489-
  17  0.287  0.480  0.780-
  18  0.332  0.527  0.187-
  19  0.821  0.480  0.307-
  20  0.831  0.529  0.701-
  21  0.492  0.278  0.788-
  22  0.454  0.810  0.332-
  23  0.518  0.204  0.341-
  24  0.536  0.680  0.834-
  25  0.499  0.500  0.501-  41 2.05  43 2.05  42 2.05  44 2.06
  26  0.502  0.999  0.011-  38 2.05  37 2.05  39 2.06  40 2.06
  27  0.993  0.493  0.996-  34 2.04  36 2.05  33 2.06  35 2.06
  28  0.004  0.990  0.503-  29 2.04  30 2.05  32 2.05  31 2.06
  29  0.145  0.870  0.606-  28 2.04
  30  0.105  0.130  0.378-  28 2.05
  31  0.878  0.864  0.386-  28 2.06
  32  0.888  0.099  0.644-  28 2.05
  33  0.852  0.612  0.103-  27 2.06
  34  0.881  0.355  0.882-  27 2.04
  35  0.108  0.618  0.867-  27 2.06
  36  0.116  0.385  0.133-  27 2.05
  37  0.641  0.121  0.907-  26 2.05
  38  0.606  0.861  0.134-  26 2.05
  39  0.383  0.121  0.138-  26 2.06
  40  0.390  0.889  0.868-  26 2.06
  41  0.611  0.612  0.360-  25 2.05
  42  0.631  0.382  0.620-  25 2.05
  43  0.389  0.636  0.621-  25 2.05
  44  0.359  0.381  0.393-  25 2.06
  45  0.752  0.753  0.757-
  46  0.744  0.252  0.264-
  47  0.241  0.744  0.244-
  48  0.257  0.243  0.753-
  49  0.013  0.970  0.015-
  50  0.983  0.486  0.503-
  51  0.529  0.991  0.496-
  52  0.469  0.473  0.975-
 
  LATTYP: Found a simple cubic cell.
 ALAT       =     9.6576344910
  
  Lattice vectors:
  
 A1 = (   9.6576344910,   0.0000000000,   0.0000000000)
 A2 = (   0.0000000000,   9.6576344910,   0.0000000000)
 A3 = (   0.0000000000,   0.0000000000,   9.6576344910)


Analysis of symmetry for initial positions (statically):
=====================================================================
 Subroutine PRICEL returns:
 Original cell was already a primitive cell.
 

 Routine SETGRP: Setting up the symmetry group for a 
 simple cubic supercell.


 Subroutine GETGRP returns: Found  1 space group operations
 (whereof  1 operations were pure point group operations)
 out of a pool of 48 trial point group operations.


The static configuration has the point symmetry C_1 .


Analysis of symmetry for dynamics (positions and initial velocities):
=====================================================================
 Subroutine PRICEL returns:
 Original cell was already a primitive cell.
 

 Routine SETGRP: Setting up the symmetry group for a 
 simple cubic supercell.


 Subroutine GETGRP returns: Found  1 space group operations
 (whereof  1 operations were pure point group operations)
 out of a pool of 48 trial point group operations.


The dynamic configuration has the point symmetry C_1 .


Analysis of structural, dynamic, and magnetic symmetry:
=====================================================================
 Subroutine PRICEL returns:
 Original cell was already a primitive cell.
 

 Routine SETGRP: Setting up the symmetry group for a 
 simple cubic supercell.


 Subroutine GETGRP returns: Found  1 space group operations
 (whereof  1 operations were pure point group operations)
 out of a pool of 48 trial point group operations.


The overall configuration has the point symmetry C_1 .


 Subroutine INISYM returns: Found  1 space group operations
 (whereof  1 operations are pure point group operations),
 and found     1 'primitive' translations


----------------------------------------------------------------------------------------

                                     Primitive cell                                     

  volume of cell :     900.7666

  direct lattice vectors                    reciprocal lattice vectors
     9.657634491  0.000000000  0.000000000     0.103545025  0.000000000  0.000000000
     0.000000000  9.657634491  0.000000000     0.000000000  0.103545025  0.000000000
     0.000000000  0.000000000  9.657634491     0.000000000  0.000000000  0.103545025

  length of vectors
     9.657634491  9.657634491  9.657634491     0.103545025  0.103545025  0.103545025

  position of ions in fractional coordinates (direct lattice)
     0.957761453  0.187299024  0.174682024
     0.981188647  0.815076191  0.777885011
     0.042041069  0.162778095  0.830777495
     0.008537094  0.761681571  0.211167053
     0.285450195  0.283362942  0.987676846
     0.221141161  0.782870001  0.008158164
     0.680921664  0.337800302  0.045921765
     0.793765504  0.827405077  0.982843532
     0.206496715  0.978068128  0.219470266
     0.330476008  0.029333980  0.662700298
     0.676211346  0.978262991  0.707730539
     0.715709518  0.017166513  0.293218165
     0.176289109  0.658842415  0.466242077
     0.164001990  0.313942383  0.540037719
     0.698640596  0.769138260  0.526747414
     0.822267094  0.278218353  0.489463319
     0.286576647  0.479902636  0.780166928
     0.332430863  0.527478913  0.187182302
     0.820913060  0.480060866  0.307397185
     0.831051117  0.529151960  0.701369753
     0.492210356  0.278231129  0.788414055
     0.453535813  0.809842975  0.332382197
     0.518263516  0.203731753  0.341414430
     0.535732028  0.679637814  0.833565588
     0.499270533  0.499585435  0.500911647
     0.502289011  0.999392473  0.011102067
     0.993306281  0.492750429  0.996377334
     0.003876599  0.990110112  0.502787740
     0.144537236  0.870335812  0.606091677
     0.104511748  0.129509161  0.378304367
     0.878490312  0.863619598  0.386195764
     0.887792794  0.099485697  0.643536335
     0.852418282  0.611606424  0.103016887
     0.881303426  0.354787171  0.881634258
     0.108080100  0.617588012  0.866765423
     0.115616347  0.385168398  0.132694642
     0.641418773  0.121258310  0.906536146
     0.606074731  0.861489439  0.134174898
     0.382978772  0.121335823  0.138345084
     0.389695929  0.888685706  0.868392823
     0.610780071  0.612014845  0.359677675
     0.630885976  0.382261900  0.620013676
     0.388950439  0.636072113  0.620870076
     0.359004353  0.381432012  0.392937652
     0.751809348  0.752773690  0.757181885
     0.743985827  0.251528367  0.263892675
     0.240600857  0.744040621  0.243815172
     0.257191744  0.243493105  0.753113298
     0.012840663  0.970042501  0.015112211
     0.982821050  0.485930151  0.503026880
     0.529302323  0.991480410  0.496081507
     0.468537845  0.472912579  0.974745108

  ion indices of the primitive-cell ions
   primitive index   ion index
                 1           1
                 2           2
                 3           3
                 4           4
                 5           5
                 6           6
                 7           7
                 8           8
                 9           9
                10          10
                11          11
                12          12
                13          13
                14          14
                15          15
                16          16
                17          17
                18          18
                19          19
                20          20
                21          21
                22          22
                23          23
                24          24
                25          25
                26          26
                27          27
                28          28
                29          29
                30          30
                31          31
                32          32
                33          33
                34          34
                35          35
                36          36
                37          37
                38          38
                39          39
                40          40
                41          41
                42          42
                43          43
                44          44
                45          45
                46          46
                47          47
                48          48
                49          49
                50          50
                51          51
                52          52

----------------------------------------------------------------------------------------

 
 
 KPOINTS: Automatic mesh                          

Automatic generation of k-mesh.
 Grid dimensions read from file:
 generate k-points for:    2    2    2

 Generating k-lattice:

  Cartesian coordinates                     Fractional coordinates (reciprocal lattice)
     0.051772512  0.000000000  0.000000000     0.500000000  0.000000000  0.000000000
     0.000000000  0.051772512  0.000000000     0.000000000  0.500000000  0.000000000
     0.000000000  0.000000000  0.051772512     0.000000000  0.000000000  0.500000000

  Length of vectors
     0.051772512  0.051772512  0.051772512

  Shift w.r.t. Gamma in fractional coordinates (k-lattice)
     0.500000000  0.500000000  0.500000000

 
 Subroutine IBZKPT returns following result:
 ===========================================
 
 Found      4 irreducible k-points:
 
 Following reciprocal coordinates:
            Coordinates               Weight
  0.250000  0.250000  0.250000      2.000000
 -0.250000  0.250000  0.250000      2.000000
 -0.250000 -0.250000  0.250000      2.000000
  0.250000 -0.250000  0.250000      2.000000
 
 Following cartesian coordinates:
            Coordinates               Weight
  0.025886  0.025886  0.025886      2.000000
 -0.025886  0.025886  0.025886      2.000000
 -0.025886 -0.025886  0.025886      2.000000
  0.025886 -0.025886  0.025886      2.000000
 


--------------------------------------------------------------------------------------------------------




 Dimension of arrays:
   k-points           NKPTS =      4   k-points in BZ     NKDIM =      4   number of bands    NBANDS=    176
   number of dos      NEDOS =    301   number of ions     NIONS =     52
   non local maximal  LDIM  =      6   non local SUM 2l+1 LMDIM =     18
   total plane-waves  NPLWV = 373248
   max r-space proj   IRMAX =   5781   max aug-charges    IRDMAX=  17686
   dimension x,y,z NGX =    72 NGY =   72 NGZ =   72
   dimension x,y,z NGXF=   144 NGYF=  144 NGZF=  144
   support grid    NGXF=   144 NGYF=  144 NGZF=  144
   ions per type =              24   4  20   4
   NGX,Y,Z   is equivalent  to a cutoff of  12.39, 12.39, 12.39 a.u.
   NGXF,Y,Z  is equivalent  to a cutoff of  24.79, 24.79, 24.79 a.u.

 SYSTEM =  unknown system                          
 POSCAR =  Li24 P4 S20 Cl4                         

 Startparameter for this run:
   NWRITE =      2    write-flag & timer
   PREC   = accu      normal or accurate (medium, high low for compatibility)
   ISTART =      0    job   : 0-new  1-cont  2-samecut
   ICHARG =      2    charge: 1-file 2-atom 10-const
   ISPIN  =      2    spin polarized calculation?
   LNONCOLLINEAR =      F non collinear calculations
   LSORBIT =      F    spin-orbit coupling
   INIWAV =      1    electr: 0-lowe 1-rand  2-diag
   LASPH  =      T    aspherical Exc in radial PAW
 Electronic Relaxation 1
   ENCUT  =  520.0 eV  38.22 Ry    6.18 a.u.  17.96 17.96 17.96*2*pi/ulx,y,z
   ENINI  =  520.0     initial cutoff
   ENAUG  = 1041.7 eV  augmentation charge cutoff
   NELM   =    100;   NELMIN=  2; NELMDL=-10     # of ELM steps 
   EDIFF  = 0.1E-05   stopping-criterion for ELM
   LREAL  =      T    real-space projection
   NLSPLINE    = F    spline interpolate recip. space projectors
   LCOMPAT=      F    compatible to vasp.4.4
   GGA_COMPAT  = T    GGA compatible to vasp.4.4-vasp.4.6
   LMAXPAW     = -100 max onsite density
   LMAXMIX     =    4 max onsite mixed and CHGCAR
   VOSKOWN=      0    Vosko Wilk Nusair interpolation
   ROPT   =   -0.00025  -0.00025  -0.00025  -0.00025
 Ionic relaxation
   EDIFFG = -.1E-02   stopping-criterion for IOM
   NSW    =   1000    number of steps for IOM
   NBLOCK =      1;   KBLOCK =   1000    inner block; outer block 
   IBRION =      2    ionic relax: 0-MD 1-quasi-New 2-CG
   NFREE  =      1    steps in history (QN), initial steepest desc. (CG)
   ISIF   =      2    stress and relaxation
   IWAVPR =     11    prediction:  0-non 1-charg 2-wave 3-comb
   ISYM   =      2    0-nonsym 1-usesym 2-fastsym
   LCORR  =      T    Harris-Foulkes like correction to forces

   POTIM  = 0.2000    time-step for ionic-motion
   TEIN   =    0.0    initial temperature
   TEBEG  =    0.0;   TEEND  =   0.0 temperature during run
   SMASS  =  -3.00    Nose mass-parameter (am)
   estimated Nose-frequenzy (Omega)   =  0.10E-29 period in steps = 0.31E+47 mass=  -0.213E-26a.u.
   SCALEE = 1.0000    scale energy and forces
   NPACO  =    256;   APACO  = 10.0  distance and # of slots for P.C.
   PSTRESS=    0.0 pullay stress

  Mass of Ions in am
   POMASS =   7.01 30.97 32.07 35.45
  Ionic Valenz
   ZVAL   =   3.00  5.00  6.00  7.00
  Atomic Wigner-Seitz radii
   RWIGS  =  -1.00 -1.00 -1.00 -1.00
  virtual crystal weights 
   VCA    =   1.00  1.00  1.00  1.00
   NELECT =     240.0000    total number of electrons
   NUPDOWN=      -1.0000    fix difference up-down

 DOS related values:
   EMIN   =  10.00;   EMAX   =-10.00  energy-range for DOS
   EFERMI =   0.00;   METHOD = LEGACY      
   ISMEAR =     0;   SIGMA  =   0.03  broadening in eV -4-tet -1-fermi 0-gaus

 Electronic relaxation 2 (details)
   IALGO  =     68    algorithm
   LDIAG  =      T    sub-space diagonalisation (order eigenvalues)
   LSUBROT=      F    optimize rotation matrix (better conditioning)
   TURBO    =      0    0=normal 1=particle mesh
   IRESTART =      0    0=no restart 2=restart with 2 vectors
   NREBOOT  =      0    no. of reboots
   NMIN     =      0    reboot dimension
   EREF     =   0.00    reference energy to select bands
   IMIX   =      4    mixing-type and parameters
     AMIX     =   0.40;   BMIX     =  1.00
     AMIX_MAG =   1.60;   BMIX_MAG =  1.00
     AMIN     =   0.10
     WC   =   100.;   INIMIX=   1;  MIXPRE=   1;  MAXMIX= -45

 Intra band minimization:
   WEIMIN = 0.0010     energy-eigenvalue tresh-hold
   EBREAK =  0.14E-08  absolut break condition
   DEPER  =   0.30     relativ break condition  

   TIME   =   0.40     timestep for ELM

  volume/ion in A,a.u.               =      17.32       116.90
  Fermi-wavevector in a.u.,A,eV,Ry     =   1.053435  1.990704 15.098734  1.109726
  Thomas-Fermi vector in A             =   2.188557
 
 Write flags
   LWAVE        =      F    write WAVECAR
   LDOWNSAMPLE  =      F    k-point downsampling of WAVECAR
   LCHARG       =      F    write CHGCAR
   LVTOT        =      F    write LOCPOT, total local potential
   LVHAR        =      F    write LOCPOT, Hartree potential only
   LELF         =      F    write electronic localiz. function (ELF)
   LORBIT       =      0    0 simple, 1 ext, 2 COOP (PROOUT), +10 PAW based schemes


 Dipole corrections
   LMONO  =      F    monopole corrections only (constant potential shift)
   LDIPOL =      F    correct potential (dipole corrections)
   IDIPOL =      0    1-x, 2-y, 3-z, 4-all directions 
   EPSILON=  1.0000000 bulk dielectric constant

 Exchange correlation treatment:
   GGA     =    PE    GGA type
   LEXCH   =     8    internal setting for exchange type
   LIBXC   =     F    Libxc                    
   VOSKOWN =     0    Vosko Wilk Nusair interpolation
   LHFCALC =     F    Hartree Fock is set to
   LHFONE  =     F    Hartree Fock one center treatment
   AEXX    =    0.0000 exact exchange contribution

 Linear response parameters
   LEPSILON=     F    determine dielectric tensor
   LRPA    =     F    only Hartree local field effects (RPA)
   LNABLA  =     F    use nabla operator in PAW spheres
   LVEL    =     F    velocity operator in full k-point grid
   CSHIFT  =0.1000    complex shift for real part using Kramers Kronig
   OMEGAMAX=  -1.0    maximum frequency
   DEG_THRESHOLD= 0.2000000E-02 threshold for treating states as degnerate
   RTIME   =   -0.100 relaxation time in fs
  (WPLASMAI=    0.000 imaginary part of plasma frequency in eV, 0.658/RTIME)
   DFIELD  = 0.0000000 0.0000000 0.0000000 field for delta impulse in time
 
  Optional k-point grid parameters
   LKPOINTS_OPT  =     F    use optional k-point grid
   KPOINTS_OPT_MODE=     1    mode for optional k-point grid
 
 Orbital magnetization related:
   ORBITALMAG=     F  switch on orbital magnetization
   LCHIMAG   =     F  perturbation theory with respect to B field
   DQ        =  0.001000  dq finite difference perturbation B field
   LLRAUG    =     F  two centre corrections for induced B field
   LBONE     =     F  B-component reconstruction in AE one-centre
   LVGVCALC  =     T  calculate vGv susceptibility
   LVGVAPPL  =     F  apply vGv susceptibility instead of pGv for G=0

 Random number generation:
   RANDOM_GENERATOR = DEFAULT
   PCG_SEED         = not used


--------------------------------------------------------------------------------------------------------


 conjugate gradient relaxation of ions
 charge density and potential will be updated during run
 spin polarized calculation
 RMM-DIIS sequential band-by-band and
  variant of blocked Davidson during initial phase
 perform sub-space diagonalisation
    before iterative eigenvector-optimisation
 modified Broyden-mixing scheme, WC =      100.0
 initial mixing is a Kerker type mixing with AMIX =  0.4000 and BMIX =      1.0000
 Hartree-type preconditioning will be used
 using additional bands           56
 real space projection scheme for non local part
 use partial core corrections
 calculate Harris-corrections to forces 
   (improved forces if not selfconsistent)
 use gradient corrections 
 use of overlap-Matrix (Vanderbilt PP)
 Gauss-broadening in eV      SIGMA  =   0.03


--------------------------------------------------------------------------------------------------------


  energy-cutoff  :      520.00
  volume of cell :      900.77
      direct lattice vectors                 reciprocal lattice vectors
     9.657634491  0.000000000  0.000000000     0.103545025  0.000000000  0.000000000
     0.000000000  9.657634491  0.000000000     0.000000000  0.103545025  0.000000000
     0.000000000  0.000000000  9.657634491     0.000000000  0.000000000  0.103545025

  length of vectors
     9.657634491  9.657634491  9.657634491     0.103545025  0.103545025  0.103545025


 
 k-points in units of 2pi/SCALE and weight: Automatic mesh                          
   0.02588626  0.02588626  0.02588626       0.250
  -0.02588626  0.02588626  0.02588626       0.250
  -0.02588626 -0.02588626  0.02588626       0.250
   0.02588626 -0.02588626  0.02588626       0.250
 
 k-points in reciprocal lattice and weights: Automatic mesh                          
   0.25000000  0.25000000  0.25000000       0.250
  -0.25000000  0.25000000  0.25000000       0.250
  -0.25000000 -0.25000000  0.25000000       0.250
   0.25000000 -0.25000000  0.25000000       0.250
 
 position of ions in fractional coordinates (direct lattice) 
   0.95776145  0.18729902  0.17468202
   0.98118865  0.81507619  0.77788501
   0.04204107  0.16277809  0.83077749
   0.00853709  0.76168157  0.21116705
   0.28545020  0.28336294  0.98767685
   0.22114116  0.78287000  0.00815816
   0.68092166  0.33780030  0.04592176
   0.79376550  0.82740508  0.98284353
   0.20649672  0.97806813  0.21947027
   0.33047601  0.02933398  0.66270030
   0.67621135  0.97826299  0.70773054
   0.71570952  0.01716651  0.29321816
   0.17628911  0.65884242  0.46624208
   0.16400199  0.31394238  0.54003772
   0.69864060  0.76913826  0.52674741
   0.82226709  0.27821835  0.48946332
   0.28657665  0.47990264  0.78016693
   0.33243086  0.52747891  0.18718230
   0.82091306  0.48006087  0.30739718
   0.83105112  0.52915196  0.70136975
   0.49221036  0.27823113  0.78841405
   0.45353581  0.80984298  0.33238220
   0.51826352  0.20373175  0.34141443
   0.53573203  0.67963781  0.83356559
   0.49927053  0.49958544  0.50091165
   0.50228901  0.99939247  0.01110207
   0.99330628  0.49275043  0.99637733
   0.00387660  0.99011011  0.50278774
   0.14453724  0.87033581  0.60609168
   0.10451175  0.12950916  0.37830437
   0.87849031  0.86361960  0.38619576
   0.88779279  0.09948570  0.64353634
   0.85241828  0.61160642  0.10301689
   0.88130343  0.35478717  0.88163426
   0.10808010  0.61758801  0.86676542
   0.11561635  0.38516840  0.13269464
   0.64141877  0.12125831  0.90653615
   0.60607473  0.86148944  0.13417490
   0.38297877  0.12133582  0.13834508
   0.38969593  0.88868571  0.86839282
   0.61078007  0.61201485  0.35967768
   0.63088598  0.38226190  0.62001368
   0.38895044  0.63607211  0.62087008
   0.35900435  0.38143201  0.39293765
   0.75180935  0.75277369  0.75718189
   0.74398583  0.25152837  0.26389268
   0.24060086  0.74404062  0.24381517
   0.25719174  0.24349311  0.75311330
   0.01284066  0.97004250  0.01511221
   0.98282105  0.48593015  0.50302688
   0.52930232  0.99148041  0.49608151
   0.46853784  0.47291258  0.97474511
 
 position of ions in cartesian coordinates  (Angst):
   9.24971004  1.80886552  1.68701514
   9.47596132  7.87170794  7.51252911
   0.40601728  1.57205134  8.02334539
   0.08244814  7.35604221  2.03937421
   2.75677365  2.73661572  9.53862197
   2.13570050  7.56067233  0.07878857
   6.57609255  3.26235185  0.44349562
   7.66589711  7.99077581  9.49194359
   1.99426980  9.44582449  2.11956361
   3.19161649  0.28329686  6.40011725
   6.53060201  9.44770640  6.83500287
   6.91206092  0.16578791  2.83179386
   1.70253578  6.36285923  4.50279556
   1.58387127  3.03194079  5.21548690
   6.74721551  7.42805619  5.08713400
   7.94115505  2.68693117  4.72705783
   2.76765252  4.63472425  7.53456703
   3.21049577  5.09419855  1.80773825
   7.92807829  4.63625237  2.96872965
   8.02598793  5.11035622  6.77357272
   4.75358771  2.68705455  7.61421477
   4.38008311  7.82116745  3.21002577
   5.00519961  1.96756681  3.29725577
   5.17390411  6.56369359  8.05027177
   4.82177232  4.82481353  4.83762160
   4.85092368  9.65176722  0.10721970
   9.59298900  4.75880354  9.62264810
   0.03743877  9.56212157  4.85574022
   1.39588779  8.40538516  5.85341189
   1.00933626  1.25075214  3.65352530
   8.48413834  8.34052242  3.72973753
   8.57397831  0.96079650  6.21503871
   8.23234421  5.90667130  0.99489944
   8.51130636  3.42640482  8.51450142
   1.04379810  5.96443928  8.37090365
   1.11658042  3.71981560  1.28151635
   6.19458806  1.17106844  8.75499475
   5.85324822  8.31995012  1.29581212
   3.69866900  1.17181703  1.33608625
   3.76354085  8.58260173  8.38662048
   5.89869068  5.91061568  3.47363552
   6.09286616  3.69174571  5.98786546
   3.75634118  6.14295197  5.99613626
   3.46713282  3.68373095  3.79484822
   7.26069989  7.27001316  7.31258589
   7.18514318  2.42916904  2.54857900
   2.32363513  7.18567236  2.35467781
   2.48386386  2.35156741  7.27329296
   0.12401043  9.36831591  0.14594821
   9.49172647  4.69293579  4.85804974
   5.11180837  9.57535541  4.79097388
   4.52496725  4.56721683  9.41373198
 


--------------------------------------------------------------------------------------------------------


 k-point   1 :   0.2500 0.2500 0.2500  plane waves:   24252
 k-point   2 :  -0.2500 0.2500 0.2500  plane waves:   24252
 k-point   3 :  -0.2500-0.2500 0.2500  plane waves:   24252
 k-point   4 :   0.2500-0.2500 0.2500  plane waves:   24252

 maximum and minimum number of plane-waves per node :       778      744

 maximum number of plane-waves:     24252
 maximum index in each direction: 
   IXMAX=   18   IYMAX=   18   IZMAX=   17
   IXMIN=  -18   IYMIN=  -18   IZMIN=  -18


 real space projection operators:
  total allocation   :      28377.89 KBytes
  max/ min on nodes  :       1194.03        745.59


 parallel 3D FFT for wavefunctions:
    minimum data exchange during FFTs selected (reduces bandwidth)
 parallel 3D FFT for charge:
    minimum data exchange during FFTs selected (reduces bandwidth)


 total amount of memory used by VASP MPI-rank0    48238. kBytes
=======================================================================

   base      :      30000. kBytes
   nonlr-proj:       6578. kBytes
   fftplans  :       1747. kBytes
   grid      :       5278. kBytes
   one-center:         62. kBytes
   wavefun   :       4573. kBytes
 
     INWAV:  cpu time      0.0001: real time      0.0001
 Broyden mixing: mesh for mixing (old mesh)
   NGX = 35   NGY = 35   NGZ = 35
  (NGX  =144   NGY  =144   NGZ  =144)
  gives a total of  42875 points

 initial charge density was supplied:
 charge density of overlapping atoms calculated
 number of electron     240.0000000 magnetization      52.0000000
 keeping initial charge density in first step


--------------------------------------------------------------------------------------------------------


 Maximum index for non-local projection operator          556
 Maximum index for augmentation-charges         1005 (set IRDMAX)


--------------------------------------------------------------------------------------------------------


 First call to EWALD:  gamma=   0.184
 Maximum number of real-space cells 3x 3x 3
 Maximum number of reciprocal cells 3x 3x 3

    FEWALD:  cpu time      0.0033: real time      0.0037


--------------------------------------- Ionic step        1  -------------------------------------------




--------------------------------------- Iteration      1(   1)  ---------------------------------------


    POTLOK:  cpu time      0.0590: real time      0.0813
    SETDIJ:  cpu time      0.4315: real time      0.4396
     EDDAV:  cpu time      2.2434: real time      2.2834
       DOS:  cpu time      0.0024: real time      0.0038
    --------------------------------------------
      LOOP:  cpu time      2.7363: real time      2.8082

 eigenvalue-minimisations  :  3104
 total energy-change (2. order) : 0.1582976E+04  (-0.1137746E+05)
 number of electron     240.0000000 magnetization      52.0000000
 augmentation part      240.0000000 magnetization      52.0000000

 Free energy of the ion-electron system (eV)
  ---------------------------------------------------
  alpha Z        PSCENC =       301.36274056
  Ewald energy   TEWEN  =     -8829.66223588
  -Hartree energ DENC   =     -2102.51294050
  -exchange      EXHF   =         0.00000000
  -V(xc)+E(xc)   XCENC  =       534.29389271
  PAW double counting   =      8141.38806575    -8271.61346273
  entropy T*S    EENTRO =        -0.00769010
  eigenvalues    EBANDS =      -893.41237089
  atomic energy  EATOM  =     12703.13999606
  Solvation  Ediel_sol  =         0.00000000
  ---------------------------------------------------
  free energy    TOTEN  =      1582.97599498 eV

  energy without entropy =     1582.98368507  energy(sigma->0) =     1582.97984002


--------------------------------------------------------------------------------------------------------




--------------------------------------- Iteration      1(   2)  ---------------------------------------


     EDDAV:  cpu time      2.6378: real time      2.6638
       DOS:  cpu time      0.0006: real time      0.0006
    --------------------------------------------
      LOOP:  cpu time      2.6383: real time      2.6643

 eigenvalue-minimisations  :  3864
 total energy-change (2. order) :-0.1640060E+04  (-0.1543324E+04)
 number of electron     240.0000000 magnetization      52.0000000
 augmentation part      240.0000000 magnetization      52.0000000

 Free energy of the ion-electron system (eV)
  ---------------------------------------------------
  alpha Z        PSCENC =       301.36274056
  Ewald energy   TEWEN  =     -8829.66223588
  -Hartree energ DENC   =     -2102.51294050
  -exchange      EXHF   =         0.00000000
  -V(xc)+E(xc)   XCENC  =       534.29389271
  PAW double counting   =      8141.38806575    -8271.61346273
  entropy T*S    EENTRO =        -0.00000000
  eigenvalues    EBANDS =     -2533.48003102
  atomic energy  EATOM  =     12703.13999606
  Solvation  Ediel_sol  =         0.00000000
  ---------------------------------------------------
  free energy    TOTEN  =       -57.08397506 eV

  energy without entropy =      -57.08397506  energy(sigma->0) =      -57.08397506


--------------------------------------------------------------------------------------------------------




--------------------------------------- Iteration      1(   3)  ---------------------------------------


     EDDAV:  cpu time      2.5965: real time      2.6211
       DOS:  cpu time      0.0004: real time      0.0004
    --------------------------------------------
      LOOP:  cpu time      2.5969: real time      2.6215

 eigenvalue-minimisations  :  3744
 total energy-change (2. order) :-0.1711026E+03  (-0.1690050E+03)
 number of electron     240.0000000 magnetization      52.0000000
 augmentation part      240.0000000 magnetization      52.0000000

 Free energy of the ion-electron system (eV)
  ---------------------------------------------------
  alpha Z        PSCENC =       301.36274056
  Ewald energy   TEWEN  =     -8829.66223588
  -Hartree energ DENC   =     -2102.51294050
  -exchange      EXHF   =         0.00000000
  -V(xc)+E(xc)   XCENC  =       534.29389271
  PAW double counting   =      8141.38806575    -8271.61346273
  entropy T*S    EENTRO =        -0.00000000
  eigenvalues    EBANDS =     -2704.58264688
  atomic energy  EATOM  =     12703.13999606
  Solvation  Ediel_sol  =         0.00000000
  ---------------------------------------------------
  free energy    TOTEN  =      -228.18659092 eV

  energy without entropy =     -228.18659092  energy(sigma->0) =     -228.18659092


--------------------------------------------------------------------------------------------------------




--------------------------------------- Iteration      1(   4)  ---------------------------------------


     EDDAV:  cpu time      3.0789: real time      3.1065
       DOS:  cpu time      0.0004: real time      0.0004
    --------------------------------------------
      LOOP:  cpu time      3.0794: real time      3.1069

 eigenvalue-minimisations  :  4728
 total energy-change (2. order) :-0.1369508E+02  (-0.1366739E+02)
 number of electron     240.0000000 magnetization      52.0000000
 augmentation part      240.0000000 magnetization      52.0000000

 Free energy of the ion-electron system (eV)
  ---------------------------------------------------
  alpha Z        PSCENC =       301.36274056
  Ewald energy   TEWEN  =     -8829.66223588
  -Hartree energ DENC   =     -2102.51294050
  -exchange      EXHF   =         0.00000000
  -V(xc)+E(xc)   XCENC  =       534.29389271
  PAW double counting   =      8141.38806575    -8271.61346273
  entropy T*S    EENTRO =        -0.00000000
  eigenvalues    EBANDS =     -2718.27772519
  atomic energy  EATOM  =     12703.13999606
  Solvation  Ediel_sol  =         0.00000000
  ---------------------------------------------------
  free energy    TOTEN  =      -241.88166923 eV

  energy without entropy =     -241.88166923  energy(sigma->0) =     -241.88166923


--------------------------------------------------------------------------------------------------------




--------------------------------------- Iteration      1(   5)  ---------------------------------------


     EDDAV:  cpu time      2.9156: real time      2.9419
       DOS:  cpu time      0.0005: real time      0.0005
    --------------------------------------------
      LOOP:  cpu time      2.9161: real time      2.9424

 eigenvalue-minimisations  :  4432
 total energy-change (2. order) :-0.2612695E+00  (-0.2611502E+00)
 number of electron     240.0000000 magnetization      52.0000000
 augmentation part      240.0000000 magnetization      52.0000000

 Free energy of the ion-electron system (eV)
  ---------------------------------------------------
  alpha Z        PSCENC =       301.36274056
  Ewald energy   TEWEN  =     -8829.66223588
  -Hartree energ DENC   =     -2102.51294050
  -exchange      EXHF   =         0.00000000
  -V(xc)+E(xc)   XCENC  =       534.29389271
  PAW double counting   =      8141.38806575    -8271.61346273
  entropy T*S    EENTRO =        -0.00000000
  eigenvalues    EBANDS =     -2718.53899472
  atomic energy  EATOM  =     12703.13999606
  Solvation  Ediel_sol  =         0.00000000
  ---------------------------------------------------
  free energy    TOTEN  =      -242.14293876 eV

  energy without entropy =     -242.14293876  energy(sigma->0) =     -242.14293876


--------------------------------------------------------------------------------------------------------




--------------------------------------- Iteration      1(   6)  ---------------------------------------


     EDDAV:  cpu time      3.0435: real time      3.0694
       DOS:  cpu time      0.0004: real time      0.0004
    --------------------------------------------
      LOOP:  cpu time      3.0439: real time      3.0698

 eigenvalue-minimisations  :  4656
 total energy-change (2. order) :-0.1200274E-01  (-0.1200149E-01)
 number of electron     240.0000000 magnetization      52.0000000
 augmentation part      240.0000000 magnetization      52.0000000

 Free energy of the ion-electron system (eV)
  ---------------------------------------------------
  alpha Z        PSCENC =       301.36274056
  Ewald energy   TEWEN  =     -8829.66223588
  -Hartree energ DENC   =     -2102.51294050
  -exchange      EXHF   =         0.00000000
  -V(xc)+E(xc)   XCENC  =       534.29389271
  PAW double counting   =      8141.38806575    -8271.61346273
  entropy T*S    EENTRO =        -0.00000000
  eigenvalues    EBANDS =     -2718.55099746
  atomic energy  EATOM  =     12703.13999606
  Solvation  Ediel_sol  =         0.00000000
  ---------------------------------------------------
  free energy    TOTEN  =      -242.15494150 eV

  energy without entropy =     -242.15494150  energy(sigma->0) =     -242.15494150


--------------------------------------------------------------------------------------------------------




--------------------------------------- Iteration      1(   7)  ---------------------------------------


     EDDAV:  cpu time      2.9679: real time      2.9987
       DOS:  cpu time      0.0004: real time      0.0004
    --------------------------------------------
      LOOP:  cpu time      2.9683: real time      2.9991

 eigenvalue-minimisations  :  4528
 total energy-change (2. order) :-0.4189773E-03  (-0.4189519E-03)
 number of electron     240.0000000 magnetization      52.0000000
 augmentation part      240.0000000 magnetization      52.0000000

 Free energy of the ion-electron system (eV)
  ---------------------------------------------------
  alpha Z        PSCENC =       301.36274056
  Ewald energy   TEWEN  =     -8829.66223588
  -Hartree energ DENC   =     -2102.51294050
  -exchange      EXHF   =         0.00000000
  -V(xc)+E(xc)   XCENC  =       534.29389271
  PAW double counting   =      8141.38806575    -8271.61346273
  entropy T*S    EENTRO =        -0.00000000
  eigenvalues    EBANDS =     -2718.55141644
  atomic energy  EATOM  =     12703.13999606
  Solvation  Ediel_sol  =         0.00000000
  ---------------------------------------------------
  free energy    TOTEN  =      -242.15536048 eV

  energy without entropy =     -242.15536048  energy(sigma->0) =     -242.15536048


--------------------------------------------------------------------------------------------------------




--------------------------------------- Iteration      1(   8)  ---------------------------------------


     EDDAV:  cpu time      3.0137: real time      3.0376
       DOS:  cpu time      0.0004: real time      0.0004
    --------------------------------------------
      LOOP:  cpu time      3.0141: real time      3.0380

 eigenvalue-minimisations  :  4568
 total energy-change (2. order) :-0.2475979E-04  (-0.2475952E-04)
 number of electron     240.0000000 magnetization      52.0000000
 augmentation part      240.0000000 magnetization      52.0000000

 Free energy of the ion-electron system (eV)
  ---------------------------------------------------
  alpha Z        PSCENC =       301.36274056
  Ewald energy   TEWEN  =     -8829.66223588
  -Hartree energ DENC   =     -2102.51294050
  -exchange      EXHF   =         0.00000000
  -V(xc)+E(xc)   XCENC  =       534.29389271
  PAW double counting   =      8141.38806575    -8271.61346273
  entropy T*S    EENTRO =        -0.00000000
  eigenvalues    EBANDS =     -2718.55144120
  atomic energy  EATOM  =     12703.13999606
  Solvation  Ediel_sol  =         0.00000000
  ---------------------------------------------------
  free energy    TOTEN  =      -242.15538524 eV

  energy without entropy =     -242.15538524  energy(sigma->0) =     -242.15538524


--------------------------------------------------------------------------------------------------------




--------------------------------------- Iteration      1(   9)  ---------------------------------------


     EDDAV:  cpu time      2.9303: real time      2.9542
       DOS:  cpu time      0.0004: real time      0.0004
    --------------------------------------------
      LOOP:  cpu time      2.9308: real time      2.9546

 eigenvalue-minimisations  :  4464
 total energy-change (2. order) :-0.1620885E-05  (-0.1621024E-05)
 number of electron     240.0000000 magnetization      52.0000000
 augmentation part      240.0000000 magnetization      52.0000000

 Free energy of the ion-electron system (eV)
  ---------------------------------------------------
  alpha Z        PSCENC =       301.36274056
  Ewald energy   TEWEN  =     -8829.66223588
  -Hartree energ DENC   =     -2102.51294050
  -exchange      EXHF   =         0.00000000
  -V(xc)+E(xc)   XCENC  =       534.29389271
  PAW double counting   =      8141.38806575    -8271.61346273
  entropy T*S    EENTRO =        -0.00000000
  eigenvalues    EBANDS =     -2718.55144282
  atomic energy  EATOM  =     12703.13999606
  Solvation  Ediel_sol  =         0.00000000
  ---------------------------------------------------
  free energy    TOTEN  =      -242.15538686 eV

  energy without entropy =     -242.15538686  energy(sigma->0) =     -242.15538686


--------------------------------------------------------------------------------------------------------




--------------------------------------- Iteration      1(  10)  ---------------------------------------


     EDDAV:  cpu time      1.9730: real time      1.9915
       DOS:  cpu time      0.0005: real time      0.0005
    CHARGE:  cpu time      0.0684: real time      0.0747
    MIXING:  cpu time      0.0020: real time      0.0036
    --------------------------------------------
      LOOP:  cpu time      2.0438: real time      2.0703

 eigenvalue-minimisations  :  2656
 total energy-change (2. order) :-0.7677409E-07  (-0.7640129E-07)
 number of electron     239.9999992 magnetization      27.2569049
 augmentation part        1.4914226 magnetization      27.6991145

 Broyden mixing:
  rms(total) = 0.64369E+01    rms(broyden)= 0.64363E+01
  rms(prec ) = 0.66790E+01
  weight for this iteration     100.00

 Free energy of the ion-electron system (eV)
  ---------------------------------------------------
  alpha Z        PSCENC =       301.36274056
  Ewald energy   TEWEN  =     -8829.66223588
  -Hartree energ DENC   =     -2102.51294050
  -exchange      EXHF   =         0.00000000
  -V(xc)+E(xc)   XCENC  =       534.29389271
  PAW double counting   =      8141.38806575    -8271.61346273
  entropy T*S    EENTRO =        -0.00000000
  eigenvalues    EBANDS =     -2718.55144290
  atomic energy  EATOM  =     12703.13999606
  Solvation  Ediel_sol  =         0.00000000
  ---------------------------------------------------
  free energy    TOTEN  =      -242.15538693 eV

  energy without entropy =     -242.15538693  energy(sigma->0) =     -242.15538693


--------------------------------------------------------------------------------------------------------




--------------------------------------- Iteration      1(  11)  ---------------------------------------


    POTLOK:  cpu time      0.0561: real time      0.0569
    SETDIJ:  cpu time      0.4187: real time      0.4213
    EDDIAG:  cpu time      0.3636: real time      0.3671
  RMM-DIIS:  cpu time      1.1788: real time      1.1894
    ORTHCH:  cpu time      0.0641: real time      0.0659
       DOS:  cpu time      0.0005: real time      0.0005
    CHARGE:  cpu time      0.0659: real time      0.0682
    MIXING:  cpu time      0.0012: real time      0.0027
    --------------------------------------------
      LOOP:  cpu time      2.1489: real time      2.1721

 eigenvalue-minimisations  :  2816
 total energy-change (2. order) : 0.5915353E+01  (-0.4731917E+01)
 number of electron     239.9999992 magnetization      16.3059186
 augmentation part        1.7014095 magnetization      16.4897979

 Broyden mixing:
  rms(total) = 0.33069E+01    rms(broyden)= 0.33067E+01
  rms(prec ) = 0.34233E+01
  weight for this iteration     100.00

 eigenvalues of (default mixing * dielectric matrix)
  average eigenvalue GAMMA=   0.7256
  0.7256

 Free energy of the ion-electron system (eV)
  ---------------------------------------------------
  alpha Z        PSCENC =       301.36274056
  Ewald energy   TEWEN  =     -8829.66223588
  -Hartree energ DENC   =     -2150.58501191
  -exchange      EXHF   =         0.00000000
  -V(xc)+E(xc)   XCENC  =       542.58558332
  PAW double counting   =      8928.38590760    -9064.68312436
  entropy T*S    EENTRO =        -0.00000000
  eigenvalues    EBANDS =     -2666.78388902
  atomic energy  EATOM  =     12703.13999606
  Solvation  Ediel_sol  =         0.00000000
  ---------------------------------------------------
  free energy    TOTEN  =      -236.24003363 eV

  energy without entropy =     -236.24003363  energy(sigma->0) =     -236.24003363


--------------------------------------------------------------------------------------------------------




--------------------------------------- Iteration      1(  12)  ---------------------------------------


    POTLOK:  cpu time      0.0547: real time      0.0555
    SETDIJ:  cpu time      0.4188: real time      0.4212
    EDDIAG:  cpu time      0.3607: real time      0.3630
  RMM-DIIS:  cpu time      1.2305: real time      1.2416
    ORTHCH:  cpu time      0.0638: real time      0.0648
       DOS:  cpu time      0.0005: real time      0.0005
    CHARGE:  cpu time      0.0660: real time      0.0681
    MIXING:  cpu time      0.0012: real time      0.0012
    --------------------------------------------
      LOOP:  cpu time      2.1961: real time      2.2159

 eigenvalue-minimisations  :  2953
 total energy-change (2. order) :-0.1982039E+02  (-0.2181402E+01)
 number of electron     239.9999992 magnetization       0.5633906
 augmentation part        1.8014943 magnetization       0.9051912

 Broyden mixing:
  rms(total) = 0.20309E+01    rms(broyden)= 0.20309E+01
  rms(prec ) = 0.20920E+01
  weight for this iteration     100.00

 eigenvalues of (default mixing * dielectric matrix)
  average eigenvalue GAMMA=   1.1508
  1.6311  0.6704

 Free energy of the ion-electron system (eV)
  ---------------------------------------------------
  alpha Z        PSCENC =       301.36274056
  Ewald energy   TEWEN  =     -8829.66223588
  -Hartree energ DENC   =     -2174.82455660
  -exchange      EXHF   =         0.00000000
  -V(xc)+E(xc)   XCENC  =       536.23002265
  PAW double counting   =      9282.73714091    -9422.63453075
  entropy T*S    EENTRO =        -0.00000000
  eigenvalues    EBANDS =     -2652.40899874
  atomic energy  EATOM  =     12703.13999606
  Solvation  Ediel_sol  =         0.00000000
  ---------------------------------------------------
  free energy    TOTEN  =      -256.06042179 eV

  energy without entropy =     -256.06042179  energy(sigma->0) =     -256.06042179


--------------------------------------------------------------------------------------------------------




--------------------------------------- Iteration      1(  13)  ---------------------------------------


    POTLOK:  cpu time      0.0533: real time      0.0541
    SETDIJ:  cpu time      0.4178: real time      0.4201
    EDDIAG:  cpu time      0.3601: real time      0.3624
  RMM-DIIS:  cpu time      1.2071: real time      1.2181
    ORTHCH:  cpu time      0.0637: real time      0.0659
       DOS:  cpu time      0.0005: real time      0.0005
    CHARGE:  cpu time      0.0666: real time      0.0686
    MIXING:  cpu time      0.0012: real time      0.0012
    --------------------------------------------
      LOOP:  cpu time      2.1704: real time      2.1910

 eigenvalue-minimisations  :  2899
 total energy-change (2. order) :-0.2480872E+01  (-0.9022971E+00)
 number of electron     239.9999992 magnetization      -1.8428765
 augmentation part        1.9018200 magnetization      -1.7379387

 Broyden mixing:
  rms(total) = 0.67419E+00    rms(broyden)= 0.67418E+00
  rms(prec ) = 0.70646E+00
  weight for this iteration     100.00

 eigenvalues of (default mixing * dielectric matrix)
  average eigenvalue GAMMA=   1.3013
  2.5044  0.7469  0.6527

 Free energy of the ion-electron system (eV)
  ---------------------------------------------------
  alpha Z        PSCENC =       301.36274056
  Ewald energy   TEWEN  =     -8829.66223588
  -Hartree energ DENC   =     -2202.35329650
  -exchange      EXHF   =         0.00000000
  -V(xc)+E(xc)   XCENC  =       537.77028061
  PAW double counting   =      9782.63112905    -9926.46515505
  entropy T*S    EENTRO =        -0.00000000
  eigenvalues    EBANDS =     -2624.96475237
  atomic energy  EATOM  =     12703.13999606
  Solvation  Ediel_sol  =         0.00000000
  ---------------------------------------------------
  free energy    TOTEN  =      -258.54129353 eV

  energy without entropy =     -258.54129353  energy(sigma->0) =     -258.54129353


--------------------------------------------------------------------------------------------------------




--------------------------------------- Iteration      1(  14)  ---------------------------------------


    POTLOK:  cpu time      0.0541: real time      0.0549
    SETDIJ:  cpu time      0.4182: real time      0.4201
    EDDIAG:  cpu time      0.3596: real time      0.3628
  RMM-DIIS:  cpu time      1.5696: real time      1.5833
    ORTHCH:  cpu time      0.0636: real time      0.0642
       DOS:  cpu time      0.0004: real time      0.0005
    CHARGE:  cpu time      0.0657: real time      0.0671
    MIXING:  cpu time      0.0011: real time      0.0011
    --------------------------------------------
      LOOP:  cpu time      2.5324: real time      2.5541

 eigenvalue-minimisations  :  3757
 total energy-change (2. order) :-0.2020348E+00  (-0.2003357E+00)
 number of electron     239.9999992 magnetization      -0.8295827
 augmentation part        1.8727575 magnetization      -0.8025947

 Broyden mixing:
  rms(total) = 0.32458E+00    rms(broyden)= 0.32458E+00
  rms(prec ) = 0.35998E+00
  weight for this iteration     100.00

 eigenvalues of (default mixing * dielectric matrix)
  average eigenvalue GAMMA=   1.2663
  2.6084  1.1753  0.6899  0.5917

 Free energy of the ion-electron system (eV)
  ---------------------------------------------------
  alpha Z        PSCENC =       301.36274056
  Ewald energy   TEWEN  =     -8829.66223588
  -Hartree energ DENC   =     -2203.79771031
  -exchange      EXHF   =         0.00000000
  -V(xc)+E(xc)   XCENC  =       538.22155276
  PAW double counting   =      9859.86834612   -10004.50453171
  entropy T*S    EENTRO =        -0.00000000
  eigenvalues    EBANDS =     -2623.37148591
  atomic energy  EATOM  =     12703.13999606
  Solvation  Ediel_sol  =         0.00000000
  ---------------------------------------------------
  free energy    TOTEN  =      -258.74332832 eV

  energy without entropy =     -258.74332832  energy(sigma->0) =     -258.74332832


--------------------------------------------------------------------------------------------------------




--------------------------------------- Iteration      1(  15)  ---------------------------------------


    POTLOK:  cpu time      0.0541: real time      0.0551
    SETDIJ:  cpu time      0.4187: real time      0.4205
    EDDIAG:  cpu time      0.3607: real time      0.3632
  RMM-DIIS:  cpu time      1.2828: real time      1.2944
    ORTHCH:  cpu time      0.0636: real time      0.0639
       DOS:  cpu time      0.0015: real time      0.0015
    CHARGE:  cpu time      0.0661: real time      0.0677
    MIXING:  cpu time      0.0012: real time      0.0012
    --------------------------------------------
      LOOP:  cpu time      2.2486: real time      2.2674

 eigenvalue-minimisations  :  3069
 total energy-change (2. order) : 0.2973294E-01  (-0.3371078E-01)
 number of electron     239.9999992 magnetization      -0.2173967
 augmentation part        1.8241642 magnetization      -0.1906268

 Broyden mixing:
  rms(total) = 0.70582E-01    rms(broyden)= 0.70579E-01
  rms(prec ) = 0.83127E-01
  weight for this iteration     100.00

 eigenvalues of (default mixing * dielectric matrix)
  average eigenvalue GAMMA=   1.2708
  2.5304  1.5879  0.9498  0.6851  0.6008

 Free energy of the ion-electron system (eV)
  ---------------------------------------------------
  alpha Z        PSCENC =       301.36274056
  Ewald energy   TEWEN  =     -8829.66223588
  -Hartree energ DENC   =     -2199.17455011
  -exchange      EXHF   =         0.00000000
  -V(xc)+E(xc)   XCENC  =       537.86263626
  PAW double counting   =      9830.66518698    -9975.11298479
  entropy T*S    EENTRO =        -0.00000000
  eigenvalues    EBANDS =     -2627.79438446
  atomic energy  EATOM  =     12703.13999606
  Solvation  Ediel_sol  =         0.00000000
  ---------------------------------------------------
  free energy    TOTEN  =      -258.71359538 eV

  energy without entropy =     -258.71359538  energy(sigma->0) =     -258.71359538


--------------------------------------------------------------------------------------------------------




--------------------------------------- Iteration      1(  16)  ---------------------------------------


    POTLOK:  cpu time      0.0544: real time      0.0553
    SETDIJ:  cpu time      0.4189: real time      0.4203
    EDDIAG:  cpu time      0.3601: real time      0.3633
  RMM-DIIS:  cpu time      1.2960: real time      1.3073
    ORTHCH:  cpu time      0.0633: real time      0.0637
       DOS:  cpu time      0.0005: real time      0.0005
    CHARGE:  cpu time      0.0654: real time      0.0671
    MIXING:  cpu time      0.0012: real time      0.0013
    --------------------------------------------
      LOOP:  cpu time      2.2598: real time      2.2788

 eigenvalue-minimisations  :  3082
 total energy-change (2. order) :-0.1927808E-01  (-0.1076957E-01)
 number of electron     239.9999992 magnetization      -0.1064344
 augmentation part        1.8017058 magnetization      -0.0919358

 Broyden mixing:
  rms(total) = 0.31728E-01    rms(broyden)= 0.31726E-01
  rms(prec ) = 0.38024E-01
  weight for this iteration     100.00

 eigenvalues of (default mixing * dielectric matrix)
  average eigenvalue GAMMA=   1.2494
  2.4442  1.9554  1.0390  0.6211  0.7009  0.7361

 Free energy of the ion-electron system (eV)
  ---------------------------------------------------
  alpha Z        PSCENC =       301.36274056
  Ewald energy   TEWEN  =     -8829.66223588
  -Hartree energ DENC   =     -2198.57872544
  -exchange      EXHF   =         0.00000000
  -V(xc)+E(xc)   XCENC  =       537.77998484
  PAW double counting   =      9819.42266958    -9963.64491413
  entropy T*S    EENTRO =        -0.00000000
  eigenvalues    EBANDS =     -2628.55238905
  atomic energy  EATOM  =     12703.13999606
[...]
  0.006  -0.005  -0.000  -0.000   0.003  -0.001  -0.000   0.000  -0.000  -0.000  -0.000   0.000   0.000   0.000
 -0.003   0.002   0.000  -0.000  -0.001   0.005  -0.000  -0.000   0.000   0.000  -0.000   0.000   0.000  -0.000
 -0.004   0.004   0.000   0.004  -0.003   0.006   0.000  -0.000   0.000   0.000  -0.000  -0.000  -0.000  -0.000
 -0.000   0.000   0.000  -0.001  -0.001  -0.003  -0.000  -0.000  -0.000  -0.000   0.000  -0.000  -0.000  -0.000
 -0.011   0.011   0.000  -0.004   0.003   0.003  -0.000   0.000   0.000  -0.000  -0.000   0.000   0.000  -0.000
 -0.012   0.012   0.000  -0.003   0.002   0.008  -0.000   0.000   0.000  -0.000  -0.000   0.000   0.000  -0.000
  0.018  -0.018  -0.000   0.000   0.004  -0.007   0.000   0.000  -0.000  -0.000  -0.000  -0.000  -0.000   0.000
 total augmentation occupancy for first ion, spin component:           2
 -0.000   0.000  -0.000  -0.000   0.000   0.000   0.000  -0.000  -0.000  -0.000  -0.000  -0.000   0.000   0.000
  0.000  -0.000   0.000   0.000  -0.000  -0.000  -0.000   0.000   0.000   0.000  -0.000   0.000  -0.000  -0.000
 -0.000   0.000   0.000  -0.000  -0.000   0.000  -0.000   0.000   0.000   0.000  -0.000   0.000   0.000  -0.000
 -0.000   0.000  -0.000  -0.000   0.000  -0.000   0.000  -0.000  -0.000   0.000  -0.000   0.000  -0.000   0.000
  0.000  -0.000  -0.000   0.000  -0.000   0.000   0.000  -0.000  -0.000  -0.000   0.000  -0.000   0.000   0.000
  0.000  -0.000   0.000  -0.000   0.000   0.000  -0.000   0.000   0.000  -0.000  -0.000   0.000   0.000  -0.000
  0.000  -0.000  -0.000   0.000   0.000  -0.000   0.000  -0.000  -0.000  -0.000   0.000  -0.000  -0.000   0.000
 -0.000   0.000   0.000  -0.000  -0.000   0.000  -0.000  -0.000   0.000   0.000  -0.000   0.000   0.000  -0.000
 -0.000   0.000   0.000  -0.000  -0.000   0.000  -0.000   0.000   0.000   0.000  -0.000   0.000   0.000  -0.000
 -0.000   0.000   0.000   0.000  -0.000  -0.000  -0.000   0.000   0.000   0.000  -0.000  -0.000  -0.000  -0.000
 -0.000  -0.000  -0.000  -0.000   0.000  -0.000   0.000  -0.000  -0.000  -0.000  -0.000  -0.000  -0.000   0.000
 -0.000   0.000   0.000   0.000  -0.000   0.000  -0.000   0.000   0.000  -0.000  -0.000  -0.000   0.000  -0.000
  0.000  -0.000   0.000  -0.000   0.000   0.000  -0.000   0.000   0.000  -0.000  -0.000   0.000   0.000   0.000
  0.000  -0.000  -0.000   0.000   0.000  -0.000   0.000  -0.000  -0.000  -0.000   0.000  -0.000   0.000   0.000


------------------------ aborting loop because EDIFF is reached ----------------------------------------


    CHARGE:  cpu time      0.0657: real time      0.0668
    FORLOC:  cpu time      0.0040: real time      0.0040
    FORNL :  cpu time      0.3993: real time      0.4025
    STRESS:  cpu time      1.1981: real time      1.2060
    FORCOR:  cpu time      0.0505: real time      0.0508
    FORHAR:  cpu time      0.0086: real time      0.0087
    MIXING:  cpu time      0.0007: real time      0.0007
    OFIELD:  cpu time      0.0000: real time      0.0000

 ---------------------------------------------------------------------------------------------

         DFTD3 V3.0 Rev 1        
 Edisp (eV)  -13.58998

 E6    (eV) :    -8.3735
 E8    (eV) :    -5.2165
 % E8        : 38.38
    FORVDW:  cpu time      0.2965: real time      0.2984

  FORCE on cell =-STRESS in cart. coord.  units (eV):
  Direction    XX          YY          ZZ          XY          YZ          ZX
  --------------------------------------------------------------------------------------
  Alpha Z   301.36274   301.36274   301.36274
  Ewald   -2954.97106 -2939.31080 -2935.53814   -12.71055   -21.41345   -31.54559
  Hartree   728.09656   734.95075   738.02569    -7.18689   -10.90872   -14.46542
  E(xc)    -947.79864  -947.75461  -947.76452    -0.00309    -0.04170    -0.05252
  Local   -1483.93693 -1502.75947 -1509.81490    19.19862    30.84021    45.42307
  n-local  1482.18333  1481.11739  1481.45125    -0.07146    -0.21320    -0.64099
  augment  -357.07205  -356.80070  -356.81055     0.02705    -0.09990     0.12326
  Kinetic  3246.83109  3243.40366  3243.26110     0.04653     1.93557    -0.80001
  Fock        0.00000     0.00000     0.00000     0.00000     0.00000     0.00000
  vdW       -14.37408   -14.35542   -14.38325     0.01546     0.01673     0.02471
  -------------------------------------------------------------------------------------
  Total       0.32096    -0.14647    -0.21058    -0.68433     0.11552    -1.93349
  in kB       0.57089    -0.26052    -0.37456    -1.21720     0.20548    -3.43906
  external pressure =       -0.02 kB  Pullay stress =        0.00 kB


 VOLUME and BASIS-vectors are now :
 -----------------------------------------------------------------------------
  energy-cutoff  :      520.00
  volume of cell :      900.77
      direct lattice vectors                 reciprocal lattice vectors
     9.657634491  0.000000000  0.000000000     0.103545025  0.000000000  0.000000000
     0.000000000  9.657634491  0.000000000     0.000000000  0.103545025  0.000000000
     0.000000000  0.000000000  9.657634491     0.000000000  0.000000000  0.103545025

  length of vectors
     9.657634491  9.657634491  9.657634491     0.103545025  0.103545025  0.103545025


 FORCES acting on ions
    electron-ion (+dipol)            ewald-force                    non-local-force                 convergence-correction
 -----------------------------------------------------------------------------------------------
   -.119E+01 0.894E+01 0.156E+02   -.662E-02 -.762E+01 -.138E+02   0.119E+01 -.132E+01 -.178E+01   0.189E-04 0.444E-04 -.473E-04
   -.673E+01 -.623E+01 -.247E+01   0.584E+01 0.486E+01 0.123E+01   0.890E+00 0.137E+01 0.123E+01   0.866E-04 0.757E-04 -.311E-04
   -.263E+01 0.865E+01 -.108E+02   0.327E+01 -.733E+01 0.928E+01   -.639E+00 -.132E+01 0.147E+01   0.613E-05 0.355E-04 -.102E-03
   0.425E+01 0.406E+01 -.417E+01   -.345E+01 -.478E+01 0.506E+01   -.792E+00 0.722E+00 -.896E+00   0.108E-03 0.266E-04 -.166E-03
   0.648E+01 0.763E+01 -.698E+01   -.707E+01 -.840E+01 0.643E+01   0.591E+00 0.773E+00 0.545E+00   -.195E-04 0.856E-05 -.702E-04
   -.792E+01 0.498E-01 0.765E+01   0.858E+01 -.791E+00 -.699E+01   -.671E+00 0.743E+00 -.659E+00   -.493E-04 0.271E-04 -.443E-04
   0.794E+01 -.150E+02 -.269E+01   -.686E+01 0.136E+02 0.371E+01   -.107E+01 0.144E+01 -.101E+01   -.570E-05 -.794E-04 -.180E-03
   -.160E+01 -.812E+01 -.324E+01   0.311E+00 0.679E+01 0.245E+01   0.128E+01 0.133E+01 0.784E+00   0.992E-04 0.525E-04 -.125E-03
   -.208E+01 -.738E+01 -.174E+01   0.318E+01 0.678E+01 0.260E+01   -.110E+01 0.595E+00 -.860E+00   0.414E-04 -.301E-04 0.410E-04
   -.582E+01 -.326E+01 0.126E+02   0.461E+01 0.383E+01 -.113E+02   0.121E+01 -.566E+00 -.132E+01   -.690E-04 0.161E-04 0.170E-04
   0.106E+02 -.954E+01 0.242E+01   -.927E+01 0.860E+01 -.143E+01   -.137E+01 0.930E+00 -.987E+00   0.219E-04 0.127E-03 0.357E-04
   -.239E+01 -.245E+01 0.535E+01   0.326E+01 0.312E+01 -.598E+01   -.884E+00 -.666E+00 0.631E+00   -.811E-04 0.168E-03 0.126E-04
   0.872E+01 0.110E+02 -.245E+01   -.793E+01 -.947E+01 0.162E+01   -.784E+00 -.149E+01 0.830E+00   0.836E-04 0.604E-05 0.197E-03
   0.133E+01 -.353E+01 -.211E+01   -.218E+00 0.281E+01 0.265E+01   -.111E+01 0.715E+00 -.535E+00   0.553E-05 -.389E-04 0.147E-03
   0.857E+00 0.412E+01 -.100E+01   0.210E+00 -.485E+01 0.183E+01   -.107E+01 0.734E+00 -.820E+00   -.836E-04 -.656E-05 0.188E-03
   -.188E+01 0.687E+00 -.684E+01   0.805E+00 -.148E+01 0.589E+01   0.108E+01 0.793E+00 0.951E+00   -.303E-04 -.459E-04 0.104E-03
   0.680E+01 -.612E+01 0.652E+01   -.754E+01 0.551E+01 -.719E+01   0.746E+00 0.602E+00 0.667E+00   0.497E-04 -.688E-04 -.841E-04
   -.131E+02 -.300E+00 0.488E+01   0.118E+02 0.125E+01 -.380E+01   0.125E+01 -.950E+00 -.107E+01   -.493E-04 -.631E-04 -.411E-04
   -.617E+01 -.682E+01 -.213E+00   0.514E+01 0.610E+01 -.760E+00   0.103E+01 0.721E+00 0.972E+00   0.436E-04 -.105E-03 0.666E-04
   -.288E+01 -.860E+00 -.247E+00   0.202E+01 0.159E+01 0.785E+00   0.856E+00 -.734E+00 -.539E+00   0.361E-06 -.825E-04 0.543E-04
   -.808E+01 0.650E+01 0.882E+01   0.749E+01 -.703E+01 -.958E+01   0.592E+00 0.528E+00 0.767E+00   0.238E-04 -.289E-04 -.348E-05
   0.105E+02 -.560E+01 -.657E+01   -.112E+02 0.458E+01 0.524E+01   0.769E+00 0.102E+01 0.134E+01   -.141E-03 0.728E-04 0.444E-04
   0.102E+02 0.148E+01 -.765E+01   -.954E+01 -.245E+00 0.659E+01   -.635E+00 -.123E+01 0.106E+01   -.388E-04 0.653E-05 0.658E-04
   -.120E+01 0.855E+01 -.151E+02   0.235E+01 -.727E+01 0.139E+02   -.115E+01 -.128E+01 0.120E+01   -.250E-04 -.239E-04 -.763E-04
   0.996E+00 0.998E+01 -.281E+00   -.104E+01 -.970E+01 0.521E-01   0.349E-01 -.280E+00 0.223E+00   -.147E-04 -.106E-03 0.361E-03
   0.705E+01 0.157E-01 0.226E+01   -.668E+01 -.167E+00 -.223E+01   -.367E+00 0.147E+00 -.365E-01   -.131E-03 0.191E-03 -.156E-03
   -.277E+01 0.186E+01 0.485E+00   0.235E+01 -.237E+01 -.481E+00   0.420E+00 0.498E+00 -.327E-02   0.146E-03 -.434E-04 -.209E-03
   -.866E+01 0.917E+00 -.477E+00   0.901E+01 -.101E+01 0.686E+00   -.350E+00 0.946E-01 -.206E+00   0.776E-04 0.757E-04 0.136E-03
   -.576E+02 0.361E+02 -.289E+02   0.612E+02 -.391E+02 0.311E+02   -.363E+01 0.300E+01 -.214E+01   0.112E-03 -.323E-04 0.173E-03
   -.492E+02 -.490E+02 0.302E+02   0.519E+02 0.528E+02 -.327E+02   -.272E+01 -.375E+01 0.249E+01   0.125E-03 -.128E-03 0.140E-03
   0.239E+02 0.499E+02 0.305E+02   -.270E+02 -.536E+02 -.334E+02   0.315E+01 0.368E+01 0.286E+01   0.303E-03 0.405E-03 0.368E-03
   0.329E+02 -.382E+02 -.521E+02   -.355E+02 0.411E+02 0.557E+02   0.264E+01 -.292E+01 -.361E+01   -.598E-04 0.513E-04 0.188E-03
   0.672E+02 -.225E+02 -.244E+02   -.719E+02 0.247E+02 0.265E+02   0.464E+01 -.216E+01 -.201E+01   0.164E-03 0.402E-04 -.379E-03
   0.374E+02 0.481E+02 0.403E+02   -.401E+02 -.513E+02 -.429E+02   0.273E+01 0.322E+01 0.260E+01   0.717E-04 -.156E-03 -.240E-03
   -.320E+02 -.288E+02 0.521E+02   0.347E+02 0.315E+02 -.563E+02   -.275E+01 -.271E+01 0.417E+01   -.948E-04 -.917E-04 -.839E-05
   -.318E+02 0.293E+02 -.612E+02   0.342E+02 -.316E+02 0.656E+02   -.237E+01 0.224E+01 -.445E+01   0.106E-03 -.291E-04 -.185E-03
   -.601E+02 -.344E+02 0.249E+02   0.646E+02 0.370E+02 -.265E+02   -.452E+01 -.261E+01 0.164E+01   -.800E-04 0.111E-03 -.226E-03
   -.226E+02 0.638E+02 -.250E+02   0.245E+02 -.680E+02 0.274E+02   -.186E+01 0.425E+01 -.246E+01   -.172E-03 0.109E-03 -.160E-03
   0.358E+02 -.409E+02 -.444E+02   -.385E+02 0.442E+02 0.478E+02   0.275E+01 -.332E+01 -.342E+01   0.254E-05 -.114E-03 -.115E-03
   0.407E+02 0.300E+02 0.481E+02   -.434E+02 -.326E+02 -.521E+02   0.270E+01 0.258E+01 0.398E+01   -.908E-04 0.183E-03 -.785E-04
   -.299E+02 -.168E+02 0.691E+02   0.320E+02 0.189E+02 -.734E+02   -.212E+01 -.211E+01 0.430E+01   -.153E-03 -.797E-04 0.262E-03
   -.336E+02 0.430E+02 -.377E+02   0.368E+02 -.460E+02 0.412E+02   -.324E+01 0.306E+01 -.350E+01   -.149E-03 -.152E-04 0.917E-04
   0.364E+02 -.581E+02 -.309E+02   -.387E+02 0.623E+02 0.329E+02   0.234E+01 -.416E+01 -.202E+01   -.756E-04 -.115E-03 0.149E-03
   0.486E+02 0.437E+02 0.336E+02   -.521E+02 -.465E+02 -.362E+02   0.346E+01 0.282E+01 0.264E+01   -.799E-04 -.139E-03 0.238E-03
   0.382E+01 0.178E+02 -.493E+01   -.392E+01 -.182E+02 0.503E+01   0.958E-01 0.434E+00 -.997E-01   0.526E-04 0.417E-04 0.212E-04
   0.813E+01 -.616E+01 0.154E+02   -.839E+01 0.630E+01 -.158E+02   0.258E+00 -.134E+00 0.304E+00   0.262E-04 -.137E-03 0.127E-03
   -.131E+02 0.145E+02 -.112E+02   0.133E+02 -.149E+02 0.114E+02   -.258E+00 0.366E+00 -.276E+00   -.407E-05 0.286E-03 -.425E-04
   0.125E+02 0.201E+02 0.182E+02   -.127E+02 -.205E+02 -.185E+02   0.264E+00 0.385E+00 0.351E+00   0.575E-04 0.114E-03 0.106E-04
   0.283E+01 -.300E+02 0.108E+02   -.285E+01 0.303E+02 -.109E+02   0.258E-01 -.343E+00 0.989E-01   0.494E-04 -.314E-03 -.194E-03
   -.213E+02 -.215E+02 -.124E+01   0.215E+02 0.221E+02 0.130E+01   -.223E+00 -.614E+00 -.621E-01   0.718E-04 -.118E-03 0.305E-03
   0.330E+02 -.207E+02 -.139E+02   -.333E+02 0.210E+02 0.141E+02   0.354E+00 -.292E+00 -.160E+00   0.467E-04 0.145E-03 0.202E-03
   -.336E+02 -.327E+02 -.314E+02   0.342E+02 0.333E+02 0.319E+02   -.649E+00 -.603E+00 -.549E+00   -.163E-03 -.260E-03 -.417E-03
 -----------------------------------------------------------------------------------------------
   -.102E+01 -.420E+01 -.264E+01   0.497E-13 -.107E-12 0.000E+00   0.102E+01 0.421E+01 0.263E+01   0.141E-03 -.320E-04 0.362E-03
 
 
 POSITION                                       TOTAL-FORCE (eV/Angst)
 -----------------------------------------------------------------------------------
      9.24971      1.80890      1.68698        -0.000066      0.000136     -0.000189
      9.47597      7.87167      7.51248         0.000009     -0.000140     -0.000212
      0.40607      1.57200      8.02332         0.000194     -0.000216     -0.000056
      0.08242      7.35590      2.03947        -0.000148     -0.000579      0.000390
      2.75678      2.73663      9.53866         0.000044      0.000077      0.000180
      2.13573      7.56060      0.07878         0.000117     -0.000255     -0.000042
      6.57614      3.26238      0.44350         0.000165      0.000166      0.000006
      7.66591      7.99086      9.49195         0.000042      0.000344     -0.000005
      1.99416      9.44582      2.11945        -0.000474      0.000009     -0.000496
      3.19158      0.28331      6.40009        -0.000099      0.000052     -0.000142
      6.53059      9.44772      6.83500        -0.000072      0.000006     -0.000046
      6.91203      0.16578      2.83173        -0.000110     -0.000047     -0.000262
      1.70260      6.36282      4.50279         0.000216     -0.000202     -0.000020
      1.58383      3.03190      5.21553        -0.000180     -0.000129      0.000150
      6.74719      7.42804      5.08713        -0.000092     -0.000041     -0.000031
      7.94118      2.68691      4.72704         0.000112     -0.000023     -0.000151
      2.76768      4.63473      7.53460         0.000126      0.000020      0.000124
      3.21056      5.09422      1.80780         0.000300      0.000060      0.000221
      7.92805      4.63625      2.96870        -0.000092      0.000003     -0.000139
      8.02596      5.11034      6.77360        -0.000091     -0.000071      0.000071
      4.75362      2.68704      7.61424         0.000127     -0.000060      0.000106
      4.38005      7.82118      3.21005        -0.000128      0.000096      0.000099
      5.00520      1.96759      3.29727        -0.000023      0.000106      0.000088
      5.17391      6.56375      8.05033         0.000045      0.000225      0.000259
      4.82179      4.82481      4.83764         0.000124     -0.000044      0.000351
      4.85092      9.65177      0.10723        -0.000074      0.000200      0.000050
      9.59300      4.75881      9.62264         0.000090     -0.000022     -0.000069
      0.03740      9.56212      4.85568        -0.000072      0.000093     -0.000217
      1.39595      8.40532      5.85338        -0.000115      0.000018     -0.000321
      1.00934      1.25082      3.65344        -0.000285     -0.000098     -0.000042
      8.48407      8.34050      3.72969         0.000046      0.000320      0.000106
      8.57394      0.96085      6.21508         0.000105     -0.000076     -0.000187
      8.23225      5.90670      0.99487         0.000092     -0.000268     -0.000365
      8.51131      3.42632      8.51445         0.000215     -0.000059      0.000041
      1.04383      5.96447      8.37081        -0.000125     -0.000203      0.000035
      1.11663      3.71981      1.28160        -0.000138      0.000322     -0.000020
      6.19469      1.17112      8.75500         0.000090     -0.000118      0.000208
      5.85324      8.31988      1.29584        -0.000340      0.000136     -0.000305
      3.69863      1.17186      1.33617         0.000124     -0.000146     -0.000028
      3.76349      8.58261      8.38655         0.000078      0.000263      0.000160
      5.89871      5.91064      3.47359        -0.000314     -0.000269      0.000276
      6.09295      3.69167      5.98792        -0.000021     -0.000028     -0.000090
      3.75635      6.14303      5.99623         0.000283      0.000005      0.000095
      3.46706      3.68371      3.79488         0.000176      0.000256      0.000374
      7.26070      7.27000      7.31259        -0.000009      0.000046     -0.000036
      7.18512      2.42917      2.54856        -0.000036      0.000005     -0.000040
      2.32362      7.18566      2.35469        -0.000081     -0.000039     -0.000041
      2.48389      2.35156      7.27331         0.000139      0.000029      0.000137
      0.12403      9.36836      0.14592         0.000019      0.000064     -0.000019
      9.49172      4.69296      4.85804        -0.000053     -0.000015     -0.000061
      5.11176      9.57537      4.79097         0.000133      0.000060      0.000046
      4.52503      4.56726      9.41379         0.000025      0.000033      0.000060
 -----------------------------------------------------------------------------------
    total drift:                                0.007547      0.008341     -0.007564


--------------------------------------------------------------------------------------------------------



  FREE ENERGIE OF THE ION-ELECTRON SYSTEM (eV)
  ---------------------------------------------------
  free  energy   TOTEN  =      -272.33052864 eV

  energy  without entropy=     -272.33052864  energy(sigma->0) =     -272.33052864
 
 d Force = 0.4920945E-06[ 0.257E-06, 0.727E-06]  d Energy = 0.7166711E-06-0.225E-06
 d Force = 0.4809597E-02[ 0.481E-02, 0.481E-02]  d Ewald  = 0.4809597E-02 0.127E-10


--------------------------------------------------------------------------------------------------------


    POTLOK:  cpu time      0.4726: real time      0.4742


--------------------------------------------------------------------------------------------------------


 stress matrix after NEB project (eV)
      0.32096     -0.68433     -1.93349
     -0.68433     -0.14647      0.11552
     -1.93349      0.11552     -0.21058
  FORCES: max atom, RMS     0.000714    0.000292
  FORCE total and by dimension    0.002107    0.000579
  Stress total and by dimension    2.934084    1.933486
 Conjugate gradient step on ions:
 trial-energy change:   -0.000001  1 .order   -0.000000   -0.000001   -0.000000
  (g-gl).g = 0.478E-06      g.g   = 0.513E-06  gl.gl    = 0.123E-05
 g(Force)  = 0.513E-06   g(Stress)= 0.000E+00 ortho     = 0.352E-07
 gamma     =   0.38992
 trial     =   1.38064
 opt step  =   2.13614  (harmonic =   2.13614) maximal distance =0.00005027
 next E    =  -272.330528   (d E  =  -0.00000)


--------------------------------------------------------------------------------------------------------


  
 reached required accuracy - stopping structural energy minimisation
     LOOP+:  cpu time      7.4844: real time      7.6013
    4ORBIT:  cpu time      0.0000: real time      0.0000

 total amount of memory used by VASP MPI-rank0    48238. kBytes
=======================================================================

   base      :      30000. kBytes
   nonlr-proj:       6578. kBytes
   fftplans  :       1747. kBytes
   grid      :       5278. kBytes
   one-center:         62. kBytes
   wavefun   :       4573. kBytes
 
  
  
 General timing and accounting informations for this job:
 ========================================================
  
                  Total CPU time used (sec):      116.651
                            User time (sec):      115.401
                          System time (sec):        1.250
                         Elapsed time (sec):      120.918
  
                   Maximum memory used (kb):      398912.
                   Average memory used (kb):          N/A
  
                          Minor page faults:        64262
                          Major page faults:          128
                 Voluntary context switches:         4551
