<?xml version="1.0" encoding="ISO-8859-1"?>
<modeling>
 <generator>
  <i name="program" type="string">vasp </i>
  <i name="version" type="string">6.4.1  </i>
  <i name="subversion" type="string">05Apr23 (build Jun 07 2023 15:38:11) complex                          parallel </i>
  <i name="platform" type="string">LinuxIFC </i>
  <i name="date" type="string">2023 10 20 </i>
  <i name="time" type="string">18:45:24 </i>
 </generator>
 <incar>
  <i type="string" name="PREC">Accu</i>
  <i type="string" name="ALGO">F</i>
  <i type="logical" name="LDIAG"> T  </i>
  <i type="int" name="ISPIN">     2</i>
  <i type="int" name="NELM">   100</i>
  <i type="int" name="NELMDL">   -10</i>
  <i type="int" name="IBRION">     2</i>
  <i name="EDIFF">      0.00000100</i>
  <i name="EDIFFG">     -0.00100000</i>
  <i type="int" name="NSW">  1000</i>
  <i type="int" name="ISIF">     2</i>
  <i name="ENCUT">    520.00000000</i>
  <i name="POTIM">      0.20000000</i>
  <i type="string" name="LREAL">Auto</i>
  <i type="logical" name="LPLANE"> T  </i>
  <i type="int" name="ISMEAR">     0</i>
  <i name="SIGMA">      0.03000000</i>
  <i type="int" name="LMAXMIX">     4</i>
  <i type="logical" name="LWAVE"> F  </i>
  <i type="logical" name="LCHARG"> F  </i>
  <i type="logical" name="LASPH"> T  </i>
  <i type="string" name="GGA">PE</i>
  <i type="int" name="IVDW">    12</i>
 </incar>
 <primitive_cell>
  <structure name="primitive_cell" >
   <crystal>
    <varray name="basis" >
     <v>       9.65763449       0.00000000       0.00000000 </v>
     <v>       0.00000000       9.65763449       0.00000000 </v>
     <v>       0.00000000       0.00000000       9.65763449 </v>
    </varray>
    <i name="volume">    900.76664148 </i>
    <varray name="rec_basis" >
     <v>       0.10354502       0.00000000       0.00000000 </v>
     <v>       0.00000000       0.10354502       0.00000000 </v>
     <v>       0.00000000       0.00000000       0.10354502 </v>
    </varray>
   </crystal>
   <varray name="positions" >
    <v>       0.95776145       0.18729902       0.17468202 </v>
    <v>       0.98118865       0.81507619       0.77788501 </v>
    <v>       0.04204107       0.16277809       0.83077749 </v>
    <v>       0.00853709       0.76168157       0.21116705 </v>
    <v>       0.28545020       0.28336294       0.98767685 </v>
    <v>       0.22114116       0.78287000       0.00815816 </v>
    <v>       0.68092166       0.33780030       0.04592176 </v>
    <v>       0.79376550       0.82740508       0.98284353 </v>
    <v>       0.20649672       0.97806813       0.21947027 </v>
    <v>       0.33047601       0.02933398       0.66270030 </v>
    <v>       0.67621135       0.97826299       0.70773054 </v>
    <v>       0.71570952       0.01716651       0.29321816 </v>
    <v>       0.17628911       0.65884242       0.46624208 </v>
    <v>       0.16400199       0.31394238       0.54003772 </v>
    <v>       0.69864060       0.76913826       0.52674741 </v>
    <v>       0.82226709       0.27821835       0.48946332 </v>
    <v>       0.28657665       0.47990264       0.78016693 </v>
    <v>       0.33243086       0.52747891       0.18718230 </v>
    <v>       0.82091306       0.48006087       0.30739718 </v>
    <v>       0.83105112       0.52915196       0.70136975 </v>
    <v>       0.49221036       0.27823113       0.78841405 </v>
    <v>       0.45353581       0.80984298       0.33238220 </v>
    <v>       0.51826352       0.20373175       0.34141443 </v>
    <v>       0.53573203       0.67963781       0.83356559 </v>
    <v>       0.49927053       0.49958544       0.50091165 </v>
    <v>       0.50228901       0.99939247       0.01110207 </v>
    <v>       0.99330628       0.49275043       0.99637733 </v>
    <v>       0.00387660       0.99011011       0.50278774 </v>
    <v>       0.14453724       0.87033581       0.60609168 </v>
    <v>       0.10451175       0.12950916       0.37830437 </v>
    <v>       0.87849031       0.86361960       0.38619576 </v>
    <v>       0.88779279       0.09948570       0.64353634 </v>
    <v>       0.85241828       0.61160642       0.10301689 </v>
    <v>       0.88130343       0.35478717       0.88163426 </v>
    <v>       0.10808010       0.61758801       0.86676542 </v>
    <v>       0.11561635       0.38516840       0.13269464 </v>
    <v>       0.64141877       0.12125831       0.90653615 </v>
    <v>       0.60607473       0.86148944       0.13417490 </v>
    <v>       0.38297877       0.12133582       0.13834508 </v>
    <v>       0.38969593       0.88868571       0.86839282 </v>
    <v>       0.61078007       0.61201485       0.35967768 </v>
    <v>       0.63088598       0.38226190       0.62001368 </v>
    <v>       0.38895044       0.63607211       0.62087008 </v>
    <v>       0.35900435       0.38143201       0.39293765 </v>
    <v>       0.75180935       0.75277369       0.75718189 </v>
    <v>       0.74398583       0.25152837       0.26389268 </v>
    <v>       0.24060086       0.74404062       0.24381517 </v>
    <v>       0.25719174       0.24349311       0.75311330 </v>
    <v>       0.01284066       0.97004250       0.01511221 </v>
    <v>       0.98282105       0.48593015       0.50302688 </v>
    <v>       0.52930232       0.99148041       0.49608151 </v>
    <v>       0.46853784       0.47291258       0.97474511 </v>
   </varray>
  </structure>
  <varray name="primitive_index" >
   <v type="int" >        1 </v>
   <v type="int" >        2 </v>
   <v type="int" >        3 </v>
   <v type="int" >        4 </v>
   <v type="int" >        5 </v>
   <v type="int" >        6 </v>
   <v type="int" >        7 </v>
   <v type="int" >        8 </v>
   <v type="int" >        9 </v>
   <v type="int" >       10 </v>
   <v type="int" >       11 </v>
   <v type="int" >       12 </v>
   <v type="int" >       13 </v>
   <v type="int" >       14 </v>
   <v type="int" >       15 </v>
   <v type="int" >       16 </v>
   <v type="int" >       17 </v>
   <v type="int" >       18 </v>
   <v type="int" >       19 </v>
   <v type="int" >       20 </v>
   <v type="int" >       21 </v>
   <v type="int" >       22 </v>
   <v type="int" >       23 </v>
   <v type="int" >       24 </v>
   <v type="int" >       25 </v>
   <v type="int" >       26 </v>
   <v type="int" >       27 </v>
   <v type="int" >       28 </v>
   <v type="int" >       29 </v>
   <v type="int" >       30 </v>
   <v type="int" >       31 </v>
   <v type="int" >       32 </v>
   <v type="int" >       33 </v>
   <v type="int" >       34 </v>
   <v type="int" >       35 </v>
   <v type="int" >       36 </v>
   <v type="int" >       37 </v>
   <v type="int" >       38 </v>
   <v type="int" >       39 </v>
   <v type="int" >       40 </v>
   <v type="int" >       41 </v>
   <v type="int" >       42 </v>
   <v type="int" >       43 </v>
   <v type="int" >       44 </v>
   <v type="int" >       45 </v>
   <v type="int" >       46 </v>
   <v type="int" >       47 </v>
   <v type="int" >       48 </v>
   <v type="int" >       49 </v>
   <v type="int" >       50 </v>
   <v type="int" >       51 </v>
   <v type="int" >       52 </v>
  </varray>
 </primitive_cell>
 <kpoints>
  <generation param="Monkhorst-Pack">
   <v type="int" name="divisions">       2        2        2 </v>
   <v name="usershift">      0.00000000       0.00000000       0.00000000 </v>
   <v name="genvec1">      0.50000000       0.00000000       0.00000000 </v>
   <v name="genvec2">      0.00000000       0.50000000       0.00000000 </v>
   <v name="genvec3">      0.00000000       0.00000000       0.50000000 </v>
   <v name="shift">      0.50000000       0.50000000       0.50000000 </v>
  </generation>
  <varray name="kpointlist" >
   <v>       0.25000000       0.25000000       0.25000000 </v>
   <v>      -0.25000000       0.25000000       0.25000000 </v>
   <v>      -0.25000000      -0.25000000       0.25000000 </v>
   <v>       0.25000000      -0.25000000       0.25000000 </v>
  </varray>
  <varray name="weights" >
   <v>       0.25000000 </v>
   <v>       0.25000000 </v>
   <v>       0.25000000 </v>
   <v>       0.25000000 </v>
  </varray>
 </kpoints>
 <parameters>
  <separator name="general" >
   <i type="string" name="SYSTEM">unknown system</i>
   <i type="logical" name="LCOMPAT"> F  </i>
  </separator>
  <separator name="electronic" >
   <i type="string" name="PREC">accu</i>
   <i name="ENMAX">    520.00000000</i>
   <i name="ENAUG">   1041.69900000</i>
   <i name="EDIFF">      0.00000100</i>
   <i type="int" name="IALGO">    68</i>
   <i type="int" name="IWAVPR">    11</i>
   <i type="int" name="NBANDS">   176</i>
   <i type="int" name="NBANDSLOW">    -1</i>
   <i type="int" name="NBANDSHIGH">    -1</i>
   <i name="NELECT">    240.00000000</i>
   <i type="int" name="TURBO">     0</i>
   <i type="int" name="IRESTART">     0</i>
   <i type="int" name="NREBOOT">     0</i>
   <i type="int" name="NMIN">     0</i>
   <i name="EREF">      0.00000000</i>
   <separator name="electronic smearing" >
    <i type="int" name="ISMEAR">     0</i>
    <i name="SIGMA">      0.03000000</i>
    <i name="KSPACING">      0.50000000</i>
    <i type="logical" name="KGAMMA"> T  </i>
    <i type="logical" name="KBLOWUP"> T  </i>
   </separator>
   <separator name="electronic projectors" >
    <i type="logical" name="LREAL"> T  </i>
    <v name="ROPT">     -0.00025000     -0.00025000     -0.00025000     -0.00025000</v>
    <i type="int" name="LMAXPAW">  -100</i>
    <i type="int" name="LMAXMIX">     4</i>
    <i type="logical" name="NLSPLINE"> F  </i>
   </separator>
   <separator name="electronic startup" >
    <i type="int" name="ISTART">     0</i>
    <i type="int" name="ICHARG">     2</i>
    <i type="int" name="INIWAV">     1</i>
   </separator>
   <separator name="electronic spin" >
    <i type="int" name="ISPIN">     2</i>
    <i type="logical" name="LNONCOLLINEAR"> F  </i>
    <v name="MAGMOM">      1.00000000      1.00000000      1.00000000      1.00000000      1.00000000      1.00000000      1.00000000      1.00000000      1.00000000      1.00000000      1.00000000      1.00000000      1.00000000      1.00000000      1.00000000      1.00000000      1.00000000      1.00000000      1.00000000      1.00000000
      1.00000000      1.00000000      1.00000000      1.00000000      1.00000000      1.00000000      1.00000000      1.00000000      1.00000000      1.00000000      1.00000000      1.00000000      1.00000000      1.00000000      1.00000000      1.00000000      1.00000000      1.00000000      1.00000000      1.00000000
      1.00000000      1.00000000      1.00000000      1.00000000      1.00000000      1.00000000      1.00000000      1.00000000      1.00000000      1.00000000      1.00000000      1.00000000</v>
    <i name="NUPDOWN">     -1.00000000</i>
    <i type="logical" name="LSORBIT"> F  </i>
    <v name="SAXIS">      0.00000000      0.00000000      1.00000000</v>
    <i type="logical" name="LSPIRAL"> F  </i>
    <v name="QSPIRAL">      0.00000000      0.00000000      0.00000000</v>
    <i type="logical" name="LZEROZ"> F  </i>
   </separator>
   <separator name="electronic exchange-correlation" >
    <i type="logical" name="LASPH"> T  </i>
    <i type="logical" name="LMETAGGA"> F  </i>
   </separator>
   <separator name="electronic convergence" >
    <i type="int" name="NELM">   100</i>
    <i type="int" name="NELMDL">   -10</i>
    <i type="int" name="NELMIN">     2</i>
    <i name="ENINI">    520.00000000</i>
    <separator name="electronic convergence detail" >
     <i type="logical" name="LDIAG"> T  </i>
     <i type="logical" name="LSUBROT"> F  </i>
     <i name="WEIMIN">      0.00100000</i>
     <i name="EBREAK">      0.00000000</i>
     <i name="DEPER">      0.30000000</i>
     <i type="int" name="NRMM">     4</i>
     <i name="TIME">      0.40000000</i>
    </separator>
   </separator>
   <separator name="electronic mixer" >
    <i name="AMIX">      0.40000000</i>
    <i name="BMIX">      1.00000000</i>
    <i name="AMIN">      0.10000000</i>
    <i name="AMIX_MAG">      1.60000000</i>
    <i name="BMIX_MAG">      1.00000000</i>
    <separator name="electronic mixer details" >
     <i type="int" name="IMIX">     4</i>
     <i type="logical" name="MIXFIRST"> F  </i>
     <i type="int" name="MAXMIX">   -45</i>
     <i name="WC">    100.00000000</i>
     <i type="int" name="INIMIX">     1</i>
     <i type="int" name="MIXPRE">     1</i>
     <i type="int" name="MREMOVE">     5</i>
    </separator>
   </separator>
   <separator name="electronic dipolcorrection" >
    <i type="logical" name="LDIPOL"> F  </i>
    <i type="logical" name="LMONO"> F  </i>
    <i type="int" name="IDIPOL">     0</i>
    <i name="EPSILON">      1.00000000</i>
    <v name="DIPOL">   -100.00000000   -100.00000000   -100.00000000</v>
    <i name="EFIELD">      0.00000000</i>
   </separator>
  </separator>
  <separator name="grids" >
   <i type="int" name="NGX">    72</i>
   <i type="int" name="NGY">    72</i>
   <i type="int" name="NGZ">    72</i>
   <i type="int" name="NGXF">   144</i>
   <i type="int" name="NGYF">   144</i>
   <i type="int" name="NGZF">   144</i>
   <i type="logical" name="ADDGRID"> F  </i>
  </separator>
  <separator name="ionic" >
   <i type="int" name="NSW">  1000</i>
   <i type="int" name="IBRION">     2</i>
   <i type="int" name="MDALGO">     0</i>
   <i type="int" name="ISIF">     2</i>
   <i name="PSTRESS">      0.00000000</i>
   <i name="EDIFFG">     -0.00100000</i>
   <i type="int" name="NFREE">     1</i>
   <i name="POTIM">      0.20000000</i>
   <i name="SMASS">     -3.00000000</i>
   <i name="SCALEE">      1.00000000</i>
  </separator>
  <separator name="ionic md" >
   <i name="TEBEG">      0.00010000</i>
   <i name="TEEND">      0.00010000</i>
   <i type="int" name="NBLOCK">     1</i>
   <i type="int" name="KBLOCK">  1000</i>
   <i type="int" name="NPACO">   256</i>
   <i name="APACO">     10.00000000</i>
  </separator>
  <separator name="symmetry" >
   <i type="int" name="ISYM">     2</i>
   <i name="SYMPREC">      0.00001000</i>
  </separator>
  <separator name="dos" >
   <i type="int" name="LORBIT">     0</i>
   <v name="RWIGS">     -1.00000000     -1.00000000     -1.00000000     -1.00000000</v>
   <i type="int" name="NEDOS">   301</i>
   <i name="EMIN">     10.00000000</i>
   <i name="EMAX">    -10.00000000</i>
   <i name="EFERMI">      0.00000000</i>
  </separator>
  <separator name="writing" >
   <i type="int" name="NWRITE">     2</i>
   <i type="logical" name="LWAVE"> F  </i>
   <i type="logical" name="LDOWNSAMPLE"> F  </i>
   <i type="logical" name="LCHARG"> F  </i>
   <i type="logical" name="LPARD"> F  </i>
   <i type="logical" name="LVTOT"> F  </i>
   <i type="logical" name="LVHAR"> F  </i>
   <i type="logical" name="LELF"> F  </i>
   <i type="logical" name="LOPTICS"> F  </i>
   <v name="STM">      0.00000000      0.00000000      0.00000000      0.00000000      0.00000000      0.00000000      0.00000000</v>
  </separator>
  <separator name="performance" >
   <i type="int" name="NPAR">     4</i>
   <i type="int" name="NSIM">     4</i>
   <i type="int" name="NBLK">    -1</i>
   <i type="logical" name="LPLANE"> T  </i>
   <i type="logical" name="LSCALAPACK"> T  </i>
   <i type="logical" name="LSCAAWARE"> F  </i>
   <i type="logical" name="LSCALU"> F  </i>
   <i type="logical" name="LASYNC"> F  </i>
   <i type="logical" name="LORBITALREAL"> F  </i>
  </separator>
  <separator name="miscellaneous" >
   <i type="int" name="IDIOT">     3</i>
   <i type="int" name="PHON_NSTRUCT">    -1</i>
   <i type="logical" name="LMUSIC"> F  </i>
   <v name="POMASS">      7.01000000     30.97400000     32.06600000     35.45300000</v>
   <v name="DARWINR">      0.00000000      0.00000000      0.00000000      0.00000000</v>
   <v name="DARWINV">      1.00000000      1.00000000      1.00000000      1.00000000</v>
   <i type="logical" name="LCORR"> T  </i>
  </separator>
  <i type="logical" name="GGA_COMPAT"> T  </i>
  <i type="logical" name="LBERRY"> F  </i>
  <i type="int" name="ICORELEVEL">     0</i>
  <i type="logical" name="LDAU"> F  </i>
  <i type="int" name="I_CONSTRAINED_M">     0</i>
  <separator name="electronic exchange-correlation" >
   <i type="string" name="GGA">PE</i>
   <i type="int" name="VOSKOWN">     0</i>
   <i type="logical" name="LHFCALC"> F  </i>
   <i type="string" name="PRECFOCK"></i>
   <i type="logical" name="LSYMGRAD"> F  </i>
   <i type="logical" name="LHFONE"> F  </i>
   <i type="logical" name="LRHFCALC"> F  </i>
   <i type="logical" name="LTHOMAS"> F  </i>
   <i type="logical" name="LMODELHF"> F  </i>
   <i type="logical" name="LFOCKACE"> F  </i>
   <i name="ENCUT4O">     -1.00000000</i>
   <i type="int" name="EXXOEP">     0</i>
   <i type="int" name="FOURORBIT">     0</i>
   <i name="AEXX">      0.00000000</i>
   <i name="HFALPHA">      0.00000000</i>
   <i name="MCALPHA">      0.00000000</i>
   <i name="ALDAX">      1.00000000</i>
   <i name="AGGAX">      1.00000000</i>
   <i name="ALDAC">      1.00000000</i>
   <i name="AGGAC">      1.00000000</i>
   <i type="int" name="NKREDX">     1</i>
   <i type="int" name="NKREDY">     1</i>
   <i type="int" name="NKREDZ">     1</i>
   <i type="logical" name="SHIFTRED"> F  </i>
   <i type="logical" name="ODDONLY"> F  </i>
   <i type="logical" name="EVENONLY"> F  </i>
   <i type="int" name="LMAXFOCK">     0</i>
   <i type="int" name="NMAXFOCKAE">     0</i>
   <i type="logical" name="LFOCKAEDFT"> F  </i>
   <i name="HFSCREEN">      0.00000000</i>
   <i name="HFSCREENC">      0.00000000</i>
   <i type="int" name="NBANDSGWLOW">     0</i>
  </separator>
  <separator name="vdW DFT" >
   <i type="logical" name="LUSE_VDW"> F  </i>
   <i type="int" name="IVDW_NL">     1</i>
   <i type="logical" name="LSPIN_VDW"> F  </i>
   <i name="Zab_VDW">     -0.84910000</i>
   <i name="PARAM1">      0.12340000</i>
   <i name="PARAM2">      1.00000000</i>
   <i name="PARAM3">      0.00000000</i>
  </separator>
  <separator name="model GW" >
   <i type="int" name="MODEL_GW">     0</i>
   <i name="MODEL_EPS0">     10.39346125</i>
   <i name="MODEL_ALPHA">      1.00000000</i>
  </separator>
  <separator name="linear response parameters" >
   <i type="logical" name="LEPSILON"> F  </i>
   <i type="logical" name="LRPA"> F  </i>
   <i type="logical" name="LNABLA"> F  </i>
   <i type="logical" name="LVEL"> F  </i>
   <i name="CSHIFT">      0.10000000</i>
   <i name="OMEGAMAX">     -1.00000000</i>
   <i name="DEG_THRESHOLD">      0.00200000</i>
   <i name="RTIME">     -0.10000000</i>
   <i name="WPLASMAI">      0.00000000</i>
   <v name="DFIELD">      0.00000000      0.00000000      0.00000000</v>
   <v name="WPLASMA">      0.00000000      0.00000000      0.00000000      0.00000000      0.00000000      0.00000000      0.00000000      0.00000000      0.00000000</v>
  </separator>
  <separator name="orbital magnetization" >
   <i type="logical" name="NUCIND"> F  </i>
   <v name="MAGPOS">      0.00000000      0.00000000      0.00000000</v>
   <i type="logical" name="LNICSALL"> T  </i>
   <i type="logical" name="ORBITALMAG"> F  </i>
   <i type="logical" name="LMAGBLOCH"> F  </i>
   <i type="logical" name="LCHIMAG"> F  </i>
   <i type="logical" name="LGAUGE"> T  </i>
   <i type="int" name="MAGATOM">     0</i>
   <v name="MAGDIPOL">      0.00000000      0.00000000      0.00000000</v>
   <v name="AVECCONST">      0.00000000      0.00000000      0.00000000</v>
  </separator>
  <separator name="response functions" >
   <i type="logical" name="LALL_IN_ONE"> F  </i>
   <i type="int" name="IALL_IN_ONE">    -1</i>
   <i type="int" name="NBANDS_WAVE">    -1</i>
   <i type="logical" name="LFINITE_TEMPERATURE"> F  </i>
   <i type="logical" name="LADDER"> F  </i>
   <i type="logical" name="LRPAFORCE"> F  </i>
   <i type="logical" name="LFXC"> F  </i>
   <i type="logical" name="LHARTREE"> T  </i>
   <i type="int" name="IBSE">     0</i>
   <v type="int" name="KPOINT">    -1     0     0     0</v>
   <i type="logical" name="LTCTC"> F  </i>
   <i type="logical" name="LTCTE"> F  </i>
   <i type="logical" name="LTETE"> F  </i>
   <i type="logical" name="LTRIPLET"> F  </i>
   <i type="logical" name="LFXCEPS"> F  </i>
   <i type="logical" name="LFXHEG"> F  </i>
   <i type="int" name="NATURALO">     2</i>
   <i type="logical" name="LHOLEGF"> F  </i>
   <i type="logical" name="L2ORDER"> F  </i>
   <i type="logical" name="LDMP1"> F  </i>
   <i type="logical" name="LMP2LT"> F  </i>
   <i type="logical" name="LSMP2LT"> F  </i>
   <i type="logical" name="LGWLF"> F  </i>
   <i name="ENCUTGW">     -1.60000002</i>
   <i name="ENCUTGWSOFT">     -1.60000002</i>
   <i name="ENCUTLF">     -1.00000000</i>
   <i type="logical" name="LESF_SPLINES"> F  </i>
   <i type="int" name="LMAXMP2">    -1</i>
   <i name="SCISSOR">      0.00000000</i>
   <i type="int" name="NOMEGA">     0</i>
   <i type="int" name="NOMEGAR">     0</i>
   <i type="int" name="NBANDSGW">    -1</i>
   <i type="int" name="NBANDSO">    -1</i>
   <i type="int" name="NBANDSV">    -1</i>
   <i type="int" name="NELMGW">     1</i>
   <i type="int" name="NELMHF">     1</i>
   <i type="int" name="DIM">     3</i>
   <i type="int" name="IESPILON">     4</i>
   <i type="int" name="ANTIRES">     0</i>
   <i name="OMEGAMAX">    -30.00000000</i>
   <i name="OMEGAMIN">    -30.00000000</i>
   <i name="OMEGATL">   -200.00000000</i>
   <i type="int" name="OMEGAGRID">     0</i>
   <i name="CSHIFT">     -0.10000000</i>
   <i type="logical" name="LSELFENERGY"> F  </i>
   <i type="logical" name="LSPECTRAL"> F  </i>
   <i type="logical" name="LSPECTRALGW"> F  </i>
   <i type="logical" name="LSINGLES"> F  </i>
   <i type="logical" name="LFERMIGW"> F  </i>
   <i type="logical" name="ODDONLYGW"> F  </i>
   <i type="logical" name="EVENONLYGW"> F  </i>
   <i type="int" name="NKREDLFX">     1</i>
   <i type="int" name="NKREDLFY">     1</i>
   <i type="int" name="NKREDLFZ">     1</i>
   <i type="int" name="MAXMEM">  2800</i>
   <i type="int" name="TELESCOPE">     0</i>
   <i type="int" name="NTAUPAR">    -1</i>
   <i type="int" name="NOMEGAPAR">    -1</i>
   <i name="DAMP_NEWTON">      0.80000001</i>
   <i name="LAMBDA">      1.00000000</i>
  </separator>
  <separator name="External order field" >
   <i name="OFIELD_KAPPA">      0.00000000</i>
   <v name="OFIELD_K">      0.00000000      0.00000000      0.00000000</v>
   <i name="OFIELD_Q6_NEAR">      0.00000000</i>
   <i name="OFIELD_Q6_FAR">      0.00000000</i>
   <i name="OFIELD_A">      0.00000000</i>
  </separator>
  <separator name="optional k-points parameters" >
   <i type="int" name="KPOINTS_OPT_MODE">     1</i>
   <i type="logical" name="LKPOINTS_OPT"> F  </i>
  </separator>
 </parameters>
 <atominfo>
  <atoms>      52 </atoms>
  <types>       4 </types>
  <array name="atoms" >
   <dimension dim="1">ion</dimension>
   <field type="string">element</field>
   <field type="int">atomtype</field>
   <set>
    <rc><c>Li</c><c>   1</c></rc>
    <rc><c>Li</c><c>   1</c></rc>
    <rc><c>Li</c><c>   1</c></rc>
    <rc><c>Li</c><c>   1</c></rc>
    <rc><c>Li</c><c>   1</c></rc>
    <rc><c>Li</c><c>   1</c></rc>
    <rc><c>Li</c><c>   1</c></rc>
    <rc><c>Li</c><c>   1</c></rc>
    <rc><c>Li</c><c>   1</c></rc>
    <rc><c>Li</c><c>   1</c></rc>
    <rc><c>Li</c><c>   1</c></rc>
    <rc><c>Li</c><c>   1</c></rc>
    <rc><c>Li</c><c>   1</c></rc>
    <rc><c>Li</c><c>   1</c></rc>
    <rc><c>Li</c><c>   1</c></rc>
    <rc><c>Li</c><c>   1</c></rc>
    <rc><c>Li</c><c>   1</c></rc>
    <rc><c>Li</c><c>   1</c></rc>
    <rc><c>Li</c><c>   1</c></rc>
    <rc><c>Li</c><c>   1</c></rc>
    <rc><c>Li</c><c>   1</c></rc>
    <rc><c>Li</c><c>   1</c></rc>
    <rc><c>Li</c><c>   1</c></rc>
    <rc><c>Li</c><c>   1</c></rc>
    <rc><c>P </c><c>   2</c></rc>
    <rc><c>P </c><c>   2</c></rc>
    <rc><c>P </c><c>   2</c></rc>
    <rc><c>P </c><c>   2</c></rc>
    <rc><c>S </c><c>   3</c></rc>
    <rc><c>S </c><c>   3</c></rc>
    <rc><c>S </c><c>   3</c></rc>
    <rc><c>S </c><c>   3</c></rc>
    <rc><c>S </c><c>   3</c></rc>
    <rc><c>S </c><c>   3</c></rc>
    <rc><c>S </c><c>   3</c></rc>
    <rc><c>S </c><c>   3</c></rc>
    <rc><c>S </c><c>   3</c></rc>
    <rc><c>S </c><c>   3</c></rc>
    <rc><c>S </c><c>   3</c></rc>
    <rc><c>S </c><c>   3</c></rc>
    <rc><c>S </c><c>   3</c></rc>
    <rc><c>S </c><c>   3</c></rc>
    <rc><c>S </c><c>   3</c></rc>
    <rc><c>S </c><c>   3</c></rc>
    <rc><c>S </c><c>   3</c></rc>
    <rc><c>S </c><c>   3</c></rc>
    <rc><c>S </c><c>   3</c></rc>
    <rc><c>S </c><c>   3</c></rc>
    <rc><c>Cl</c><c>   4</c></rc>
    <rc><c>Cl</c><c>   4</c></rc>
    <rc><c>Cl</c><c>   4</c></rc>
    <rc><c>Cl</c><c>   4</c></rc>
   </set>
  </array>
  <array name="atomtypes" >
   <dimension dim="1">type</dimension>
   <field type="int">atomspertype</field>
   <field type="string">element</field>
   <field>mass</field>
   <field>valence</field>
   <field type="string">pseudopotential</field>
   <set>
    <rc><c>  24</c><c>Li</c><c>      7.01000000</c><c>      3.00000000</c><c>  PAW_PBE Li_sv_GW 25Mar2010            </c></rc>
    <rc><c>   4</c><c>P </c><c>     30.97400000</c><c>      5.00000000</c><c>  PAW_PBE P_GW 19Mar2012                </c></rc>
    <rc><c>  20</c><c>S </c><c>     32.06600000</c><c>      6.00000000</c><c>  PAW_PBE S_GW 19Mar2012                </c></rc>
    <rc><c>   4</c><c>Cl</c><c>     35.45300000</c><c>      7.00000000</c><c>  PAW_PBE Cl_GW 19Mar2012               </c></rc>
   </set>
  </array>
 </atominfo>
 <structure name="initialpos" >
  <crystal>
   <varray name="basis" >
    <v>       9.65763449       0.00000000       0.00000000 </v>
    <v>       0.00000000       9.65763449       0.00000000 </v>
    <v>       0.00000000       0.00000000       9.65763449 </v>
   </varray>
   <i name="volume">    900.76664148 </i>
   <varray name="rec_basis" >
    <v>       0.10354502       0.00000000       0.00000000 </v>
    <v>       0.00000000       0.10354502       0.00000000 </v>
    <v>       0.00000000       0.00000000       0.10354502 </v>
   </varray>
  </crystal>
  <varray name="positions" >
   <v>       0.95776145       0.18729902       0.17468202 </v>
   <v>       0.98118865       0.81507619       0.77788501 </v>
   <v>       0.04204107       0.16277809       0.83077749 </v>
   <v>       0.00853709       0.76168157       0.21116705 </v>
   <v>       0.28545020       0.28336294       0.98767685 </v>
   <v>       0.22114116       0.78287000       0.00815816 </v>
   <v>       0.68092166       0.33780030       0.04592176 </v>
   <v>       0.79376550       0.82740508       0.98284353 </v>
   <v>       0.20649672       0.97806813       0.21947027 </v>
   <v>       0.33047601       0.02933398       0.66270030 </v>
   <v>       0.67621135       0.97826299       0.70773054 </v>
   <v>       0.71570952       0.01716651       0.29321816 </v>
   <v>       0.17628911       0.65884242       0.46624208 </v>
   <v>       0.16400199       0.31394238       0.54003772 </v>
   <v>       0.69864060       0.76913826       0.52674741 </v>
   <v>       0.82226709       0.27821835       0.48946332 </v>
   <v>       0.28657665       0.47990264       0.78016693 </v>
   <v>       0.33243086       0.52747891       0.18718230 </v>
   <v>       0.82091306       0.48006087       0.30739718 </v>
   <v>       0.83105112       0.52915196       0.70136975 </v>
   <v>       0.49221036       0.27823113       0.78841405 </v>
   <v>       0.45353581       0.80984298       0.33238220 </v>
   <v>       0.51826352       0.20373175       0.34141443 </v>
   <v>       0.53573203       0.67963781       0.83356559 </v>
   <v>       0.49927053       0.49958544       0.50091165 </v>
   <v>       0.50228901       0.99939247       0.01110207 </v>
   <v>       0.99330628       0.49275043       0.99637733 </v>
   <v>       0.00387660       0.99011011       0.50278774 </v>
   <v>       0.14453724       0.87033581       0.60609168 </v>
   <v>       0.10451175       0.12950916       0.37830437 </v>
   <v>       0.87849031       0.86361960       0.38619576 </v>
   <v>       0.88779279       0.09948570       0.64353634 </v>
   <v>       0.85241828       0.61160642       0.10301689 </v>
   <v>       0.88130343       0.35478717       0.88163426 </v>
   <v>       0.10808010       0.61758801       0.86676542 </v>
   <v>       0.11561635       0.38516840       0.13269464 </v>
   <v>       0.64141877       0.12125831       0.90653615 </v>
   <v>       0.60607473       0.86148944       0.13417490 </v>
   <v>       0.38297877       0.12133582       0.13834508 </v>
   <v>       0.38969593       0.88868571       0.86839282 </v>
   <v>       0.61078007       0.61201485       0.35967768 </v>
   <v>       0.63088598       0.38226190       0.62001368 </v>
   <v>       0.38895044       0.63607211       0.62087008 </v>
   <v>       0.35900435       0.38143201       0.39293765 </v>
   <v>       0.75180935       0.75277369       0.75718189 </v>
   <v>       0.74398583       0.25152837       0.26389268 </v>
   <v>       0.24060086       0.74404062       0.24381517 </v>
   <v>       0.25719174       0.24349311       0.75311330 </v>
   <v>       0.01284066       0.97004250       0.01511221 </v>
   <v>       0.98282105       0.48593015       0.50302688 </v>
   <v>       0.52930232       0.99148041       0.49608151 </v>
   <v>       0.46853784       0.47291258       0.97474511 </v>
  </varray>
 </structure>
 <calculation>
  <scstep>
   <time name="dav">    2.24    2.28</time>
   <time name="total">    2.74    2.81</time>
   <energy>
    <i name="alphaZ">    301.36274056 </i>
    <i name="ewald">  -8829.66223588 </i>
    <i name="hartreedc">  -2102.51294050 </i>
    <i name="XCdc">    534.29389271 </i>
    <i name="pawpsdc">   8141.38806575 </i>
    <i name="pawaedc">  -8271.61346273 </i>
    <i name="eentropy">     -0.00769010 </i>
    <i name="bandstr">   -893.41237089 </i>
    <i name="atom">  12703.13999606 </i>
    <i name="e_fr_energy">   1582.97599498 </i>
    <i name="e_wo_entrp">   1582.98368507 </i>
    <i name="e_0_energy">   1582.97984002 </i>
   </energy>
  </scstep>
  <scstep>
   <time name="dav">    2.64    2.66</time>
   <time name="total">    2.64    2.66</time>
   <energy>
    <i name="e_fr_energy">    -57.08397506 </i>
    <i name="e_wo_entrp">    -57.08397506 </i>
    <i name="e_0_energy">    -57.08397506 </i>
   </energy>
  </scstep>
  <scstep>
   <time name="dav">    2.60    2.62</time>
   <time name="total">    2.60    2.62</time>
   <energy>
    <i name="e_fr_energy">   -228.18659092 </i>
    <i name="e_wo_entrp">   -228.18659092 </i>
    <i name="e_0_energy">   -228.18659092 </i>
   </energy>
  </scstep>
  <scstep>
   <time name="dav">    3.08    3.11</time>
   <time name="total">    3.08    3.11</time>
   <energy>
    <i name="e_fr_energy">   -241.88166923 </i>
    <i name="e_wo_entrp">   -241.88166923 </i>
    <i name="e_0_energy">   -241.88166923 </i>
   </energy>
  </scstep>
  <scstep>
   <time name="dav">    2.92    2.94</time>
   <time name="total">    2.92    2.94</time>
   <energy>
    <i name="e_fr_energy">   -242.14293876 </i>
    <i name="e_wo_entrp">   -242.14293876 </i>
    <i name="e_0_energy">   -242.14293876 </i>
   </energy>
  </scstep>
  <scstep>
   <time name="dav">    3.04    3.07</time>
   <time name="total">    3.04    3.07</time>
   <energy>
    <i name="e_fr_energy">   -242.15494150 </i>
    <i name="e_wo_entrp">   -242.15494150 </i>
    <i name="e_0_energy">   -242.15494150 </i>
   </energy>
  </scstep>
  <scstep>
   <time name="dav">    2.97    3.00</time>
   <time name="total">    2.97    3.00</time>
   <energy>
    <i name="e_fr_energy">   -242.15536048 </i>
    <i name="e_wo_entrp">   -242.15536048 </i>
    <i name="e_0_energy">   -242.15536048 </i>
   </energy>
  </scstep>
  <scstep>
   <time name="dav">    3.01    3.04</time>
   <time name="total">    3.01    3.04</time>
   <energy>
    <i name="e_fr_energy">   -242.15538524 </i>
    <i name="e_wo_entrp">   -242.15538524 </i>
    <i name="e_0_energy">   -242.15538524 </i>
   </energy>
  </scstep>
  <scstep>
   <time name="dav">    2.93    2.95</time>
   <time name="total">    2.93    2.95</time>
   <energy>
    <i name="e_fr_energy">   -242.15538686 </i>
    <i name="e_wo_entrp">   -242.15538686 </i>
    <i name="e_0_energy">   -242.15538686 </i>
   </energy>
  </scstep>
  <scstep>
   <time name="dav">    1.97    1.99</time>
   <time name="total">    2.04    2.07</time>
   <energy>
    <i name="e_fr_energy">   -242.15538693 </i>
    <i name="e_wo_entrp">   -242.15538693 </i>
    <i name="e_0_energy">   -242.15538693 </i>
   </energy>
  </scstep>
  <scstep>
   <time name="diag">    0.36    0.37</time>
   <time name="diis">    1.18    1.19</time>
   <time name="orth">    0.06    0.07</time>
   <time name="total">    2.15    2.17</time>
   <energy>
    <i name="e_fr_energy">   -236.24003363 </i>
    <i name="e_wo_entrp">   -236.24003363 </i>
    <i name="e_0_energy">   -236.24003363 </i>
   </energy>
  </scstep>
  <scstep>
   <time name="diag">    0.36    0.36</time>
   <time name="diis">    1.23    1.24</time>
   <time name="orth">    0.06    0.06</time>
   <time name="total">    2.20    2.22</time>
   <energy>
    <i name="e_fr_energy">   -256.06042179 </i>
    <i name="e_wo_entrp">   -256.06042179 </i>
    <i name="e_0_energy">   -256.06042179 </i>
   </energy>
  </scstep>
  <scstep>
   <time name="diag">    0.36    0.36</time>
   <time name="diis">    1.21    1.22</time>
   <time name="orth">    0.06    0.07</time>
   <time name="total">    2.17    2.19</time>
   <energy>
    <i name="e_fr_energy">   -258.54129353 </i>
    <i name="e_wo_entrp">   -258.54129353 </i>
    <i name="e_0_energy">   -258.54129353 </i>
   </energy>
  </scstep>
  <scstep>
   <time name="diag">    0.36    0.36</time>
   <time name="diis">    1.57    1.58</time>
   <time name="orth">    0.06    0.06</time>
   <time name="total">    2.53    2.55</time>
   <energy>
    <i name="e_fr_energy">   -258.74332832 </i>
    <i name="e_wo_entrp">   -258.74332832 </i>
    <i name="e_0_energy">   -258.74332832 </i>
   </energy>
  </scstep>
  <scstep>
   <time name="diag">    0.36    0.36</time>
   <time name="diis">    1.28    1.29</time>
   <time name="orth">    0.06    0.06</time>
   <time name="total">    2.25    2.27</time>
   <energy>
    <i name="e_fr_energy">   -258.71359538 </i>
    <i name="e_wo_entrp">   -258.71359538 </i>
    <i name="e_0_energy">   -258.71359538 </i>
   </energy>
  </scstep>
  <scstep>
   <time name="diag">    0.36    0.36</time>
   <time name="diis">    1.30    1.31</time>
   <time name="orth">    0.06    0.06</time>
   <time name="total">    2.26    2.28</time>
   <energy>
    <i name="e_fr_energy">   -258.73287347 </i>
    <i name="e_wo_entrp">   -258.73287347 </i>
    <i name="e_0_energy">   -258.73287347 </i>
   </energy>
  </scstep>
  <scstep>
   <time name="diag">    0.36    0.36</time>
   <time name="diis">    1.45    1.46</time>
   <time name="orth">    0.07    0.07</time>
   <time name="total">    2.42    2.43</time>
   <energy>
    <i name="e_fr_energy">   -258.73882139 </i>
    <i name="e_wo_entrp">   -258.73882139 </i>
    <i name="e_0_energy">   -258.73882139 </i>
   </energy>
  </scstep>
  <scstep>
   <time name="diag">    0.36    0.36</time>
   <time name="diis">    1.44    1.45</time>
   <time name="orth">    0.06    0.07</time>
   <time name="total">    2.40    2.42</time>
   <energy>
    <i name="e_fr_energy">   -258.73996528 </i>
    <i name="e_wo_entrp">   -258.73996528 </i>
    <i name="e_0_energy">   -258.73996528 </i>
   </energy>
  </scstep>
  <scstep>
   <time name="diag">    0.36    0.36</time>
   <time name="diis">    1.63    1.64</time>
   <time name="orth">    0.07    0.07</time>
   <time name="total">    2.59    2.61</time>
   <energy>
    <i name="e_fr_energy">   -258.74043992 </i>
    <i name="e_wo_entrp">   -258.74043992 </i>
    <i name="e_0_energy">   -258.74043992 </i>
   </energy>
  </scstep>
  <scstep>
   <time name="diag">    0.37    0.37</time>
   <time name="diis">    1.59    1.60</time>
   <time name="orth">    0.06    0.07</time>
   <time name="total">    2.56    2.58</time>
   <energy>
    <i name="e_fr_energy">   -258.74053320 </i>
    <i name="e_wo_entrp">   -258.74053320 </i>
    <i name="e_0_energy">   -258.74053320 </i>
   </energy>
  </scstep>
  <scstep>
   <time name="diag">    0.36    0.36</time>
   <time name="diis">    1.43    1.44</time>
   <time name="orth">    0.06    0.06</time>
   <time name="total">    2.39    2.41</time>
   <energy>
    <i name="e_fr_energy">   -258.74054994 </i>
    <i name="e_wo_entrp">   -258.74054994 </i>
    <i name="e_0_energy">   -258.74054994 </i>
   </energy>
  </scstep>
  <scstep>
   <time name="diag">    0.36    0.36</time>
   <time name="diis">    1.60    1.61</time>
   <time name="orth">    0.06    0.06</time>
   <time name="total">    2.56    2.58</time>
   <energy>
    <i name="e_fr_energy">   -258.74055654 </i>
    <i name="e_wo_entrp">   -258.74055654 </i>
    <i name="e_0_energy">   -258.74055654 </i>
   </energy>
  </scstep>
  <scstep>
   <time name="diag">    0.36    0.36</time>
   <time name="diis">    1.25    1.26</time>
   <time name="orth">    0.06    0.07</time>
   <time name="total">    2.22    2.24</time>
   <energy>
    <i name="e_fr_energy">   -258.74055627 </i>
    <i name="e_wo_entrp">   -258.74055627 </i>
    <i name="e_0_energy">   -258.74055627 </i>
   </energy>
  </scstep>
  <scstep>
   <time name="diag">    0.36    0.36</time>
   <time name="diis">    0.97    0.98</time>
   <time name="orth">    0.07    0.07</time>
   <time name="total">    1.87    1.88</time>
   <energy>
    <i name="alphaZ">    301.36274056 </i>
    <i name="ewald">  -8829.66223588 </i>
    <i name="hartreedc">  -2201.16591259 </i>
    <i name="XCdc">    537.87855730 </i>
    <i name="pawpsdc">   9817.64873662 </i>
    <i name="pawaedc">  -9961.63646247 </i>
    <i name="eentropy">     -0.00000000 </i>
    <i name="bandstr">  -2626.30597517 </i>
    <i name="atom">  12703.13999606 </i>
    <i name="e_fr_energy">   -258.74055557 </i>
    <i name="e_wo_entrp">   -258.74055557 </i>
    <i name="e_0_energy">   -258.74055557 </i>
   </energy>
  </scstep>
  <structure>
   <crystal>
    <varray name="basis" >
     <v>       9.65763449       0.00000000       0.00000000 </v>
     <v>       0.00000000       9.65763449       0.00000000 </v>
     <v>       0.00000000       0.00000000       9.65763449 </v>
    </varray>
    <i name="volume">    900.76664148 </i>
    <varray name="rec_basis" >
     <v>       0.10354502       0.00000000       0.00000000 </v>
     <v>       0.00000000       0.10354502       0.00000000 </v>
     <v>       0.00000000       0.00000000       0.10354502 </v>
    </varray>
   </crystal>
   <varray name="positions" >
    <v>       0.95776145       0.18729902       0.17468202 </v>
    <v>       0.98118865       0.81507619       0.77788501 </v>
    <v>       0.04204107       0.16277809       0.83077749 </v>
    <v>       0.00853709       0.76168157       0.21116705 </v>
    <v>       0.28545020       0.28336294       0.98767685 </v>
    <v>       0.22114116       0.78287000       0.00815816 </v>
    <v>       0.68092166       0.33780030       0.04592176 </v>
    <v>       0.79376550       0.82740508       0.98284353 </v>
    <v>       0.20649672       0.97806813       0.21947027 </v>
    <v>       0.33047601       0.02933398       0.66270030 </v>
    <v>       0.67621135       0.97826299       0.70773054 </v>
    <v>       0.71570952       0.01716651       0.29321816 </v>
    <v>       0.17628911       0.65884242       0.46624208 </v>
    <v>       0.16400199       0.31394238       0.54003772 </v>
    <v>       0.69864060       0.76913826       0.52674741 </v>
    <v>       0.82226709       0.27821835       0.48946332 </v>
    <v>       0.28657665       0.47990264       0.78016693 </v>
    <v>       0.33243086       0.52747891       0.18718230 </v>
    <v>       0.82091306       0.48006087       0.30739718 </v>
    <v>       0.83105112       0.52915196       0.70136975 </v>
    <v>       0.49221036       0.27823113       0.78841405 </v>
    <v>       0.45353581       0.80984298       0.33238220 </v>
    <v>       0.51826352       0.20373175       0.34141443 </v>
    <v>       0.53573203       0.67963781       0.83356559 </v>
    <v>       0.49927053       0.49958544       0.50091165 </v>
    <v>       0.50228901       0.99939247       0.01110207 </v>
    <v>       0.99330628       0.49275043       0.99637733 </v>
    <v>       0.00387660       0.99011011       0.50278774 </v>
    <v>       0.14453724       0.87033581       0.60609168 </v>
    <v>       0.10451175       0.12950916       0.37830437 </v>
    <v>       0.87849031       0.86361960       0.38619576 </v>
    <v>       0.88779279       0.09948570       0.64353634 </v>
    <v>       0.85241828       0.61160642       0.10301689 </v>
    <v>       0.88130343       0.35478717       0.88163426 </v>
    <v>       0.10808010       0.61758801       0.86676542 </v>
    <v>       0.11561635       0.38516840       0.13269464 </v>
    <v>       0.64141877       0.12125831       0.90653615 </v>
    <v>       0.60607473       0.86148944       0.13417490 </v>
    <v>       0.38297877       0.12133582       0.13834508 </v>
    <v>       0.38969593       0.88868571       0.86839282 </v>
    <v>       0.61078007       0.61201485       0.35967768 </v>
    <v>       0.63088598       0.38226190       0.62001368 </v>
    <v>       0.38895044       0.63607211       0.62087008 </v>
    <v>       0.35900435       0.38143201       0.39293765 </v>
    <v>       0.75180935       0.75277369       0.75718189 </v>
    <v>       0.74398583       0.25152837       0.26389268 </v>
    <v>       0.24060086       0.74404062       0.24381517 </v>
    <v>       0.25719174       0.24349311       0.75311330 </v>
    <v>       0.01284066       0.97004250       0.01511221 </v>
    <v>       0.98282105       0.48593015       0.50302688 </v>
    <v>       0.52930232       0.99148041       0.49608151 </v>
    <v>       0.46853784       0.47291258       0.97474511 </v>
   </varray>
  </structure>
  <varray name="forces" >
   <v>      -0.00003447       0.00042893      -0.00043124 </v>
   <v>       0.00010549      -0.00050984      -0.00052518 </v>
   <v>       0.00055262      -0.00054120      -0.00029531 </v>
   <v>      -0.00035504      -0.00157982       0.00107050 </v>
   <v>       0.00008940       0.00020522       0.00049120 </v>
   <v>       0.00028391      -0.00081091      -0.00004904 </v>
   <v>       0.00055919       0.00029150       0.00004465 </v>
   <v>       0.00007367       0.00086886       0.00006311 </v>
   <v>      -0.00128154      -0.00011477      -0.00131342 </v>
   <v>      -0.00040633       0.00007695      -0.00024046 </v>
   <v>      -0.00010776       0.00016042      -0.00008415 </v>
   <v>      -0.00031469      -0.00012998      -0.00075181 </v>
   <v>       0.00072861      -0.00038308      -0.00004063 </v>
   <v>      -0.00039520      -0.00055362       0.00043061 </v>
   <v>      -0.00026198      -0.00018478      -0.00013083 </v>
   <v>       0.00024381      -0.00020834      -0.00022717 </v>
   <v>       0.00026193       0.00008566       0.00043255 </v>
   <v>       0.00076537       0.00021061       0.00071089 </v>
   <v>      -0.00031396      -0.00003074      -0.00040955 </v>
   <v>      -0.00032679      -0.00022228       0.00031945 </v>
   <v>       0.00034149      -0.00017120       0.00028500 </v>
   <v>      -0.00041306       0.00015626       0.00020279 </v>
   <v>       0.00000457       0.00030882       0.00013144 </v>
   <v>       0.00008963       0.00069283       0.00061718 </v>
   <v>       0.00034299      -0.00000721      -0.00028060 </v>
   <v>      -0.00013661      -0.00025619       0.00035933 </v>
   <v>       0.00015360       0.00039289       0.00006684 </v>
   <v>      -0.00082197      -0.00027213      -0.00127711 </v>
   <v>       0.00131736      -0.00114508      -0.00003337 </v>
   <v>       0.00026745       0.00111807      -0.00120650 </v>
   <v>      -0.00081396      -0.00026007      -0.00054603 </v>
   <v>      -0.00081180       0.00092356       0.00099331 </v>
   <v>      -0.00135290       0.00049186      -0.00022989 </v>
   <v>      -0.00034958      -0.00137002      -0.00090645 </v>
   <v>       0.00058861       0.00055482      -0.00132172 </v>
   <v>       0.00092230      -0.00030683       0.00137097 </v>
   <v>       0.00163206       0.00093629      -0.00022163 </v>
   <v>      -0.00001153      -0.00099913       0.00042971 </v>
   <v>      -0.00063524       0.00081527       0.00123706 </v>
   <v>      -0.00075883      -0.00015018      -0.00118662 </v>
   <v>       0.00036860       0.00032926      -0.00069950 </v>
   <v>       0.00135364      -0.00121856       0.00095308 </v>
   <v>      -0.00027062       0.00130360       0.00147037 </v>
   <v>      -0.00109001      -0.00047854       0.00018776 </v>
   <v>       0.00002962      -0.00019176       0.00005517 </v>
   <v>      -0.00031530       0.00007822      -0.00027024 </v>
   <v>      -0.00008353      -0.00021646       0.00020937 </v>
   <v>       0.00019902      -0.00018950       0.00010277 </v>
   <v>       0.00011630       0.00076626      -0.00045480 </v>
   <v>       0.00011892       0.00036139      -0.00012456 </v>
   <v>      -0.00082462       0.00027527       0.00009845 </v>
   <v>       0.00097714       0.00066944       0.00092423 </v>
  </varray>
  <varray name="stress" >
   <v>       0.60786637      -1.21886507      -3.43905100 </v>
   <v>      -1.21886499      -0.22427131       0.20516422 </v>
   <v>      -3.43905093       0.20516408      -0.33802044 </v>
  </varray>
  <energy>
   <i name="e_fr_energy">   -272.33052586 </i>
   <i name="e_wo_entrp">   -272.33052586 </i>
   <i name="e_0_energy">   -272.33052586 </i>
  </energy>
  <time name="totalsc">   63.67   64.31</time>
 </calculation>
 <calculation>
  <scstep>
   <time name="dav">    2.27    2.30</time>
   <time name="total">    2.81    2.84</time>
   <energy>
    <i name="alphaZ">    301.36274056 </i>
    <i name="ewald">  -8829.69995369 </i>
    <i name="hartreedc">  -2201.14006985 </i>
    <i name="XCdc">    537.87776865 </i>
    <i name="pawpsdc">   9817.63798742 </i>
    <i name="pawaedc">  -9961.62563680 </i>
    <i name="eentropy">     -0.00000000 </i>
    <i name="bandstr">  -2626.29338665 </i>
    <i name="atom">  12703.13999606 </i>
    <i name="e_fr_energy">   -258.74055430 </i>
    <i name="e_wo_entrp">   -258.74055430 </i>
    <i name="e_0_energy">   -258.74055430 </i>
   </energy>
  </scstep>
  <scstep>
   <time name="diag">    0.36    0.37</time>
   <time name="diis">    0.85    0.86</time>
   <time name="orth">    0.06    0.07</time>
   <time name="total">    1.75    1.77</time>
   <energy>
    <i name="alphaZ">    301.36274056 </i>
    <i name="ewald">  -8829.69995369 </i>
    <i name="hartreedc">  -2201.14015014 </i>
    <i name="XCdc">    537.87751083 </i>
    <i name="pawpsdc">   9817.58510293 </i>
    <i name="pawaedc">  -9961.57223147 </i>
    <i name="eentropy">     -0.00000000 </i>
    <i name="bandstr">  -2626.29356947 </i>
    <i name="atom">  12703.13999606 </i>
    <i name="e_fr_energy">   -258.74055440 </i>
    <i name="e_wo_entrp">   -258.74055440 </i>
    <i name="e_0_energy">   -258.74055440 </i>
   </energy>
  </scstep>
  <structure>
   <crystal>
    <varray name="basis" >
     <v>       9.65763449       0.00000000       0.00000000 </v>
     <v>       0.00000000       9.65763449       0.00000000 </v>
     <v>       0.00000000       0.00000000       9.65763449 </v>
    </varray>
    <i name="volume">    900.76664148 </i>
    <varray name="rec_basis" >
     <v>       0.10354502       0.00000000       0.00000000 </v>
     <v>       0.00000000       0.10354502       0.00000000 </v>
     <v>       0.00000000       0.00000000       0.10354502 </v>
    </varray>
   </crystal>
   <varray name="positions" >
    <v>       0.95776138       0.18729988       0.17468116 </v>
    <v>       0.98118886       0.81507517       0.77788396 </v>
    <v>       0.04204217       0.16277701       0.83077690 </v>
    <v>       0.00853639       0.76167841       0.21116919 </v>
    <v>       0.28545037       0.28336335       0.98767783 </v>
    <v>       0.22114173       0.78286838       0.00815807 </v>
    <v>       0.68092278       0.33780088       0.04592185 </v>
    <v>       0.79376565       0.82740681       0.98284366 </v>
    <v>       0.20649415       0.97806790       0.21946764 </v>
    <v>       0.33047520       0.02933413       0.66269982 </v>
    <v>       0.67621113       0.97826331       0.70773037 </v>
    <v>       0.71570889       0.01716625       0.29321666 </v>
    <v>       0.17629056       0.65884165       0.46624200 </v>
    <v>       0.16400120       0.31394128       0.54003858 </v>
    <v>       0.69864007       0.76913789       0.52674715 </v>
    <v>       0.82226758       0.27821794       0.48946286 </v>
    <v>       0.28657717       0.47990281       0.78016779 </v>
    <v>       0.33243239       0.52747933       0.18718372 </v>
    <v>       0.82091243       0.48006080       0.30739637 </v>
    <v>       0.83105046       0.52915152       0.70137039 </v>
    <v>       0.49221104       0.27823079       0.78841462 </v>
    <v>       0.45353499       0.80984329       0.33238260 </v>
    <v>       0.51826353       0.20373237       0.34141469 </v>
    <v>       0.53573221       0.67963920       0.83356682 </v>
    <v>       0.49927122       0.49958542       0.50091109 </v>
    <v>       0.50228874       0.99939196       0.01110278 </v>
    <v>       0.99330659       0.49275121       0.99637747 </v>
    <v>       0.00387496       0.99010957       0.50278519 </v>
    <v>       0.14453987       0.87033352       0.60609161 </v>
    <v>       0.10451228       0.12951140       0.37830196 </v>
    <v>       0.87848869       0.86361908       0.38619467 </v>
    <v>       0.88779117       0.09948754       0.64353832 </v>
    <v>       0.85241558       0.61160741       0.10301643 </v>
    <v>       0.88130273       0.35478443       0.88163245 </v>
    <v>       0.10808128       0.61758912       0.86676278 </v>
    <v>       0.11561819       0.38516778       0.13269738 </v>
    <v>       0.64142203       0.12126018       0.90653570 </v>
    <v>       0.60607471       0.86148744       0.13417576 </v>
    <v>       0.38297750       0.12133745       0.13834756 </v>
    <v>       0.38969441       0.88868541       0.86839045 </v>
    <v>       0.61078081       0.61201550       0.35967628 </v>
    <v>       0.63088868       0.38225947       0.62001558 </v>
    <v>       0.38894990       0.63607472       0.62087301 </v>
    <v>       0.35900218       0.38143106       0.39293803 </v>
    <v>       0.75180941       0.75277331       0.75718200 </v>
    <v>       0.74398520       0.25152852       0.26389214 </v>
    <v>       0.24060069       0.74404019       0.24381559 </v>
    <v>       0.25719214       0.24349273       0.75311350 </v>
    <v>       0.01284090       0.97004403       0.01511130 </v>
    <v>       0.98282129       0.48593087       0.50302663 </v>
    <v>       0.52930068       0.99148096       0.49608170 </v>
    <v>       0.46853980       0.47291392       0.97474695 </v>
   </varray>
  </structure>
  <varray name="forces" >
   <v>      -0.00004408       0.00028705      -0.00027391 </v>
   <v>       0.00007695      -0.00023494      -0.00034068 </v>
   <v>       0.00035426      -0.00031313      -0.00015664 </v>
   <v>      -0.00019656      -0.00092080       0.00063474 </v>
   <v>       0.00007109       0.00014291       0.00029198 </v>
   <v>       0.00017580      -0.00040556      -0.00004376 </v>
   <v>       0.00032904       0.00021367       0.00000931 </v>
   <v>       0.00007926       0.00060792      -0.00000163 </v>
   <v>      -0.00077059       0.00000030      -0.00078610 </v>
   <v>      -0.00023383       0.00008052      -0.00016874 </v>
   <v>      -0.00005276       0.00013263      -0.00002640 </v>
   <v>      -0.00020783       0.00000442      -0.00042862 </v>
   <v>       0.00044257      -0.00021589       0.00002230 </v>
   <v>      -0.00028203      -0.00027706       0.00031396 </v>
   <v>      -0.00018816      -0.00007261       0.00000351 </v>
   <v>       0.00016989      -0.00007353      -0.00012368 </v>
   <v>       0.00017558       0.00009092       0.00022748 </v>
   <v>       0.00048022       0.00013533       0.00040758 </v>
   <v>      -0.00013346      -0.00001753      -0.00019256 </v>
   <v>      -0.00017524      -0.00014255       0.00018106 </v>
   <v>       0.00020105      -0.00005163       0.00015503 </v>
   <v>      -0.00026555       0.00016697       0.00019114 </v>
   <v>       0.00001526       0.00020599       0.00012957 </v>
   <v>       0.00005440       0.00042339       0.00040251 </v>
   <v>       0.00020959       0.00002025       0.00026082 </v>
   <v>      -0.00007272       0.00012321       0.00011866 </v>
   <v>       0.00016808       0.00007614      -0.00002026 </v>
   <v>      -0.00032062       0.00002754      -0.00050822 </v>
   <v>       0.00027000      -0.00030309      -0.00026515 </v>
   <v>      -0.00005582       0.00048280      -0.00059643 </v>
   <v>      -0.00066455      -0.00017456      -0.00045498 </v>
   <v>      -0.00025565       0.00031863       0.00015899 </v>
   <v>      -0.00055600       0.00025396      -0.00017347 </v>
   <v>       0.00010748      -0.00049047      -0.00030844 </v>
   <v>       0.00034043       0.00024684      -0.00062214 </v>
   <v>       0.00039088       0.00003624       0.00056269 </v>
   <v>       0.00062787       0.00030457       0.00005497 </v>
   <v>      -0.00003015      -0.00040849       0.00021923 </v>
   <v>      -0.00027287       0.00038078       0.00057516 </v>
   <v>      -0.00034847       0.00006102      -0.00045296 </v>
   <v>       0.00020214       0.00022015      -0.00022356 </v>
   <v>       0.00061980      -0.00056405       0.00043484 </v>
   <v>       0.00015840       0.00043554       0.00071454 </v>
   <v>      -0.00045828      -0.00014437       0.00027148 </v>
   <v>       0.00003966       0.00006293      -0.00006671 </v>
   <v>      -0.00006945      -0.00003683       0.00002372 </v>
   <v>      -0.00019756       0.00004342      -0.00006080 </v>
   <v>       0.00030095       0.00014477       0.00029662 </v>
   <v>       0.00025435      -0.00026566       0.00017575 </v>
   <v>      -0.00038854      -0.00025689      -0.00003534 </v>
   <v>       0.00030787      -0.00006899      -0.00019877 </v>
   <v>      -0.00038212      -0.00029219      -0.00030771 </v>
  </varray>
  <varray name="stress" >
   <v>       0.59065365      -1.21782821      -3.43915860 </v>
   <v>      -1.21782785      -0.24144990       0.20526911 </v>
   <v>      -3.43915867       0.20526920      -0.35521566 </v>
  </varray>
  <energy>
   <i name="e_fr_energy">   -272.33052720 </i>
   <i name="e_wo_entrp">   -272.33052720 </i>
   <i name="e_0_energy">   -272.33052720 </i>
  </energy>
  <time name="totalsc">    7.69    7.77</time>
 </calculation>
 <calculation>
  <scstep>
   <time name="dav">    2.25    2.27</time>
   <time name="total">    2.79    2.81</time>
   <energy>
    <i name="alphaZ">    301.36274056 </i>
    <i name="ewald">  -8829.72503067 </i>
    <i name="hartreedc">  -2201.12076718 </i>
    <i name="XCdc">    537.87679413 </i>
    <i name="pawpsdc">   9817.55323286 </i>
    <i name="pawaedc">  -9961.53986407 </i>
    <i name="eentropy">     -0.00000000 </i>
    <i name="bandstr">  -2626.28765485 </i>
    <i name="atom">  12703.13999606 </i>
    <i name="e_fr_energy">   -258.74055317 </i>
    <i name="e_wo_entrp">   -258.74055317 </i>
    <i name="e_0_energy">   -258.74055317 </i>
   </energy>
  </scstep>
  <scstep>
   <time name="diag">    0.36    0.36</time>
   <time name="diis">    0.82    0.83</time>
   <time name="orth">    0.06    0.07</time>
   <time name="total">    1.72    1.73</time>
   <energy>
    <i name="alphaZ">    301.36274056 </i>
    <i name="ewald">  -8829.72503067 </i>
    <i name="hartreedc">  -2201.11879409 </i>
    <i name="XCdc">    537.87661861 </i>
    <i name="pawpsdc">   9817.51472089 </i>
    <i name="pawaedc">  -9961.50109112 </i>
    <i name="eentropy">     -0.00000000 </i>
    <i name="bandstr">  -2626.28971335 </i>
    <i name="atom">  12703.13999606 </i>
    <i name="e_fr_energy">   -258.74055311 </i>
    <i name="e_wo_entrp">   -258.74055311 </i>
    <i name="e_0_energy">   -258.74055311 </i>
   </energy>
  </scstep>
  <structure>
   <crystal>
    <varray name="basis" >
     <v>       9.65763449       0.00000000       0.00000000 </v>
     <v>       0.00000000       9.65763449       0.00000000 </v>
     <v>       0.00000000       0.00000000       9.65763449 </v>
    </varray>
    <i name="volume">    900.76664148 </i>
    <varray name="rec_basis" >
     <v>       0.10354502       0.00000000       0.00000000 </v>
     <v>       0.00000000       0.10354502       0.00000000 </v>
     <v>       0.00000000       0.00000000       0.10354502 </v>
    </varray>
   </crystal>
   <varray name="positions" >
    <v>       0.95776134       0.18730045       0.17468059 </v>
    <v>       0.98118900       0.81507450       0.77788326 </v>
    <v>       0.04204291       0.16277629       0.83077651 </v>
    <v>       0.00853591       0.76167632       0.21117061 </v>
    <v>       0.28545049       0.28336362       0.98767848 </v>
    <v>       0.22114211       0.78286730       0.00815800 </v>
    <v>       0.68092352       0.33780127       0.04592191 </v>
    <v>       0.79376575       0.82740797       0.98284374 </v>
    <v>       0.20649245       0.97806775       0.21946590 </v>
    <v>       0.33047466       0.02933424       0.66269950 </v>
    <v>       0.67621099       0.97826352       0.70773026 </v>
    <v>       0.71570847       0.01716608       0.29321566 </v>
    <v>       0.17629153       0.65884114       0.46624194 </v>
    <v>       0.16400067       0.31394054       0.54003915 </v>
    <v>       0.69863972       0.76913765       0.52674698 </v>
    <v>       0.82226790       0.27821766       0.48946256 </v>
    <v>       0.28657752       0.47990292       0.78016837 </v>
    <v>       0.33243341       0.52747961       0.18718467 </v>
    <v>       0.82091202       0.48006076       0.30739582 </v>
    <v>       0.83105003       0.52915122       0.70137082 </v>
    <v>       0.49221149       0.27823056       0.78841500 </v>
    <v>       0.45353444       0.80984349       0.33238287 </v>
    <v>       0.51826353       0.20373278       0.34141487 </v>
    <v>       0.53573233       0.67964012       0.83356764 </v>
    <v>       0.49927167       0.49958541       0.50091071 </v>
    <v>       0.50228856       0.99939162       0.01110326 </v>
    <v>       0.99330679       0.49275174       0.99637756 </v>
    <v>       0.00387386       0.99010921       0.50278349 </v>
    <v>       0.14454162       0.87033200       0.60609157 </v>
    <v>       0.10451264       0.12951288       0.37830035 </v>
    <v>       0.87848760       0.86361873       0.38619395 </v>
    <v>       0.88779009       0.09948877       0.64353964 </v>
    <v>       0.85241378       0.61160806       0.10301612 </v>
    <v>       0.88130226       0.35478261       0.88163124 </v>
    <v>       0.10808206       0.61758986       0.86676103 </v>
    <v>       0.11561942       0.38516738       0.13269920 </v>
    <v>       0.64142420       0.12126143       0.90653541 </v>
    <v>       0.60607469       0.86148612       0.13417633 </v>
    <v>       0.38297666       0.12133854       0.13834920 </v>
    <v>       0.38969340       0.88868521       0.86838888 </v>
    <v>       0.61078130       0.61201594       0.35967535 </v>
    <v>       0.63089048       0.38225785       0.62001685 </v>
    <v>       0.38894954       0.63607645       0.62087497 </v>
    <v>       0.35900073       0.38143042       0.39293828 </v>
    <v>       0.75180945       0.75277305       0.75718207 </v>
    <v>       0.74398478       0.25152863       0.26389178 </v>
    <v>       0.24060058       0.74403990       0.24381587 </v>
    <v>       0.25719241       0.24349248       0.75311364 </v>
    <v>       0.01284105       0.97004505       0.01511070 </v>
    <v>       0.98282145       0.48593135       0.50302647 </v>
    <v>       0.52929958       0.99148133       0.49608183 </v>
    <v>       0.46854110       0.47291481       0.97474818 </v>
   </varray>
  </structure>
  <varray name="forces" >
   <v>      -0.00004955       0.00032448      -0.00034906 </v>
   <v>       0.00009932      -0.00027657      -0.00042738 </v>
   <v>       0.00040971      -0.00039716      -0.00017730 </v>
   <v>      -0.00024916      -0.00125769       0.00085135 </v>
   <v>       0.00007931       0.00016459       0.00035989 </v>
   <v>       0.00022819      -0.00051083      -0.00007091 </v>
   <v>       0.00036906       0.00026040      -0.00001107 </v>
   <v>       0.00009477       0.00073039      -0.00002240 </v>
   <v>      -0.00102817      -0.00000455      -0.00105777 </v>
   <v>      -0.00025684       0.00009039      -0.00022782 </v>
   <v>      -0.00008547       0.00016178      -0.00003510 </v>
   <v>      -0.00025580       0.00001818      -0.00051924 </v>
   <v>       0.00051841      -0.00027677       0.00004004 </v>
   <v>      -0.00034393      -0.00032503       0.00037143 </v>
   <v>      -0.00022772      -0.00009208       0.00001935 </v>
   <v>       0.00019645      -0.00008447      -0.00014639 </v>
   <v>       0.00023123       0.00009754       0.00027052 </v>
   <v>       0.00063942       0.00016393       0.00050918 </v>
   <v>      -0.00016108      -0.00003474      -0.00024659 </v>
   <v>      -0.00019458      -0.00017538       0.00020109 </v>
   <v>       0.00027665      -0.00010439       0.00020388 </v>
   <v>      -0.00030843       0.00019551       0.00022143 </v>
   <v>       0.00000215       0.00022022       0.00015201 </v>
   <v>       0.00006284       0.00048841       0.00048630 </v>
   <v>       0.00011395       0.00000437       0.00058496 </v>
   <v>      -0.00002003       0.00033944      -0.00007456 </v>
   <v>       0.00011668      -0.00017014      -0.00013146 </v>
   <v>       0.00004465       0.00019587      -0.00000193 </v>
   <v>       0.00001671      -0.00011185      -0.00059139 </v>
   <v>      -0.00020667       0.00031956      -0.00051784 </v>
   <v>      -0.00068859      -0.00015163      -0.00047563 </v>
   <v>      -0.00007268       0.00015246      -0.00009251 </v>
   <v>      -0.00056865       0.00012720      -0.00035264 </v>
   <v>       0.00033392      -0.00029876      -0.00011646 </v>
   <v>       0.00019478       0.00009264      -0.00055725 </v>
   <v>       0.00021706       0.00023964       0.00046249 </v>
   <v>       0.00047240       0.00007214       0.00030008 </v>
   <v>      -0.00016192      -0.00042233       0.00010415 </v>
   <v>      -0.00012659       0.00021857       0.00049383 </v>
   <v>      -0.00024542       0.00021699      -0.00031291 </v>
   <v>       0.00010269       0.00012386      -0.00021989 </v>
   <v>       0.00044283      -0.00041682       0.00022445 </v>
   <v>       0.00040016       0.00025847       0.00052835 </v>
   <v>      -0.00037138      -0.00003432       0.00040691 </v>
   <v>       0.00003323       0.00000118      -0.00003968 </v>
   <v>      -0.00014855      -0.00000229      -0.00007238 </v>
   <v>      -0.00017762      -0.00002850      -0.00000168 </v>
   <v>       0.00032714       0.00006370       0.00028167 </v>
   <v>       0.00028303      -0.00002172       0.00004176 </v>
   <v>      -0.00032903      -0.00011795      -0.00008936 </v>
   <v>       0.00003605       0.00002660      -0.00016721 </v>
   <v>      -0.00006494      -0.00005251      -0.00000929 </v>
  </varray>
  <varray name="stress" >
   <v>       0.58181197      -1.21711165      -3.43900432 </v>
   <v>      -1.21711122      -0.25022767       0.20542606 </v>
   <v>      -3.43900435       0.20542592      -0.36396568 </v>
  </varray>
  <energy>
   <i name="e_fr_energy">   -272.33052757 </i>
   <i name="e_wo_entrp">   -272.33052757 </i>
   <i name="e_0_energy">   -272.33052757 </i>
  </energy>
  <time name="totalsc">    7.64    7.72</time>
 </calculation>
 <calculation>
  <scstep>
   <time name="dav">    2.42    2.44</time>
   <time name="total">    2.96    2.98</time>
   <energy>
    <i name="alphaZ">    301.36274056 </i>
    <i name="ewald">  -8829.77517963 </i>
    <i name="hartreedc">  -2201.07895179 </i>
    <i name="XCdc">    537.87545901 </i>
    <i name="pawpsdc">   9817.49482097 </i>
    <i name="pawaedc">  -9961.48104722 </i>
    <i name="eentropy">     -0.00000000 </i>
    <i name="bandstr">  -2626.27838796 </i>
    <i name="atom">  12703.13999606 </i>
    <i name="e_fr_energy">   -258.74055000 </i>
    <i name="e_wo_entrp">   -258.74055000 </i>
    <i name="e_0_energy">   -258.74055000 </i>
   </energy>
  </scstep>
  <scstep>
   <time name="diag">    0.36    0.36</time>
   <time name="diis">    0.99    1.00</time>
   <time name="orth">    0.06    0.07</time>
   <time name="total">    1.89    1.90</time>
   <energy>
    <i name="alphaZ">    301.36274056 </i>
    <i name="ewald">  -8829.77517963 </i>
    <i name="hartreedc">  -2201.07589382 </i>
    <i name="XCdc">    537.87530609 </i>
    <i name="pawpsdc">   9817.44711002 </i>
    <i name="pawaedc">  -9961.43319329 </i>
    <i name="eentropy">     -0.00000000 </i>
    <i name="bandstr">  -2626.28143607 </i>
    <i name="atom">  12703.13999606 </i>
    <i name="e_fr_energy">   -258.74055008 </i>
    <i name="e_wo_entrp">   -258.74055008 </i>
    <i name="e_0_energy">   -258.74055008 </i>
   </energy>
  </scstep>
  <structure>
   <crystal>
    <varray name="basis" >
     <v>       9.65763449       0.00000000       0.00000000 </v>
     <v>       0.00000000       9.65763449       0.00000000 </v>
     <v>       0.00000000       0.00000000       9.65763449 </v>
    </varray>
    <i name="volume">    900.76664148 </i>
    <varray name="rec_basis" >
     <v>       0.10354502       0.00000000       0.00000000 </v>
     <v>       0.00000000       0.10354502       0.00000000 </v>
     <v>       0.00000000       0.00000000       0.10354502 </v>
    </varray>
   </crystal>
   <varray name="positions" >
    <v>       0.95776125       0.18730159       0.17467944 </v>
    <v>       0.98118928       0.81507314       0.77788187 </v>
    <v>       0.04204438       0.16277486       0.83077573 </v>
    <v>       0.00853497       0.76167212       0.21117346 </v>
    <v>       0.28545073       0.28336417       0.98767978 </v>
    <v>       0.22114286       0.78286515       0.00815787 </v>
    <v>       0.68092501       0.33780205       0.04592203 </v>
    <v>       0.79376594       0.82741028       0.98284391 </v>
    <v>       0.20648905       0.97806744       0.21946241 </v>
    <v>       0.33047358       0.02933444       0.66269886 </v>
    <v>       0.67621070       0.97826395       0.70773004 </v>
    <v>       0.71570763       0.01716574       0.29321367 </v>
    <v>       0.17629347       0.65884012       0.46624183 </v>
    <v>       0.16399962       0.31393907       0.54004030 </v>
    <v>       0.69863903       0.76913715       0.52674663 </v>
    <v>       0.82226855       0.27821711       0.48946196 </v>
    <v>       0.28657821       0.47990315       0.78016952 </v>
    <v>       0.33243544       0.52748017       0.18718656 </v>
    <v>       0.82091118       0.48006068       0.30739473 </v>
    <v>       0.83104916       0.52915063       0.70137166 </v>
    <v>       0.49221240       0.27823010       0.78841576 </v>
    <v>       0.45353334       0.80984391       0.33238341 </v>
    <v>       0.51826354       0.20373360       0.34141522 </v>
    <v>       0.53573256       0.67964196       0.83356928 </v>
    <v>       0.49927259       0.49958539       0.50090997 </v>
    <v>       0.50228819       0.99939094       0.01110422 </v>
    <v>       0.99330720       0.49275278       0.99637773 </v>
    <v>       0.00387168       0.99010848       0.50278010 </v>
    <v>       0.14454512       0.87032896       0.60609148 </v>
    <v>       0.10451335       0.12951585       0.37829715 </v>
    <v>       0.87848544       0.86361804       0.38619250 </v>
    <v>       0.88778794       0.09949122       0.64354228 </v>
    <v>       0.85241019       0.61160937       0.10301551 </v>
    <v>       0.88130133       0.35477897       0.88162883 </v>
    <v>       0.10808362       0.61759133       0.86675751 </v>
    <v>       0.11562187       0.38516656       0.13270285 </v>
    <v>       0.64142854       0.12126391       0.90653482 </v>
    <v>       0.60607466       0.86148346       0.13417747 </v>
    <v>       0.38297497       0.12134070       0.13835249 </v>
    <v>       0.38969139       0.88868481       0.86838572 </v>
    <v>       0.61078228       0.61201682       0.35967349 </v>
    <v>       0.63089408       0.38225461       0.62001938 </v>
    <v>       0.38894882       0.63607991       0.62087887 </v>
    <v>       0.35899783       0.38142915       0.39293878 </v>
    <v>       0.75180953       0.75277254       0.75718222 </v>
    <v>       0.74398394       0.25152884       0.26389106 </v>
    <v>       0.24060036       0.74403933       0.24381642 </v>
    <v>       0.25719293       0.24349197       0.75311391 </v>
    <v>       0.01284136       0.97004709       0.01510949 </v>
    <v>       0.98282176       0.48593231       0.50302613 </v>
    <v>       0.52929739       0.99148206       0.49608210 </v>
    <v>       0.46854369       0.47291658       0.97475064 </v>
   </varray>
  </structure>
  <varray name="forces" >
   <v>      -0.00005453       0.00022828      -0.00027768 </v>
   <v>       0.00009715      -0.00011385      -0.00033783 </v>
   <v>       0.00025630      -0.00027811      -0.00008971 </v>
   <v>      -0.00010741      -0.00084186       0.00052620 </v>
   <v>       0.00006905       0.00012631       0.00023398 </v>
   <v>       0.00017989      -0.00033636      -0.00008374 </v>
   <v>       0.00022120       0.00019513      -0.00006937 </v>
   <v>       0.00009900       0.00056869      -0.00008917 </v>
   <v>      -0.00067636       0.00005281      -0.00070756 </v>
   <v>      -0.00016045       0.00007223      -0.00020208 </v>
   <v>      -0.00007546       0.00014016      -0.00000416 </v>
   <v>      -0.00022572       0.00010230      -0.00036554 </v>
   <v>       0.00035427      -0.00020695       0.00010590 </v>
   <v>      -0.00028858      -0.00016416       0.00029734 </v>
   <v>      -0.00019944      -0.00004240       0.00013073 </v>
   <v>       0.00014691      -0.00001511      -0.00009252 </v>
   <v>       0.00021569       0.00005701       0.00015575 </v>
   <v>       0.00040725       0.00007059       0.00027680 </v>
   <v>      -0.00005987      -0.00005839      -0.00013170 </v>
   <v>      -0.00011815      -0.00016034       0.00011820 </v>
   <v>       0.00021822      -0.00007828       0.00015899 </v>
   <v>      -0.00024880       0.00019803       0.00022342 </v>
   <v>      -0.00001272       0.00013692       0.00014421 </v>
   <v>       0.00002253       0.00029794       0.00032714 </v>
   <v>      -0.00005871      -0.00001982       0.00123346 </v>
   <v>       0.00007114       0.00077091      -0.00040329 </v>
   <v>       0.00004932      -0.00063778      -0.00028999 </v>
   <v>       0.00075068       0.00054391       0.00099826 </v>
   <v>      -0.00105149       0.00075875      -0.00112830 </v>
   <v>      -0.00061678      -0.00036729       0.00011028 </v>
   <v>      -0.00050869      -0.00010435      -0.00035955 </v>
   <v>       0.00060578      -0.00053735      -0.00093772 </v>
   <v>       0.00001040      -0.00026907      -0.00052267 </v>
   <v>       0.00088425       0.00057751       0.00059508 </v>
   <v>      -0.00023611      -0.00033707       0.00006032 </v>
   <v>      -0.00044232       0.00072349      -0.00028225 </v>
   <v>      -0.00044193      -0.00067738       0.00080640 </v>
   <v>      -0.00036598       0.00000167      -0.00022753 </v>
   <v>       0.00035876      -0.00032725      -0.00012488 </v>
   <v>       0.00024411       0.00054899       0.00039050 </v>
   <v>      -0.00019883      -0.00014923       0.00011719 </v>
   <v>      -0.00033491       0.00028848      -0.00045064 </v>
   <v>       0.00094874      -0.00058465      -0.00032093 </v>
   <v>       0.00023234       0.00039111       0.00059683 </v>
   <v>       0.00001477       0.00008025      -0.00006690 </v>
   <v>      -0.00006108      -0.00001511      -0.00000657 </v>
   <v>      -0.00018750       0.00002583      -0.00008884 </v>
   <v>       0.00029703       0.00014310       0.00029549 </v>
   <v>       0.00026769      -0.00026046       0.00022772 </v>
   <v>      -0.00037084      -0.00023969      -0.00005698 </v>
   <v>       0.00049062      -0.00001002      -0.00011631 </v>
   <v>      -0.00041042      -0.00026809      -0.00029578 </v>
  </varray>
  <varray name="stress" >
   <v>       0.56717089      -1.21567726      -3.43914787 </v>
   <v>      -1.21567717      -0.26434005       0.20556733 </v>
   <v>      -3.43914781       0.20556717      -0.37816345 </v>
  </varray>
  <energy>
   <i name="e_fr_energy">   -272.33052787 </i>
   <i name="e_wo_entrp">   -272.33052787 </i>
   <i name="e_0_energy">   -272.33052787 </i>
  </energy>
  <time name="totalsc">    7.96    8.04</time>
 </calculation>
 <calculation>
  <scstep>
   <time name="dav">    2.40    2.43</time>
   <time name="total">    2.93    2.97</time>
   <energy>
    <i name="alphaZ">    301.36274056 </i>
    <i name="ewald">  -8829.76037162 </i>
    <i name="hartreedc">  -2201.08610180 </i>
    <i name="XCdc">    537.87553093 </i>
    <i name="pawpsdc">   9817.41674076 </i>
    <i name="pawaedc">  -9961.40265914 </i>
    <i name="eentropy">     -0.00000000 </i>
    <i name="bandstr">  -2626.28642667 </i>
    <i name="atom">  12703.13999606 </i>
    <i name="e_fr_energy">   -258.74055093 </i>
    <i name="e_wo_entrp">   -258.74055093 </i>
    <i name="e_0_energy">   -258.74055093 </i>
   </energy>
  </scstep>
  <scstep>
   <time name="diag">    0.36    0.36</time>
   <time name="diis">    0.74    0.75</time>
   <time name="orth">    0.06    0.07</time>
   <time name="total">    1.64    1.65</time>
   <energy>
    <i name="alphaZ">    301.36274056 </i>
    <i name="ewald">  -8829.76037162 </i>
    <i name="hartreedc">  -2201.08632565 </i>
    <i name="XCdc">    537.87554933 </i>
    <i name="pawpsdc">   9817.41953818 </i>
    <i name="pawaedc">  -9961.40542363 </i>
    <i name="eentropy">     -0.00000000 </i>
    <i name="bandstr">  -2626.28625423 </i>
    <i name="atom">  12703.13999606 </i>
    <i name="e_fr_energy">   -258.74055101 </i>
    <i name="e_wo_entrp">   -258.74055101 </i>
    <i name="e_0_energy">   -258.74055101 </i>
   </energy>
  </scstep>
  <structure>
   <crystal>
    <varray name="basis" >
     <v>       9.65763449       0.00000000       0.00000000 </v>
     <v>       0.00000000       9.65763449       0.00000000 </v>
     <v>       0.00000000       0.00000000       9.65763449 </v>
    </varray>
    <i name="volume">    900.76664148 </i>
    <varray name="rec_basis" >
     <v>       0.10354502       0.00000000       0.00000000 </v>
     <v>       0.00000000       0.10354502       0.00000000 </v>
     <v>       0.00000000       0.00000000       0.10354502 </v>
    </varray>
   </crystal>
   <varray name="positions" >
    <v>       0.95776127       0.18730125       0.17467978 </v>
    <v>       0.98118920       0.81507354       0.77788228 </v>
    <v>       0.04204394       0.16277528       0.83077596 </v>
    <v>       0.00853525       0.76167336       0.21117262 </v>
    <v>       0.28545066       0.28336401       0.98767940 </v>
    <v>       0.22114264       0.78286579       0.00815791 </v>
    <v>       0.68092457       0.33780182       0.04592200 </v>
    <v>       0.79376589       0.82740959       0.98284386 </v>
    <v>       0.20649005       0.97806753       0.21946344 </v>
    <v>       0.33047390       0.02933438       0.66269905 </v>
    <v>       0.67621079       0.97826382       0.70773010 </v>
    <v>       0.71570788       0.01716584       0.29321426 </v>
    <v>       0.17629290       0.65884042       0.46624187 </v>
    <v>       0.16399993       0.31393950       0.54003996 </v>
    <v>       0.69863923       0.76913730       0.52674673 </v>
    <v>       0.82226836       0.27821727       0.48946214 </v>
    <v>       0.28657801       0.47990308       0.78016918 </v>
    <v>       0.33243484       0.52748001       0.18718600 </v>
    <v>       0.82091143       0.48006071       0.30739506 </v>
    <v>       0.83104942       0.52915080       0.70137141 </v>
    <v>       0.49221213       0.27823024       0.78841554 </v>
    <v>       0.45353367       0.80984379       0.33238325 </v>
    <v>       0.51826354       0.20373336       0.34141511 </v>
    <v>       0.53573249       0.67964142       0.83356880 </v>
    <v>       0.49927232       0.49958540       0.50091019 </v>
    <v>       0.50228830       0.99939114       0.01110394 </v>
    <v>       0.99330708       0.49275247       0.99637768 </v>
    <v>       0.00387233       0.99010870       0.50278110 </v>
    <v>       0.14454408       0.87032986       0.60609150 </v>
    <v>       0.10451314       0.12951497       0.37829809 </v>
    <v>       0.87848608       0.86361825       0.38619292 </v>
    <v>       0.88778857       0.09949050       0.64354150 </v>
    <v>       0.85241125       0.61160898       0.10301569 </v>
    <v>       0.88130161       0.35478005       0.88162955 </v>
    <v>       0.10808316       0.61759090       0.86675855 </v>
    <v>       0.11562114       0.38516680       0.13270177 </v>
    <v>       0.64142726       0.12126318       0.90653499 </v>
    <v>       0.60607467       0.86148424       0.13417713 </v>
    <v>       0.38297547       0.12134006       0.13835152 </v>
    <v>       0.38969198       0.88868493       0.86838665 </v>
    <v>       0.61078199       0.61201656       0.35967404 </v>
    <v>       0.63089301       0.38225556       0.62001863 </v>
    <v>       0.38894903       0.63607889       0.62087772 </v>
    <v>       0.35899869       0.38142952       0.39293863 </v>
    <v>       0.75180950       0.75277269       0.75718217 </v>
    <v>       0.74398419       0.25152877       0.26389127 </v>
    <v>       0.24060042       0.74403950       0.24381626 </v>
    <v>       0.25719278       0.24349212       0.75311383 </v>
    <v>       0.01284127       0.97004648       0.01510985 </v>
    <v>       0.98282167       0.48593203       0.50302623 </v>
    <v>       0.52929804       0.99148184       0.49608202 </v>
    <v>       0.46854293       0.47291606       0.97474991 </v>
   </varray>
  </structure>
  <varray name="forces" >
   <v>      -0.00010238       0.00058786      -0.00063959 </v>
   <v>       0.00013779      -0.00052515      -0.00074469 </v>
   <v>       0.00070145      -0.00070143      -0.00031963 </v>
   <v>      -0.00036408      -0.00199573       0.00131192 </v>
   <v>       0.00014362       0.00029849       0.00061080 </v>
   <v>       0.00040232      -0.00097986      -0.00008952 </v>
   <v>       0.00069224       0.00045788      -0.00001315 </v>
   <v>       0.00014372       0.00120716      -0.00003243 </v>
   <v>      -0.00160249      -0.00008650      -0.00166397 </v>
   <v>      -0.00049561       0.00015172      -0.00041031 </v>
   <v>      -0.00017008       0.00023526      -0.00009106 </v>
   <v>      -0.00044007      -0.00001367      -0.00094120 </v>
   <v>       0.00090715      -0.00052747       0.00003915 </v>
   <v>      -0.00057821      -0.00060501       0.00061284 </v>
   <v>      -0.00041597      -0.00021588      -0.00002229 </v>
   <v>       0.00035739      -0.00021952      -0.00033500 </v>
   <v>       0.00043135       0.00008354       0.00052853 </v>
   <v>       0.00101253       0.00024296       0.00080932 </v>
   <v>      -0.00033666      -0.00008261      -0.00048416 </v>
   <v>      -0.00038772      -0.00032554       0.00038729 </v>
[...]
       <r>     7.9695    11.4458   143.9416 </r>
       <r>     8.1621    12.2243   146.2974 </r>
       <r>     8.3548    15.6827   149.3187 </r>
       <r>     8.5474    15.5702   152.3184 </r>
       <r>     8.7401    16.3828   155.4746 </r>
       <r>     8.9327    15.3970   158.4408 </r>
       <r>     9.1254    18.7382   162.0531 </r>
       <r>     9.3180    17.0575   165.3392 </r>
       <r>     9.5106    16.6675   168.5529 </r>
       <r>     9.7033    18.2173   172.0651 </r>
       <r>     9.8959    16.1078   175.1703 </r>
       <r>    10.0886     4.3015   176.0000 </r>
       <r>    10.2812     0.0000   176.0000 </r>
       <r>    10.4739     0.0000   176.0000 </r>
       <r>    10.6665     0.0000   176.0000 </r>
       <r>    10.8592     0.0000   176.0000 </r>
       <r>    11.0518     0.0000   176.0000 </r>
       <r>    11.2445     0.0000   176.0000 </r>
       <r>    11.4371     0.0000   176.0000 </r>
       <r>    11.6298     0.0000   176.0000 </r>
       <r>    11.8224     0.0000   176.0000 </r>
       <r>    12.0150     0.0000   176.0000 </r>
       <r>    12.2077     0.0000   176.0000 </r>
       <r>    12.4003     0.0000   176.0000 </r>
       <r>    12.5930     0.0000   176.0000 </r>
      </set>
      <set comment="spin 2">
       <r>   -45.2009     0.0000     0.0000 </r>
       <r>   -45.0082     0.0000     0.0000 </r>
       <r>   -44.8156     0.0000     0.0000 </r>
       <r>   -44.6229     0.0000     0.0000 </r>
       <r>   -44.4303     0.0000     0.0000 </r>
       <r>   -44.2377     0.0000     0.0000 </r>
       <r>   -44.0450     0.0000     0.0000 </r>
       <r>   -43.8524     0.0000     0.0000 </r>
       <r>   -43.6597     0.0000     0.0000 </r>
       <r>   -43.4671     0.0000     0.0000 </r>
       <r>   -43.2744     0.0000     0.0000 </r>
       <r>   -43.0818     0.0000     0.0000 </r>
       <r>   -42.8891     0.0000     0.0000 </r>
       <r>   -42.6965     0.0000     0.0000 </r>
       <r>   -42.5038    10.5354     2.0296 </r>
       <r>   -42.3112    72.7154    16.0384 </r>
       <r>   -42.1185    41.2734    24.0000 </r>
       <r>   -41.9259     0.0000    24.0000 </r>
       <r>   -41.7333     0.0000    24.0000 </r>
       <r>   -41.5406     0.0000    24.0000 </r>
       <r>   -41.3480     0.0000    24.0000 </r>
       <r>   -41.1553     0.0000    24.0000 </r>
       <r>   -40.9627     0.0000    24.0000 </r>
       <r>   -40.7700     0.0000    24.0000 </r>
       <r>   -40.5774     0.0000    24.0000 </r>
       <r>   -40.3847     0.0000    24.0000 </r>
       <r>   -40.1921     0.0000    24.0000 </r>
       <r>   -39.9994     0.0000    24.0000 </r>
       <r>   -39.8068     0.0000    24.0000 </r>
       <r>   -39.6141     0.0000    24.0000 </r>
       <r>   -39.4215     0.0000    24.0000 </r>
       <r>   -39.2289     0.0000    24.0000 </r>
       <r>   -39.0362     0.0000    24.0000 </r>
       <r>   -38.8436     0.0000    24.0000 </r>
       <r>   -38.6509     0.0000    24.0000 </r>
       <r>   -38.4583     0.0000    24.0000 </r>
       <r>   -38.2656     0.0000    24.0000 </r>
       <r>   -38.0730     0.0000    24.0000 </r>
       <r>   -37.8803     0.0000    24.0000 </r>
       <r>   -37.6877     0.0000    24.0000 </r>
       <r>   -37.4950     0.0000    24.0000 </r>
       <r>   -37.3024     0.0000    24.0000 </r>
       <r>   -37.1097     0.0000    24.0000 </r>
       <r>   -36.9171     0.0000    24.0000 </r>
       <r>   -36.7245     0.0000    24.0000 </r>
       <r>   -36.5318     0.0000    24.0000 </r>
       <r>   -36.3392     0.0000    24.0000 </r>
       <r>   -36.1465     0.0000    24.0000 </r>
       <r>   -35.9539     0.0000    24.0000 </r>
       <r>   -35.7612     0.0000    24.0000 </r>
       <r>   -35.5686     0.0000    24.0000 </r>
       <r>   -35.3759     0.0000    24.0000 </r>
       <r>   -35.1833     0.0000    24.0000 </r>
       <r>   -34.9906     0.0000    24.0000 </r>
       <r>   -34.7980     0.0000    24.0000 </r>
       <r>   -34.6053     0.0000    24.0000 </r>
       <r>   -34.4127     0.0000    24.0000 </r>
       <r>   -34.2200     0.0000    24.0000 </r>
       <r>   -34.0274     0.0000    24.0000 </r>
       <r>   -33.8348     0.0000    24.0000 </r>
       <r>   -33.6421     0.0000    24.0000 </r>
       <r>   -33.4495     0.0000    24.0000 </r>
       <r>   -33.2568     0.0000    24.0000 </r>
       <r>   -33.0642     0.0000    24.0000 </r>
       <r>   -32.8715     0.0000    24.0000 </r>
       <r>   -32.6789     0.0000    24.0000 </r>
       <r>   -32.4862     0.0000    24.0000 </r>
       <r>   -32.2936     0.0000    24.0000 </r>
       <r>   -32.1009     0.0000    24.0000 </r>
       <r>   -31.9083     0.0000    24.0000 </r>
       <r>   -31.7156     0.0000    24.0000 </r>
       <r>   -31.5230     0.0000    24.0000 </r>
       <r>   -31.3304     0.0000    24.0000 </r>
       <r>   -31.1377     0.0000    24.0000 </r>
       <r>   -30.9451     0.0000    24.0000 </r>
       <r>   -30.7524     0.0000    24.0000 </r>
       <r>   -30.5598     0.0000    24.0000 </r>
       <r>   -30.3671     0.0000    24.0000 </r>
       <r>   -30.1745     0.0000    24.0000 </r>
       <r>   -29.9818     0.0000    24.0000 </r>
       <r>   -29.7892     0.0000    24.0000 </r>
       <r>   -29.5965     0.0000    24.0000 </r>
       <r>   -29.4039     0.0000    24.0000 </r>
       <r>   -29.2112     0.0000    24.0000 </r>
       <r>   -29.0186     0.0000    24.0000 </r>
       <r>   -28.8260     0.0000    24.0000 </r>
       <r>   -28.6333     0.0000    24.0000 </r>
       <r>   -28.4407     0.0000    24.0000 </r>
       <r>   -28.2480     0.0000    24.0000 </r>
       <r>   -28.0554     0.0000    24.0000 </r>
       <r>   -27.8627     0.0000    24.0000 </r>
       <r>   -27.6701     0.0000    24.0000 </r>
       <r>   -27.4774     0.0000    24.0000 </r>
       <r>   -27.2848     0.0000    24.0000 </r>
       <r>   -27.0921     0.0000    24.0000 </r>
       <r>   -26.8995     0.0000    24.0000 </r>
       <r>   -26.7068     0.0000    24.0000 </r>
       <r>   -26.5142     0.0000    24.0000 </r>
       <r>   -26.3216     0.0000    24.0000 </r>
       <r>   -26.1289     0.0000    24.0000 </r>
       <r>   -25.9363     0.0000    24.0000 </r>
       <r>   -25.7436     0.0000    24.0000 </r>
       <r>   -25.5510     0.0000    24.0000 </r>
       <r>   -25.3583     0.0000    24.0000 </r>
       <r>   -25.1657     0.0000    24.0000 </r>
       <r>   -24.9730     0.0000    24.0000 </r>
       <r>   -24.7804     0.0000    24.0000 </r>
       <r>   -24.5877     0.0000    24.0000 </r>
       <r>   -24.3951     0.0000    24.0000 </r>
       <r>   -24.2024     0.0000    24.0000 </r>
       <r>   -24.0098     0.0000    24.0000 </r>
       <r>   -23.8172     0.0000    24.0000 </r>
       <r>   -23.6245     0.0000    24.0000 </r>
       <r>   -23.4319     0.0000    24.0000 </r>
       <r>   -23.2392     0.0000    24.0000 </r>
       <r>   -23.0466     0.0000    24.0000 </r>
       <r>   -22.8539     0.0000    24.0000 </r>
       <r>   -22.6613     0.0000    24.0000 </r>
       <r>   -22.4686     0.0000    24.0000 </r>
       <r>   -22.2760     0.0000    24.0000 </r>
       <r>   -22.0833     0.0000    24.0000 </r>
       <r>   -21.8907     0.0000    24.0000 </r>
       <r>   -21.6980     0.0000    24.0000 </r>
       <r>   -21.5054     0.0000    24.0000 </r>
       <r>   -21.3128     0.0000    24.0000 </r>
       <r>   -21.1201     0.0000    24.0000 </r>
       <r>   -20.9275     0.0000    24.0000 </r>
       <r>   -20.7348     0.0000    24.0000 </r>
       <r>   -20.5422     0.0000    24.0000 </r>
       <r>   -20.3495     0.0000    24.0000 </r>
       <r>   -20.1569     0.0000    24.0000 </r>
       <r>   -19.9642     0.0000    24.0000 </r>
       <r>   -19.7716     0.0000    24.0000 </r>
       <r>   -19.5789     0.0000    24.0000 </r>
       <r>   -19.3863     0.0000    24.0000 </r>
       <r>   -19.1936     0.0000    24.0000 </r>
       <r>   -19.0010     0.0000    24.0000 </r>
       <r>   -18.8083     0.0000    24.0000 </r>
       <r>   -18.6157     0.0000    24.0000 </r>
       <r>   -18.4231     0.0000    24.0000 </r>
       <r>   -18.2304     0.0000    24.0000 </r>
       <r>   -18.0378     0.0000    24.0000 </r>
       <r>   -17.8451     0.0000    24.0000 </r>
       <r>   -17.6525     0.0000    24.0000 </r>
       <r>   -17.4598     0.0000    24.0000 </r>
       <r>   -17.2672     0.0000    24.0000 </r>
       <r>   -17.0745     0.0000    24.0000 </r>
       <r>   -16.8819     0.0000    24.0000 </r>
       <r>   -16.6892     0.0000    24.0000 </r>
       <r>   -16.4966     0.0000    24.0000 </r>
       <r>   -16.3039     0.0000    24.0000 </r>
       <r>   -16.1113     0.0000    24.0000 </r>
       <r>   -15.9187     0.0000    24.0000 </r>
       <r>   -15.7260     0.0000    24.0000 </r>
       <r>   -15.5334     0.0000    24.0000 </r>
       <r>   -15.3407     0.0000    24.0000 </r>
       <r>   -15.1481     0.0000    24.0000 </r>
       <r>   -14.9554     0.0000    24.0000 </r>
       <r>   -14.7628     0.0000    24.0000 </r>
       <r>   -14.5701     0.0000    24.0000 </r>
       <r>   -14.3775     0.0000    24.0000 </r>
       <r>   -14.1848     0.0000    24.0000 </r>
       <r>   -13.9922     0.0000    24.0000 </r>
       <r>   -13.7995     0.0000    24.0000 </r>
       <r>   -13.6069     0.0000    24.0000 </r>
       <r>   -13.4143     0.0000    24.0000 </r>
       <r>   -13.2216     0.0000    24.0000 </r>
       <r>   -13.0290     4.1961    24.8084 </r>
       <r>   -12.8363    16.5674    28.0000 </r>
       <r>   -12.6437     4.5293    28.8725 </r>
       <r>   -12.4510    11.1811    31.0266 </r>
       <r>   -12.2584     5.0530    32.0000 </r>
       <r>   -12.0657     0.0000    32.0000 </r>
       <r>   -11.8731     0.0000    32.0000 </r>
       <r>   -11.6804     0.0000    32.0000 </r>
       <r>   -11.4878     0.0000    32.0000 </r>
       <r>   -11.2951     0.0000    32.0000 </r>
       <r>   -11.1025     0.0000    32.0000 </r>
       <r>   -10.9099     0.0000    32.0000 </r>
       <r>   -10.7172     0.0000    32.0000 </r>
       <r>   -10.5246     0.0000    32.0000 </r>
       <r>   -10.3319     0.0017    32.0003 </r>
       <r>   -10.1393    15.8223    35.0484 </r>
       <r>    -9.9466    27.1193    40.2729 </r>
       <r>    -9.7540    19.3344    44.0000 </r>
       <r>    -9.5613     0.0000    44.0000 </r>
       <r>    -9.3687     0.0000    44.0000 </r>
       <r>    -9.1760     0.0000    44.0000 </r>
       <r>    -8.9834     0.0000    44.0000 </r>
       <r>    -8.7907     0.0000    44.0000 </r>
       <r>    -8.5981     0.0000    44.0000 </r>
       <r>    -8.4055     0.7304    44.1407 </r>
       <r>    -8.2128    18.4312    47.6914 </r>
       <r>    -8.0202     1.5559    48.0000 </r>
       <r>    -7.8275     0.0000    48.0000 </r>
       <r>    -7.6349     0.0000    48.0000 </r>
       <r>    -7.4422     0.0000    48.0000 </r>
       <r>    -7.2496     0.0000    48.0000 </r>
       <r>    -7.0569     0.0000    48.0000 </r>
       <r>    -6.8643     0.0000    48.0000 </r>
       <r>    -6.6716     0.0000    48.0000 </r>
       <r>    -6.4790     0.0000    48.0000 </r>
       <r>    -6.2863     0.0000    48.0000 </r>
       <r>    -6.0937     4.0077    48.7721 </r>
       <r>    -5.9011     1.1831    49.0000 </r>
       <r>    -5.7084     2.2614    49.4357 </r>
       <r>    -5.5158    13.2856    51.9951 </r>
       <r>    -5.3231     0.0201    52.0000 </r>
       <r>    -5.1305     0.0000    52.0000 </r>
       <r>    -4.9378     0.0000    52.0000 </r>
       <r>    -4.7452     0.0000    52.0000 </r>
       <r>    -4.5525     0.0000    52.0000 </r>
       <r>    -4.3599     0.0000    52.0000 </r>
       <r>    -4.1672     0.0000    52.0000 </r>
       <r>    -3.9746     0.0000    52.0000 </r>
       <r>    -3.7819     0.0000    52.0000 </r>
       <r>    -3.5893     0.0000    52.0000 </r>
       <r>    -3.3967     0.0000    52.0000 </r>
       <r>    -3.2040     4.1024    52.7903 </r>
       <r>    -3.0114    11.4702    55.0000 </r>
       <r>    -2.8187     3.8271    55.7373 </r>
       <r>    -2.6261    11.1188    57.8793 </r>
       <r>    -2.4334    11.8772    60.1674 </r>
       <r>    -2.2408    18.5417    63.7394 </r>
       <r>    -2.0481     1.3442    64.0000 </r>
       <r>    -1.8555     0.0000    64.0000 </r>
       <r>    -1.6628     0.0000    64.0000 </r>
       <r>    -1.4702     9.0978    65.7527 </r>
       <r>    -1.2775    30.0867    71.5517 </r>
       <r>    -1.0849    12.6128    73.9867 </r>
       <r>    -0.8922    10.4289    75.9999 </r>
       <r>    -0.6996     0.0000    76.0000 </r>
       <r>    -0.5070     7.5613    77.4567 </r>
       <r>    -0.3143    10.6886    79.5158 </r>
       <r>    -0.1217    12.8518    81.9916 </r>
       <r>     0.0710    29.0491    87.5878 </r>
       <r>     0.2636    24.7378    92.3581 </r>
       <r>     0.4563    18.1493    95.8574 </r>
       <r>     0.6489     0.7567    96.0031 </r>
       <r>     0.8416    10.1960    97.9674 </r>
       <r>     1.0342    22.1404   102.2341 </r>
       <r>     1.2269    22.9664   106.6592 </r>
       <r>     1.4195    24.1678   111.3169 </r>
       <r>     1.6122    29.8504   117.0680 </r>
       <r>     1.8048    14.3130   119.8338 </r>
       <r>     1.9974     0.8628   120.0000 </r>
       <r>     2.1901     0.0000   120.0000 </r>
       <r>     2.3827     0.0000   120.0000 </r>
       <r>     2.5754     0.0000   120.0000 </r>
       <r>     2.7680     0.0000   120.0000 </r>
       <r>     2.9607     0.0000   120.0000 </r>
       <r>     3.1533     0.0000   120.0000 </r>
       <r>     3.3460     0.0000   120.0000 </r>
       <r>     3.5386     0.0000   120.0000 </r>
       <r>     3.7313     0.0000   120.0000 </r>
       <r>     3.9239     0.0000   120.0000 </r>
       <r>     4.1166     0.0000   120.0000 </r>
       <r>     4.3092     0.0000   120.0000 </r>
       <r>     4.5018     5.1225   120.9868 </r>
       <r>     4.6945     0.0500   121.0000 </r>
       <r>     4.8871     0.0000   121.0000 </r>
       <r>     5.0798     0.0000   121.0000 </r>
       <r>     5.2724     3.2482   121.6258 </r>
       <r>     5.4651    12.3243   124.0000 </r>
       <r>     5.6577     0.0000   124.0000 </r>
       <r>     5.8504     0.0128   124.0025 </r>
       <r>     6.0430    11.3922   126.1971 </r>
       <r>     6.2357    17.2523   129.5208 </r>
       <r>     6.4283     2.5419   130.0129 </r>
       <r>     6.6210    12.2660   132.3759 </r>
       <r>     6.8136     7.3948   133.8009 </r>
       <r>     7.0062    11.4154   136.0000 </r>
       <r>     7.1989     5.1604   136.9941 </r>
       <r>     7.3915     2.9781   137.5683 </r>
       <r>     7.5842     8.7292   139.2500 </r>
       <r>     7.7768    12.8755   141.7317 </r>
       <r>     7.9695    11.4458   143.9416 </r>
       <r>     8.1621    12.2243   146.2974 </r>
       <r>     8.3548    15.6827   149.3187 </r>
       <r>     8.5474    15.5702   152.3184 </r>
       <r>     8.7401    16.3828   155.4746 </r>
       <r>     8.9327    15.3970   158.4408 </r>
       <r>     9.1254    18.7382   162.0531 </r>
       <r>     9.3180    17.0579   165.3393 </r>
       <r>     9.5106    16.6614   168.5517 </r>
       <r>     9.7033    18.0199   172.0260 </r>
       <r>     9.8959    17.0148   175.3060 </r>
       <r>    10.0886     3.5985   176.0000 </r>
       <r>    10.2812     0.0000   176.0000 </r>
       <r>    10.4739     0.0000   176.0000 </r>
       <r>    10.6665     0.0000   176.0000 </r>
       <r>    10.8592     0.0000   176.0000 </r>
       <r>    11.0518     0.0000   176.0000 </r>
       <r>    11.2445     0.0000   176.0000 </r>
       <r>    11.4371     0.0000   176.0000 </r>
       <r>    11.6298     0.0000   176.0000 </r>
       <r>    11.8224     0.0000   176.0000 </r>
       <r>    12.0150     0.0000   176.0000 </r>
       <r>    12.2077     0.0000   176.0000 </r>
       <r>    12.4003     0.0000   176.0000 </r>
       <r>    12.5930     0.0000   176.0000 </r>
      </set>
     </set>
    </array>
   </total>
  </dos>
 </calculation>
 <structure name="finalpos" >
  <crystal>
   <varray name="basis" >
    <v>       9.65763449       0.00000000       0.00000000 </v>
    <v>       0.00000000       9.65763449       0.00000000 </v>
    <v>       0.00000000       0.00000000       9.65763449 </v>
   </varray>
   <i name="volume">    900.76664148 </i>
   <varray name="rec_basis" >
    <v>       0.10354502       0.00000000       0.00000000 </v>
    <v>       0.00000000       0.10354502       0.00000000 </v>
    <v>       0.00000000       0.00000000       0.10354502 </v>
   </varray>
  </crystal>
  <varray name="positions" >
   <v>       0.95776096       0.18730298       0.17467794 </v>
   <v>       0.98118964       0.81507199       0.77788000 </v>
   <v>       0.04204613       0.16277316       0.83077494 </v>
   <v>       0.00853410       0.76166720       0.21117663 </v>
   <v>       0.28545110       0.28336491       0.98768115 </v>
   <v>       0.22114384       0.78286281       0.00815766 </v>
   <v>       0.68092659       0.33780313       0.04592194 </v>
   <v>       0.79376635       0.82741334       0.98284378 </v>
   <v>       0.20648508       0.97806725       0.21945830 </v>
   <v>       0.33047242       0.02933485       0.66269788 </v>
   <v>       0.67621028       0.97826451       0.70772985 </v>
   <v>       0.71570650       0.01716581       0.29321139 </v>
   <v>       0.17629572       0.65883882       0.46624200 </v>
   <v>       0.16399814       0.31393764       0.54004189 </v>
   <v>       0.69863803       0.76913672       0.52674673 </v>
   <v>       0.82226941       0.27821668       0.48946116 </v>
   <v>       0.28657930       0.47990331       0.78017072 </v>
   <v>       0.33243793       0.52748076       0.18718853 </v>
   <v>       0.82091050       0.48006047       0.30739368 </v>
   <v>       0.83104832       0.52914987       0.70137253 </v>
   <v>       0.49221343       0.27822962       0.78841671 </v>
   <v>       0.45353196       0.80984473       0.33238435 </v>
   <v>       0.51826356       0.20373455       0.34141588 </v>
   <v>       0.53573284       0.67964398       0.83357130 </v>
   <v>       0.49927276       0.49958530       0.50091321 </v>
   <v>       0.50228823       0.99939287       0.01110337 </v>
   <v>       0.99330755       0.49275138       0.99637690 </v>
   <v>       0.00387295       0.99010973       0.50278162 </v>
   <v>       0.14454396       0.87032950       0.60608828 </v>
   <v>       0.10451204       0.12951624       0.37829578 </v>
   <v>       0.87848291       0.86361753       0.38619077 </v>
   <v>       0.88778845       0.09949091       0.64354097 </v>
   <v>       0.85240846       0.61160944       0.10301369 </v>
   <v>       0.88130346       0.35477881       0.88162929 </v>
   <v>       0.10808371       0.61759112       0.86675608 </v>
   <v>       0.11562188       0.38516823       0.13270378 </v>
   <v>       0.64142931       0.12126322       0.90653679 </v>
   <v>       0.60607362       0.86148210       0.13417748 </v>
   <v>       0.38297515       0.12134074       0.13835375 </v>
   <v>       0.38969103       0.88868621       0.86838535 </v>
   <v>       0.61078224       0.61201690       0.35967291 </v>
   <v>       0.63089480       0.38225393       0.62001926 </v>
   <v>       0.38895118       0.63607987       0.62087989 </v>
   <v>       0.35899697       0.38142953       0.39294077 </v>
   <v>       0.75180964       0.75277259       0.75718206 </v>
   <v>       0.74398343       0.25152876       0.26389086 </v>
   <v>       0.24059969       0.74403935       0.24381631 </v>
   <v>       0.25719416       0.24349233       0.75311497 </v>
   <v>       0.01284221       0.97004742       0.01510939 </v>
   <v>       0.98282085       0.48593225       0.50302574 </v>
   <v>       0.52929706       0.99148234       0.49608159 </v>
   <v>       0.46854409       0.47291688       0.97475124 </v>
  </varray>
 </structure>
</modeling>
