unknown system                          
           1
     9.657634    0.000000    0.000000
     0.000000    9.657634    0.000000
     0.000000    0.000000    9.657634
   Li   P    S    Cl
    24     4    20     4
Direct configuration=     1
   0.95776145  0.18729902  0.17468202
   0.98118865  0.81507619  0.77788501
   0.04204107  0.16277809  0.83077749
   0.00853709  0.76168157  0.21116705
   0.28545020  0.28336294  0.98767685
   0.22114116  0.78287000  0.00815816
   0.68092166  0.33780030  0.04592176
   0.79376550  0.82740508  0.98284353
   0.20649672  0.97806813  0.21947027
   0.33047601  0.02933398  0.66270030
   0.67621135  0.97826299  0.70773054
   0.71570952  0.01716651  0.29321816
   0.17628911  0.65884242  0.46624208
   0.16400199  0.31394238  0.54003772
   0.69864060  0.76913826  0.52674741
   0.82226709  0.27821835  0.48946332
   0.28657665  0.47990264  0.78016693
   0.33243086  0.52747891  0.18718230
   0.82091306  0.48006087  0.30739718
   0.83105112  0.52915196  0.70136975
   0.49221036  0.27823113  0.78841405
   0.45353581  0.80984298  0.33238220
   0.51826352  0.20373175  0.34141443
   0.53573203  0.67963781  0.83356559
   0.49927053  0.49958544  0.50091165
   0.50228901  0.99939247  0.01110207
   0.99330628  0.49275043  0.99637733
   0.00387660  0.99011011  0.50278774
   0.14453724  0.87033581  0.60609168
   0.10451175  0.12950916  0.37830437
   0.87849031  0.86361960  0.38619576
   0.88779279  0.09948570  0.64353634
   0.85241828  0.61160642  0.10301689
   0.88130343  0.35478717  0.88163426
   0.10808010  0.61758801  0.86676542
   0.11561635  0.38516840  0.13269464
   0.64141877  0.12125831  0.90653615
   0.60607473  0.86148944  0.13417490
   0.38297877  0.12133582  0.13834508
   0.38969593  0.88868571  0.86839282
   0.61078007  0.61201485  0.35967768
   0.63088598  0.38226190  0.62001368
   0.38895044  0.63607211  0.62087008
   0.35900435  0.38143201  0.39293765
   0.75180935  0.75277369  0.75718189
   0.74398583  0.25152837  0.26389268
   0.24060086  0.74404062  0.24381517
   0.25719174  0.24349311  0.75311330
   0.01284066  0.97004250  0.01511221
   0.98282105  0.48593015  0.50302688
   0.52930232  0.99148041  0.49608151
   0.46853784  0.47291258  0.97474511
Direct configuration=     2
   0.95776138  0.18729988  0.17468116
   0.98118886  0.81507517  0.77788396
   0.04204217  0.16277701  0.83077690
   0.00853639  0.76167841  0.21116919
   0.28545037  0.28336335  0.98767783
   0.22114173  0.78286838  0.00815807
   0.68092278  0.33780088  0.04592185
   0.79376565  0.82740681  0.98284366
   0.20649415  0.97806790  0.21946764
   0.33047520  0.02933413  0.66269982
   0.67621113  0.97826331  0.70773037
   0.71570889  0.01716625  0.29321666
   0.17629056  0.65884165  0.46624200
   0.16400120  0.31394128  0.54003858
   0.69864007  0.76913789  0.52674715
   0.82226758  0.27821794  0.48946286
   0.28657717  0.47990281  0.78016779
   0.33243239  0.52747933  0.18718372
   0.82091243  0.48006080  0.30739637
   0.83105046  0.52915152  0.70137039
   0.49221104  0.27823079  0.78841462
   0.45353499  0.80984329  0.33238260
   0.51826353  0.20373237  0.34141469
   0.53573221  0.67963920  0.83356682
   0.49927122  0.49958542  0.50091109
   0.50228874  0.99939196  0.01110278
   0.99330659  0.49275121  0.99637747
   0.00387496  0.99010957  0.50278519
   0.14453987  0.87033352  0.60609161
   0.10451228  0.12951140  0.37830196
   0.87848869  0.86361908  0.38619467
   0.88779117  0.09948754  0.64353832
   0.85241558  0.61160741  0.10301643
   0.88130273  0.35478443  0.88163245
   0.10808128  0.61758912  0.86676278
   0.11561819  0.38516778  0.13269738
   0.64142203  0.12126018  0.90653570
   0.60607471  0.86148744  0.13417576
   0.38297750  0.12133745  0.13834756
   0.38969441  0.88868541  0.86839045
   0.61078081  0.61201550  0.35967628
   0.63088868  0.38225947  0.62001558
   0.38894990  0.63607472  0.62087301
   0.35900218  0.38143106  0.39293803
   0.75180941  0.75277331  0.75718200
   0.74398520  0.25152852  0.26389214
   0.24060069  0.74404019  0.24381559
   0.25719214  0.24349273  0.75311350
   0.01284090  0.97004403  0.01511130
   0.98282129  0.48593087  0.50302663
   0.52930068  0.99148096  0.49608170
   0.46853980  0.47291392  0.97474695
Direct configuration=     3
   0.95776134  0.18730045  0.17468059
   0.98118900  0.81507450  0.77788326
   0.04204291  0.16277629  0.83077651
   0.00853591  0.76167632  0.21117061
   0.28545049  0.28336362  0.98767848
   0.22114211  0.78286730  0.00815800
   0.68092352  0.33780127  0.04592191
   0.79376575  0.82740797  0.98284374
   0.20649245  0.97806775  0.21946590
   0.33047466  0.02933424  0.66269950
   0.67621099  0.97826352  0.70773026
   0.71570847  0.01716608  0.29321566
   0.17629153  0.65884114  0.46624194
   0.16400067  0.31394054  0.54003915
   0.69863972  0.76913765  0.52674698
   0.82226790  0.27821766  0.48946256
   0.28657752  0.47990292  0.78016837
   0.33243341  0.52747961  0.18718467
   0.82091202  0.48006076  0.30739582
   0.83105003  0.52915122  0.70137082
   0.49221149  0.27823056  0.78841500
   0.45353444  0.80984349  0.33238287
   0.51826353  0.20373278  0.34141487
   0.53573233  0.67964012  0.83356764
   0.49927167  0.49958541  0.50091071
   0.50228856  0.99939162  0.01110326
   0.99330679  0.49275174  0.99637756
   0.00387386  0.99010921  0.50278349
   0.14454162  0.87033200  0.60609157
   0.10451264  0.12951288  0.37830035
   0.87848760  0.86361873  0.38619395
   0.88779009  0.09948877  0.64353964
   0.85241378  0.61160806  0.10301612
   0.88130226  0.35478261  0.88163124
   0.10808206  0.61758986  0.86676103
   0.11561942  0.38516738  0.13269920
   0.64142420  0.12126143  0.90653541
   0.60607469  0.86148612  0.13417633
   0.38297666  0.12133854  0.13834920
   0.38969340  0.88868521  0.86838888
   0.61078130  0.61201594  0.35967535
   0.63089048  0.38225785  0.62001685
   0.38894954  0.63607645  0.62087497
   0.35900073  0.38143042  0.39293828
   0.75180945  0.75277305  0.75718207
   0.74398478  0.25152863  0.26389178
   0.24060058  0.74403990  0.24381587
   0.25719241  0.24349248  0.75311364
   0.01284105  0.97004505  0.01511070
   0.98282145  0.48593135  0.50302647
   0.52929958  0.99148133  0.49608183
   0.46854110  0.47291481  0.97474818
Direct configuration=     4
   0.95776125  0.18730159  0.17467944
   0.98118928  0.81507314  0.77788187
   0.04204438  0.16277486  0.83077573
   0.00853497  0.76167212  0.21117346
   0.28545073  0.28336417  0.98767978
   0.22114286  0.78286515  0.00815787
   0.68092501  0.33780205  0.04592203
   0.79376594  0.82741028  0.98284391
   0.20648905  0.97806744  0.21946241
   0.33047358  0.02933444  0.66269886
   0.67621070  0.97826395  0.70773004
   0.71570763  0.01716574  0.29321367
   0.17629347  0.65884012  0.46624183
   0.16399962  0.31393907  0.54004030
   0.69863903  0.76913715  0.52674663
   0.82226855  0.27821711  0.48946196
   0.28657821  0.47990315  0.78016952
   0.33243544  0.52748017  0.18718656
   0.82091118  0.48006068  0.30739473
   0.83104916  0.52915063  0.70137166
   0.49221240  0.27823010  0.78841576
   0.45353334  0.80984391  0.33238341
   0.51826354  0.20373360  0.34141522
   0.53573256  0.67964196  0.83356928
   0.49927259  0.49958539  0.50090997
   0.50228819  0.99939094  0.01110422
   0.99330720  0.49275278  0.99637773
   0.00387168  0.99010848  0.50278010
   0.14454512  0.87032896  0.60609148
   0.10451335  0.12951585  0.37829715
   0.87848544  0.86361804  0.38619250
   0.88778794  0.09949122  0.64354228
   0.85241019  0.61160937  0.10301551
   0.88130133  0.35477897  0.88162883
   0.10808362  0.61759133  0.86675751
   0.11562187  0.38516656  0.13270285
   0.64142854  0.12126391  0.90653482
   0.60607466  0.86148346  0.13417747
   0.38297497  0.12134070  0.13835249
   0.38969139  0.88868481  0.86838572
   0.61078228  0.61201682  0.35967349
   0.63089408  0.38225461  0.62001938
   0.38894882  0.63607991  0.62087887
   0.35899783  0.38142915  0.39293878
   0.75180953  0.75277254  0.75718222
   0.74398394  0.25152884  0.26389106
   0.24060036  0.74403933  0.24381642
   0.25719293  0.24349197  0.75311391
   0.01284136  0.97004709  0.01510949
   0.98282176  0.48593231  0.50302613
   0.52929739  0.99148206  0.49608210
   0.46854369  0.47291658  0.97475064
Direct configuration=     5
   0.95776127  0.18730125  0.17467978
   0.98118920  0.81507354  0.77788228
   0.04204394  0.16277528  0.83077596
   0.00853525  0.76167336  0.21117262
   0.28545066  0.28336401  0.98767940
   0.22114264  0.78286579  0.00815791
   0.68092457  0.33780182  0.04592200
   0.79376589  0.82740959  0.98284386
   0.20649005  0.97806753  0.21946344
   0.33047390  0.02933438  0.66269905
   0.67621079  0.97826382  0.70773010
   0.71570788  0.01716584  0.29321426
   0.17629290  0.65884042  0.46624187
   0.16399993  0.31393950  0.54003996
   0.69863923  0.76913730  0.52674673
   0.82226836  0.27821727  0.48946214
   0.28657801  0.47990308  0.78016918
   0.33243484  0.52748001  0.18718600
   0.82091143  0.48006071  0.30739506
   0.83104942  0.52915080  0.70137141
   0.49221213  0.27823024  0.78841554
   0.45353367  0.80984379  0.33238325
   0.51826354  0.20373336  0.34141511
   0.53573249  0.67964142  0.83356880
   0.49927232  0.49958540  0.50091019
   0.50228830  0.99939114  0.01110394
   0.99330708  0.49275247  0.99637768
   0.00387233  0.99010870  0.50278110
   0.14454408  0.87032986  0.60609150
   0.10451314  0.12951497  0.37829809
   0.87848608  0.86361825  0.38619292
   0.88778857  0.09949050  0.64354150
   0.85241125  0.61160898  0.10301569
   0.88130161  0.35478005  0.88162955
   0.10808316  0.61759090  0.86675855
   0.11562114  0.38516680  0.13270177
   0.64142726  0.12126318  0.90653499
   0.60607467  0.86148424  0.13417713
   0.38297547  0.12134006  0.13835152
   0.38969198  0.88868493  0.86838665
   0.61078199  0.61201656  0.35967404
   0.63089301  0.38225556  0.62001863
   0.38894903  0.63607889  0.62087772
   0.35899869  0.38142952  0.39293863
   0.75180950  0.75277269  0.75718217
   0.74398419  0.25152877  0.26389127
   0.24060042  0.74403950  0.24381626
   0.25719278  0.24349212  0.75311383
   0.01284127  0.97004648  0.01510985
   0.98282167  0.48593203  0.50302623
   0.52929804  0.99148184  0.49608202
   0.46854293  0.47291606  0.97474991
Direct configuration=     6
   0.95776125  0.18730151  0.17467952
   0.98118926  0.81507323  0.77788196
   0.04204427  0.16277496  0.83077578
   0.00853503  0.76167241  0.21117326
   0.28545071  0.28336413  0.98767970
   0.22114281  0.78286530  0.00815788
   0.68092491  0.33780199  0.04592202
   0.79376593  0.82741012  0.98284390
   0.20648928  0.97806746  0.21946265
   0.33047365  0.02933443  0.66269890
   0.67621072  0.97826392  0.70773005
   0.71570769  0.01716576  0.29321380
   0.17629334  0.65884019  0.46624184
   0.16399970  0.31393917  0.54004022
   0.69863908  0.76913719  0.52674666
   0.82226851  0.27821714  0.48946200
   0.28657817  0.47990313  0.78016944
   0.33243530  0.52748014  0.18718643
   0.82091124  0.48006069  0.30739481
   0.83104922  0.52915067  0.70137161
   0.49221234  0.27823014  0.78841571
   0.45353342  0.80984388  0.33238337
   0.51826354  0.20373354  0.34141519
   0.53573255  0.67964183  0.83356917
   0.49927252  0.49958539  0.50091002
   0.50228822  0.99939099  0.01110415
   0.99330717  0.49275271  0.99637772
   0.00387183  0.99010853  0.50278033
   0.14454488  0.87032917  0.60609148
   0.10451330  0.12951565  0.37829737
   0.87848559  0.86361809  0.38619260
   0.88778808  0.09949105  0.64354210
   0.85241043  0.61160928  0.10301555
   0.88130140  0.35477922  0.88162900
   0.10808351  0.61759123  0.86675776
   0.11562170  0.38516662  0.13270259
   0.64142824  0.12126374  0.90653486
   0.60607466  0.86148364  0.13417739
   0.38297509  0.12134055  0.13835226
   0.38969153  0.88868484  0.86838594
   0.61078221  0.61201676  0.35967362
   0.63089383  0.38225483  0.62001920
   0.38894887  0.63607967  0.62087861
   0.35899803  0.38142924  0.39293874
   0.75180952  0.75277258  0.75718221
   0.74398400  0.25152882  0.26389111
   0.24060037  0.74403936  0.24381639
   0.25719290  0.24349201  0.75311389
   0.01284134  0.97004695  0.01510957
   0.98282174  0.48593225  0.50302616
   0.52929754  0.99148201  0.49608208
   0.46854351  0.47291646  0.97475047
Direct configuration=     7
   0.95776096  0.18730298  0.17467794
   0.98118964  0.81507199  0.77788000
   0.04204613  0.16277316  0.83077494
   0.00853410  0.76166720  0.21117663
   0.28545110  0.28336491  0.98768115
   0.22114384  0.78286281  0.00815766
   0.68092659  0.33780313  0.04592194
   0.79376635  0.82741334  0.98284378
   0.20648508  0.97806725  0.21945830
   0.33047242  0.02933485  0.66269788
   0.67621028  0.97826451  0.70772985
   0.71570650  0.01716581  0.29321139
   0.17629572  0.65883882  0.46624200
   0.16399814  0.31393764  0.54004189
   0.69863803  0.76913672  0.52674673
   0.82226941  0.27821668  0.48946116
   0.28657930  0.47990331  0.78017072
   0.33243793  0.52748076  0.18718853
   0.82091050  0.48006047  0.30739368
   0.83104832  0.52914987  0.70137253
   0.49221343  0.27822962  0.78841671
   0.45353196  0.80984473  0.33238435
   0.51826356  0.20373455  0.34141588
   0.53573284  0.67964398  0.83357130
   0.49927276  0.49958530  0.50091321
   0.50228823  0.99939287  0.01110337
   0.99330755  0.49275138  0.99637690
   0.00387295  0.99010973  0.50278162
   0.14454396  0.87032950  0.60608828
   0.10451204  0.12951624  0.37829578
   0.87848291  0.86361753  0.38619077
   0.88778845  0.09949091  0.64354097
   0.85240846  0.61160944  0.10301369
   0.88130346  0.35477881  0.88162929
   0.10808371  0.61759112  0.86675608
   0.11562188  0.38516823  0.13270378
   0.64142931  0.12126322  0.90653679
   0.60607362  0.86148210  0.13417748
   0.38297515  0.12134074  0.13835375
   0.38969103  0.88868621  0.86838535
   0.61078224  0.61201690  0.35967291
   0.63089480  0.38225393  0.62001926
   0.38895118  0.63607987  0.62087989
   0.35899697  0.38142953  0.39294077
   0.75180964  0.75277259  0.75718206
   0.74398343  0.25152876  0.26389086
   0.24059969  0.74403935  0.24381631
   0.25719416  0.24349233  0.75311497
   0.01284221  0.97004742  0.01510939
   0.98282085  0.48593225  0.50302574
   0.52929706  0.99148234  0.49608159
   0.46854409  0.47291688  0.97475124
