  52  52   0  16
  0.1734041E+02  0.9660974E-09  0.9660974E-09  0.9660974E-09  0.2000000E-15
  1.000000000000000E-004
  CAR 
 unknown system                          
     12.61338969    -45.61773516  301      2.54425769      1.00000000
    -45.618  0.0000E+00  0.0000E+00  0.0000E+00  0.0000E+00
    -45.424  0.0000E+00  0.0000E+00  0.0000E+00  0.0000E+00
    -45.230  0.0000E+00  0.0000E+00  0.0000E+00  0.0000E+00
    -45.035  0.0000E+00  0.0000E+00  0.0000E+00  0.0000E+00
    -44.841  0.0000E+00  0.0000E+00  0.0000E+00  0.0000E+00
    -44.647  0.0000E+00  0.0000E+00  0.0000E+00  0.0000E+00
    -44.453  0.0000E+00  0.0000E+00  0.0000E+00  0.0000E+00
    -44.259  0.0000E+00  0.0000E+00  0.0000E+00  0.0000E+00
    -44.065  0.0000E+00  0.0000E+00  0.0000E+00  0.0000E+00
    -43.871  0.0000E+00  0.0000E+00  0.0000E+00  0.0000E+00
    -43.677  0.0000E+00  0.0000E+00  0.0000E+00  0.0000E+00
    -43.483  0.0000E+00  0.0000E+00  0.0000E+00  0.0000E+00
    -43.288  0.0000E+00  0.0000E+00  0.0000E+00  0.0000E+00
    -43.094  0.1490E-10  0.1490E-10  0.2891E-11  0.2891E-11
    -42.900  0.5150E-02  0.5150E-02  0.9996E-03  0.9996E-03
    -42.706  0.5836E-02  0.5836E-02  0.2133E-02  0.2133E-02
    -42.512  0.1718E-01  0.1718E-01  0.5467E-02  0.5467E-02
    -42.318  0.6002E-01  0.6002E-01  0.1712E-01  0.1712E-01
    -42.124  0.2129E-01  0.2129E-01  0.2125E-01  0.2125E-01
    -41.930  0.1409E-01  0.1409E-01  0.2399E-01  0.2399E-01
    -41.736  0.0000E+00  0.0000E+00  0.2400E-01  0.2400E-01
    -41.542  0.0000E+00  0.0000E+00  0.2400E-01  0.2400E-01
    -41.347  0.0000E+00  0.0000E+00  0.2400E-01  0.2400E-01
    -41.153  0.0000E+00  0.0000E+00  0.2400E-01  0.2400E-01
    -40.959  0.0000E+00  0.0000E+00  0.2400E-01  0.2400E-01
    -40.765  0.0000E+00  0.0000E+00  0.2400E-01  0.2400E-01
    -40.571  0.0000E+00  0.0000E+00  0.2400E-01  0.2400E-01
    -40.377  0.0000E+00  0.0000E+00  0.2400E-01  0.2400E-01
    -40.183  0.0000E+00  0.0000E+00  0.2400E-01  0.2400E-01
    -39.989  0.0000E+00  0.0000E+00  0.2400E-01  0.2400E-01
    -39.795  0.0000E+00  0.0000E+00  0.2400E-01  0.2400E-01
    -39.601  0.0000E+00  0.0000E+00  0.2400E-01  0.2400E-01
    -39.406  0.0000E+00  0.0000E+00  0.2400E-01  0.2400E-01
    -39.212  0.0000E+00  0.0000E+00  0.2400E-01  0.2400E-01
    -39.018  0.0000E+00  0.0000E+00  0.2400E-01  0.2400E-01
    -38.824  0.0000E+00  0.0000E+00  0.2400E-01  0.2400E-01
    -38.630  0.0000E+00  0.0000E+00  0.2400E-01  0.2400E-01
    -38.436  0.0000E+00  0.0000E+00  0.2400E-01  0.2400E-01
    -38.242  0.0000E+00  0.0000E+00  0.2400E-01  0.2400E-01
    -38.048  0.0000E+00  0.0000E+00  0.2400E-01  0.2400E-01
    -37.854  0.0000E+00  0.0000E+00  0.2400E-01  0.2400E-01
    -37.659  0.0000E+00  0.0000E+00  0.2400E-01  0.2400E-01
    -37.465  0.0000E+00  0.0000E+00  0.2400E-01  0.2400E-01
    -37.271  0.0000E+00  0.0000E+00  0.2400E-01  0.2400E-01
    -37.077  0.0000E+00  0.0000E+00  0.2400E-01  0.2400E-01
    -36.883  0.0000E+00  0.0000E+00  0.2400E-01  0.2400E-01
    -36.689  0.0000E+00  0.0000E+00  0.2400E-01  0.2400E-01
    -36.495  0.0000E+00  0.0000E+00  0.2400E-01  0.2400E-01
    -36.301  0.0000E+00  0.0000E+00  0.2400E-01  0.2400E-01
    -36.107  0.0000E+00  0.0000E+00  0.2400E-01  0.2400E-01
    -35.913  0.0000E+00  0.0000E+00  0.2400E-01  0.2400E-01
    -35.718  0.0000E+00  0.0000E+00  0.2400E-01  0.2400E-01
    -35.524  0.0000E+00  0.0000E+00  0.2400E-01  0.2400E-01
    -35.330  0.0000E+00  0.0000E+00  0.2400E-01  0.2400E-01
    -35.136  0.0000E+00  0.0000E+00  0.2400E-01  0.2400E-01
    -34.942  0.0000E+00  0.0000E+00  0.2400E-01  0.2400E-01
    -34.748  0.0000E+00  0.0000E+00  0.2400E-01  0.2400E-01
    -34.554  0.0000E+00  0.0000E+00  0.2400E-01  0.2400E-01
    -34.360  0.0000E+00  0.0000E+00  0.2400E-01  0.2400E-01
    -34.166  0.0000E+00  0.0000E+00  0.2400E-01  0.2400E-01
    -33.972  0.0000E+00  0.0000E+00  0.2400E-01  0.2400E-01
    -33.777  0.0000E+00  0.0000E+00  0.2400E-01  0.2400E-01
    -33.583  0.0000E+00  0.0000E+00  0.2400E-01  0.2400E-01
    -33.389  0.0000E+00  0.0000E+00  0.2400E-01  0.2400E-01
    -33.195  0.0000E+00  0.0000E+00  0.2400E-01  0.2400E-01
    -33.001  0.0000E+00  0.0000E+00  0.2400E-01  0.2400E-01
    -32.807  0.0000E+00  0.0000E+00  0.2400E-01  0.2400E-01
    -32.613  0.0000E+00  0.0000E+00  0.2400E-01  0.2400E-01
    -32.419  0.0000E+00  0.0000E+00  0.2400E-01  0.2400E-01
    -32.225  0.0000E+00  0.0000E+00  0.2400E-01  0.2400E-01
    -32.030  0.0000E+00  0.0000E+00  0.2400E-01  0.2400E-01
    -31.836  0.0000E+00  0.0000E+00  0.2400E-01  0.2400E-01
    -31.642  0.0000E+00  0.0000E+00  0.2400E-01  0.2400E-01
    -31.448  0.0000E+00  0.0000E+00  0.2400E-01  0.2400E-01
    -31.254  0.0000E+00  0.0000E+00  0.2400E-01  0.2400E-01
    -31.060  0.0000E+00  0.0000E+00  0.2400E-01  0.2400E-01
    -30.866  0.0000E+00  0.0000E+00  0.2400E-01  0.2400E-01
    -30.672  0.0000E+00  0.0000E+00  0.2400E-01  0.2400E-01
    -30.478  0.0000E+00  0.0000E+00  0.2400E-01  0.2400E-01
    -30.284  0.0000E+00  0.0000E+00  0.2400E-01  0.2400E-01
    -30.089  0.0000E+00  0.0000E+00  0.2400E-01  0.2400E-01
    -29.895  0.0000E+00  0.0000E+00  0.2400E-01  0.2400E-01
    -29.701  0.0000E+00  0.0000E+00  0.2400E-01  0.2400E-01
    -29.507  0.0000E+00  0.0000E+00  0.2400E-01  0.2400E-01
    -29.313  0.0000E+00  0.0000E+00  0.2400E-01  0.2400E-01
    -29.119  0.0000E+00  0.0000E+00  0.2400E-01  0.2400E-01
    -28.925  0.0000E+00  0.0000E+00  0.2400E-01  0.2400E-01
    -28.731  0.0000E+00  0.0000E+00  0.2400E-01  0.2400E-01
    -28.537  0.0000E+00  0.0000E+00  0.2400E-01  0.2400E-01
    -28.343  0.0000E+00  0.0000E+00  0.2400E-01  0.2400E-01
    -28.148  0.0000E+00  0.0000E+00  0.2400E-01  0.2400E-01
    -27.954  0.0000E+00  0.0000E+00  0.2400E-01  0.2400E-01
    -27.760  0.0000E+00  0.0000E+00  0.2400E-01  0.2400E-01
    -27.566  0.0000E+00  0.0000E+00  0.2400E-01  0.2400E-01
    -27.372  0.0000E+00  0.0000E+00  0.2400E-01  0.2400E-01
    -27.178  0.0000E+00  0.0000E+00  0.2400E-01  0.2400E-01
    -26.984  0.0000E+00  0.0000E+00  0.2400E-01  0.2400E-01
    -26.790  0.0000E+00  0.0000E+00  0.2400E-01  0.2400E-01
    -26.596  0.0000E+00  0.0000E+00  0.2400E-01  0.2400E-01
    -26.401  0.0000E+00  0.0000E+00  0.2400E-01  0.2400E-01
    -26.207  0.0000E+00  0.0000E+00  0.2400E-01  0.2400E-01
    -26.013  0.0000E+00  0.0000E+00  0.2400E-01  0.2400E-01
    -25.819  0.0000E+00  0.0000E+00  0.2400E-01  0.2400E-01
    -25.625  0.0000E+00  0.0000E+00  0.2400E-01  0.2400E-01
    -25.431  0.0000E+00  0.0000E+00  0.2400E-01  0.2400E-01
    -25.237  0.0000E+00  0.0000E+00  0.2400E-01  0.2400E-01
    -25.043  0.0000E+00  0.0000E+00  0.2400E-01  0.2400E-01
    -24.849  0.0000E+00  0.0000E+00  0.2400E-01  0.2400E-01
    -24.655  0.0000E+00  0.0000E+00  0.2400E-01  0.2400E-01
    -24.460  0.0000E+00  0.0000E+00  0.2400E-01  0.2400E-01
    -24.266  0.0000E+00  0.0000E+00  0.2400E-01  0.2400E-01
    -24.072  0.0000E+00  0.0000E+00  0.2400E-01  0.2400E-01
    -23.878  0.0000E+00  0.0000E+00  0.2400E-01  0.2400E-01
    -23.684  0.0000E+00  0.0000E+00  0.2400E-01  0.2400E-01
    -23.490  0.0000E+00  0.0000E+00  0.2400E-01  0.2400E-01
    -23.296  0.0000E+00  0.0000E+00  0.2400E-01  0.2400E-01
    -23.102  0.0000E+00  0.0000E+00  0.2400E-01  0.2400E-01
    -22.908  0.0000E+00  0.0000E+00  0.2400E-01  0.2400E-01
    -22.713  0.0000E+00  0.0000E+00  0.2400E-01  0.2400E-01
    -22.519  0.0000E+00  0.0000E+00  0.2400E-01  0.2400E-01
    -22.325  0.0000E+00  0.0000E+00  0.2400E-01  0.2400E-01
    -22.131  0.0000E+00  0.0000E+00  0.2400E-01  0.2400E-01
    -21.937  0.0000E+00  0.0000E+00  0.2400E-01  0.2400E-01
    -21.743  0.0000E+00  0.0000E+00  0.2400E-01  0.2400E-01
    -21.549  0.0000E+00  0.0000E+00  0.2400E-01  0.2400E-01
    -21.355  0.0000E+00  0.0000E+00  0.2400E-01  0.2400E-01
    -21.161  0.0000E+00  0.0000E+00  0.2400E-01  0.2400E-01
    -20.967  0.0000E+00  0.0000E+00  0.2400E-01  0.2400E-01
    -20.772  0.0000E+00  0.0000E+00  0.2400E-01  0.2400E-01
    -20.578  0.0000E+00  0.0000E+00  0.2400E-01  0.2400E-01
    -20.384  0.0000E+00  0.0000E+00  0.2400E-01  0.2400E-01
    -20.190  0.0000E+00  0.0000E+00  0.2400E-01  0.2400E-01
    -19.996  0.0000E+00  0.0000E+00  0.2400E-01  0.2400E-01
    -19.802  0.0000E+00  0.0000E+00  0.2400E-01  0.2400E-01
    -19.608  0.0000E+00  0.0000E+00  0.2400E-01  0.2400E-01
    -19.414  0.0000E+00  0.0000E+00  0.2400E-01  0.2400E-01
    -19.220  0.0000E+00  0.0000E+00  0.2400E-01  0.2400E-01
    -19.026  0.0000E+00  0.0000E+00  0.2400E-01  0.2400E-01
    -18.831  0.0000E+00  0.0000E+00  0.2400E-01  0.2400E-01
    -18.637  0.0000E+00  0.0000E+00  0.2400E-01  0.2400E-01
    -18.443  0.0000E+00  0.0000E+00  0.2400E-01  0.2400E-01
    -18.249  0.0000E+00  0.0000E+00  0.2400E-01  0.2400E-01
    -18.055  0.0000E+00  0.0000E+00  0.2400E-01  0.2400E-01
    -17.861  0.0000E+00  0.0000E+00  0.2400E-01  0.2400E-01
    -17.667  0.0000E+00  0.0000E+00  0.2400E-01  0.2400E-01
    -17.473  0.0000E+00  0.0000E+00  0.2400E-01  0.2400E-01
    -17.279  0.0000E+00  0.0000E+00  0.2400E-01  0.2400E-01
    -17.084  0.0000E+00  0.0000E+00  0.2400E-01  0.2400E-01
    -16.890  0.0000E+00  0.0000E+00  0.2400E-01  0.2400E-01
    -16.696  0.0000E+00  0.0000E+00  0.2400E-01  0.2400E-01
    -16.502  0.0000E+00  0.0000E+00  0.2400E-01  0.2400E-01
    -16.308  0.0000E+00  0.0000E+00  0.2400E-01  0.2400E-01
    -16.114  0.0000E+00  0.0000E+00  0.2400E-01  0.2400E-01
    -15.920  0.0000E+00  0.0000E+00  0.2400E-01  0.2400E-01
    -15.726  0.0000E+00  0.0000E+00  0.2400E-01  0.2400E-01
    -15.532  0.0000E+00  0.0000E+00  0.2400E-01  0.2400E-01
    -15.338  0.0000E+00  0.0000E+00  0.2400E-01  0.2400E-01
    -15.143  0.0000E+00  0.0000E+00  0.2400E-01  0.2400E-01
    -14.949  0.0000E+00  0.0000E+00  0.2400E-01  0.2400E-01
    -14.755  0.0000E+00  0.0000E+00  0.2400E-01  0.2400E-01
    -14.561  0.0000E+00  0.0000E+00  0.2400E-01  0.2400E-01
    -14.367  0.0000E+00  0.0000E+00  0.2400E-01  0.2400E-01
    -14.173  0.0000E+00  0.0000E+00  0.2400E-01  0.2400E-01
    -13.979  0.0000E+00  0.0000E+00  0.2400E-01  0.2400E-01
    -13.785  0.0000E+00  0.0000E+00  0.2400E-01  0.2400E-01
    -13.591  0.0000E+00  0.0000E+00  0.2400E-01  0.2400E-01
    -13.397  0.0000E+00  0.0000E+00  0.2400E-01  0.2400E-01
    -13.202  0.7007E-17  0.7007E-17  0.2400E-01  0.2400E-01
    -13.008  0.6030E-02  0.6030E-02  0.2517E-01  0.2517E-01
    -12.814  0.1530E-01  0.1530E-01  0.2814E-01  0.2814E-01
    -12.620  0.1958E-01  0.1958E-01  0.3194E-01  0.3194E-01
    -12.426  0.2045E-03  0.2045E-03  0.3200E-01  0.3200E-01
    -12.232  0.0000E+00  0.0000E+00  0.3200E-01  0.3200E-01
    -12.038  0.0000E+00  0.0000E+00  0.3200E-01  0.3200E-01
    -11.844  0.0000E+00  0.0000E+00  0.3200E-01  0.3200E-01
    -11.650  0.0000E+00  0.0000E+00  0.3200E-01  0.3200E-01
    -11.455  0.0000E+00  0.0000E+00  0.3200E-01  0.3200E-01
    -11.261  0.0000E+00  0.0000E+00  0.3200E-01  0.3200E-01
    -11.067  0.0000E+00  0.0000E+00  0.3200E-01  0.3200E-01
    -10.873  0.0000E+00  0.0000E+00  0.3200E-01  0.3200E-01
    -10.679  0.0000E+00  0.0000E+00  0.3200E-01  0.3200E-01
    -10.485  0.0000E+00  0.0000E+00  0.3200E-01  0.3200E-01
    -10.291  0.1295E-02  0.1295E-02  0.3225E-01  0.3225E-01
    -10.097  0.1742E-01  0.1742E-01  0.3563E-01  0.3563E-01
     -9.903  0.3125E-01  0.3125E-01  0.4170E-01  0.4170E-01
     -9.709  0.1183E-01  0.1183E-01  0.4400E-01  0.4400E-01
     -9.514  0.0000E+00  0.0000E+00  0.4400E-01  0.4400E-01
     -9.320  0.0000E+00  0.0000E+00  0.4400E-01  0.4400E-01
     -9.126  0.0000E+00  0.0000E+00  0.4400E-01  0.4400E-01
     -8.932  0.6028E-14  0.6028E-14  0.4400E-01  0.4400E-01
     -8.738  0.5068E-02  0.5068E-02  0.4498E-01  0.4498E-01
     -8.544  0.8392E-04  0.8392E-04  0.4500E-01  0.4500E-01
     -8.350  0.1173E-02  0.1173E-02  0.4523E-01  0.4523E-01
     -8.156  0.9131E-02  0.9131E-02  0.4700E-01  0.4700E-01
     -7.962  0.0000E+00  0.0000E+00  0.4700E-01  0.4700E-01
     -7.768  0.5148E-17  0.5148E-17  0.4700E-01  0.4700E-01
     -7.573  0.4566E-02  0.4566E-02  0.4789E-01  0.4789E-01
     -7.379  0.5859E-03  0.5859E-03  0.4800E-01  0.4800E-01
     -7.185  0.0000E+00  0.0000E+00  0.4800E-01  0.4800E-01
     -6.991  0.0000E+00  0.0000E+00  0.4800E-01  0.4800E-01
     -6.797  0.0000E+00  0.0000E+00  0.4800E-01  0.4800E-01
     -6.603  0.0000E+00  0.0000E+00  0.4800E-01  0.4800E-01
     -6.409  0.0000E+00  0.0000E+00  0.4800E-01  0.4800E-01
     -6.215  0.3642E-07  0.3642E-07  0.4800E-01  0.4800E-01
     -6.021  0.5152E-02  0.5152E-02  0.4900E-01  0.4900E-01
     -5.826  0.7508E-07  0.7508E-07  0.4900E-01  0.4900E-01
     -5.632  0.8781E-02  0.8781E-02  0.5070E-01  0.5070E-01
     -5.438  0.6674E-02  0.6674E-02  0.5200E-01  0.5200E-01
     -5.244  0.0000E+00  0.0000E+00  0.5200E-01  0.5200E-01
     -5.050  0.0000E+00  0.0000E+00  0.5200E-01  0.5200E-01
     -4.856  0.0000E+00  0.0000E+00  0.5200E-01  0.5200E-01
     -4.662  0.0000E+00  0.0000E+00  0.5200E-01  0.5200E-01
     -4.468  0.0000E+00  0.0000E+00  0.5200E-01  0.5200E-01
     -4.274  0.0000E+00  0.0000E+00  0.5200E-01  0.5200E-01
     -4.080  0.0000E+00  0.0000E+00  0.5200E-01  0.5200E-01
     -3.885  0.0000E+00  0.0000E+00  0.5200E-01  0.5200E-01
     -3.691  0.0000E+00  0.0000E+00  0.5200E-01  0.5200E-01
     -3.497  0.0000E+00  0.0000E+00  0.5200E-01  0.5200E-01
     -3.303  0.4643E-06  0.4643E-06  0.5200E-01  0.5200E-01
     -3.109  0.1538E-01  0.1538E-01  0.5498E-01  0.5498E-01
     -2.915  0.8625E-04  0.8625E-04  0.5501E-01  0.5501E-01
     -2.721  0.8071E-02  0.8071E-02  0.5657E-01  0.5657E-01
     -2.527  0.1127E-01  0.1127E-01  0.5876E-01  0.5876E-01
     -2.333  0.1598E-01  0.1598E-01  0.6186E-01  0.6186E-01
     -2.138  0.1093E-01  0.1093E-01  0.6399E-01  0.6399E-01
     -1.944  0.7431E-04  0.7431E-04  0.6400E-01  0.6400E-01
     -1.750  0.9732E-08  0.9732E-08  0.6400E-01  0.6400E-01
     -1.556  0.5780E-02  0.5780E-02  0.6512E-01  0.6512E-01
     -1.362  0.2846E-01  0.2846E-01  0.7065E-01  0.7065E-01
     -1.168  0.2624E-01  0.2624E-01  0.7574E-01  0.7574E-01
     -0.974  0.1312E-02  0.1312E-02  0.7600E-01  0.7600E-01
     -0.780  0.4617E-13  0.4617E-13  0.7600E-01  0.7600E-01
     -0.586  0.4459E-02  0.4459E-02  0.7687E-01  0.7687E-01
     -0.392  0.1137E-01  0.1137E-01  0.7907E-01  0.7907E-01
     -0.197  0.1257E-01  0.1257E-01  0.8151E-01  0.8151E-01
     -0.003  0.2220E-01  0.2220E-01  0.8582E-01  0.8582E-01
      0.191  0.2671E-01  0.2671E-01  0.9101E-01  0.9101E-01
      0.385  0.1821E-01  0.1821E-01  0.9455E-01  0.9455E-01
      0.579  0.7487E-02  0.7487E-02  0.9600E-01  0.9600E-01
      0.773  0.6524E-02  0.6524E-02  0.9727E-01  0.9727E-01
      0.967  0.2202E-01  0.2202E-01  0.1015E+00  0.1015E+00
      1.161  0.2098E-01  0.2098E-01  0.1056E+00  0.1056E+00
      1.355  0.2212E-01  0.2212E-01  0.1099E+00  0.1099E+00
      1.549  0.2199E-01  0.2199E-01  0.1142E+00  0.1142E+00
      1.744  0.1412E-01  0.1412E-01  0.1169E+00  0.1169E+00
      1.938  0.5979E-02  0.5979E-02  0.1181E+00  0.1181E+00
      2.132  0.4691E-02  0.4691E-02  0.1190E+00  0.1190E+00
      2.326  0.5143E-02  0.5143E-02  0.1200E+00  0.1200E+00
      2.520  0.0000E+00  0.0000E+00  0.1200E+00  0.1200E+00
      2.714  0.0000E+00  0.0000E+00  0.1200E+00  0.1200E+00
      2.908  0.0000E+00  0.0000E+00  0.1200E+00  0.1200E+00
      3.102  0.0000E+00  0.0000E+00  0.1200E+00  0.1200E+00
      3.296  0.0000E+00  0.0000E+00  0.1200E+00  0.1200E+00
      3.491  0.0000E+00  0.0000E+00  0.1200E+00  0.1200E+00
      3.685  0.0000E+00  0.0000E+00  0.1200E+00  0.1200E+00
      3.879  0.0000E+00  0.0000E+00  0.1200E+00  0.1200E+00
      4.073  0.0000E+00  0.0000E+00  0.1200E+00  0.1200E+00
      4.267  0.3531E-14  0.3531E-14  0.1200E+00  0.1200E+00
      4.461  0.3197E-02  0.3197E-02  0.1206E+00  0.1206E+00
      4.655  0.1939E-02  0.1939E-02  0.1210E+00  0.1210E+00
      4.849  0.0000E+00  0.0000E+00  0.1210E+00  0.1210E+00
      5.043  0.1430E-18  0.1430E-18  0.1210E+00  0.1210E+00
      5.237  0.3318E-02  0.3318E-02  0.1216E+00  0.1216E+00
      5.432  0.1121E-01  0.1121E-01  0.1238E+00  0.1238E+00
      5.626  0.9207E-03  0.9207E-03  0.1240E+00  0.1240E+00
      5.820  0.1115E-04  0.1115E-04  0.1240E+00  0.1240E+00
      6.014  0.1281E-01  0.1281E-01  0.1265E+00  0.1265E+00
      6.208  0.1143E-01  0.1143E-01  0.1287E+00  0.1287E+00
      6.402  0.6654E-02  0.6654E-02  0.1300E+00  0.1300E+00
      6.596  0.9609E-02  0.9609E-02  0.1319E+00  0.1319E+00
      6.790  0.1020E-01  0.1020E-01  0.1338E+00  0.1338E+00
      6.984  0.1086E-01  0.1086E-01  0.1360E+00  0.1360E+00
      7.178  0.5254E-02  0.5254E-02  0.1370E+00  0.1370E+00
      7.373  0.3323E-02  0.3323E-02  0.1376E+00  0.1376E+00
      7.567  0.1099E-01  0.1099E-01  0.1398E+00  0.1398E+00
      7.761  0.1062E-01  0.1062E-01  0.1418E+00  0.1418E+00
      7.955  0.1277E-01  0.1277E-01  0.1443E+00  0.1443E+00
      8.149  0.1304E-01  0.1304E-01  0.1468E+00  0.1468E+00
      8.343  0.1329E-01  0.1329E-01  0.1494E+00  0.1494E+00
      8.537  0.1691E-01  0.1691E-01  0.1527E+00  0.1527E+00
      8.731  0.1430E-01  0.1430E-01  0.1555E+00  0.1555E+00
      8.925  0.1511E-01  0.1511E-01  0.1584E+00  0.1584E+00
      9.120  0.1617E-01  0.1617E-01  0.1616E+00  0.1616E+00
      9.314  0.1811E-01  0.1811E-01  0.1651E+00  0.1651E+00
      9.508  0.1753E-01  0.1753E-01  0.1685E+00  0.1685E+00
      9.702  0.2026E-01  0.2030E-01  0.1724E+00  0.1724E+00
      9.896  0.1461E-01  0.1406E-01  0.1752E+00  0.1752E+00
     10.090  0.3872E-02  0.4367E-02  0.1760E+00  0.1760E+00
     10.284  0.0000E+00  0.0000E+00  0.1760E+00  0.1760E+00
     10.478  0.0000E+00  0.0000E+00  0.1760E+00  0.1760E+00
     10.672  0.0000E+00  0.0000E+00  0.1760E+00  0.1760E+00
     10.866  0.0000E+00  0.0000E+00  0.1760E+00  0.1760E+00
     11.061  0.0000E+00  0.0000E+00  0.1760E+00  0.1760E+00
     11.255  0.0000E+00  0.0000E+00  0.1760E+00  0.1760E+00
     11.449  0.0000E+00  0.0000E+00  0.1760E+00  0.1760E+00
     11.643  0.0000E+00  0.0000E+00  0.1760E+00  0.1760E+00
     11.837  0.0000E+00  0.0000E+00  0.1760E+00  0.1760E+00
     12.031  0.0000E+00  0.0000E+00  0.1760E+00  0.1760E+00
     12.225  0.0000E+00  0.0000E+00  0.1760E+00  0.1760E+00
     12.419  0.0000E+00  0.0000E+00  0.1760E+00  0.1760E+00
     12.613  0.0000E+00  0.0000E+00  0.1760E+00  0.1760E+00
