 vasp.6.4.1 05Apr23 (build Jun 07 2023 15:38:11) complex                        
  
 executed on             LinuxIFC date 2023.10.30  11:56:00
 running  128 mpi-ranks, with    1 threads/rank, on    1 nodes
 distrk:  each k-point on  128 cores,    1 groups
 distr:  one band on NCORE=  32 cores,    4 groups


--------------------------------------------------------------------------------------------------------


 INCAR:
   GGA = PE
   PREC = Accu
   EDIFF = 1.e-6
   EDIFFG = -1.e-3
   ENCUT = 520.
   NELM = 100
   NELMDL = -10
   LASPH = .TRUE.
   LREAL = Auto
   LMAXMIX = 4
   ISPIN = 2
   LDIAG = .TRUE.
   LPLANE = .TRUE.
   IVDW = 12
   SIGMA = 0.03
   ISMEAR = 0
   NSW = 1000    number of steps for IOM
   IBRION = 2    ionic relax: 0-MD 1-quasi-New 2-CG
   ISIF = 2    ionic relaxation + stress tensor calcn.
   LCHARG = .FALSE.
   LWAVE = .FALSE.
   ALGO = F
   KPAR = 1
   NPAR = 4
   POTIM = 0.2

 POTCAR:    PAW_PBE Li_sv_GW 25Mar2010            
 POTCAR:    PAW_PBE P_GW 19Mar2012                
 POTCAR:    PAW_PBE S_GW 19Mar2012                
 POTCAR:    PAW_PBE Cl_GW 19Mar2012               
 -----------------------------------------------------------------------------
|                                                                             |
|           W    W    AA    RRRRR   N    N  II  N    N   GGGG   !!!           |
|           W    W   A  A   R    R  NN   N  II  NN   N  G    G  !!!           |
|           W    W  A    A  R    R  N N  N  II  N N  N  G       !!!           |
|           W WW W  AAAAAA  RRRRR   N  N N  II  N  N N  G  GGG   !            |
|           WW  WW  A    A  R   R   N   NN  II  N   NN  G    G                |
|           W    W  A    A  R    R  N    N  II  N    N   GGGG   !!!           |
|                                                                             |
|     You use a magnetic or noncollinear calculation, but did not specify     |
|     the initial magnetic moment with the MAGMOM tag. Note that a            |
|     default of 1 will be used for all atoms. This ferromagnetic setup       |
|     may break the symmetry of the crystal, in particular it may rule        |
|     out finding an antiferromagnetic solution. Thence, we recommend         |
|     setting the initial magnetic moment manually or verifying carefully     |
|     that this magnetic setup is desired.                                    |
|                                                                             |
 -----------------------------------------------------------------------------

 POTCAR:    PAW_PBE Li_sv_GW 25Mar2010            
   SHA256 =  24a6ace15a582615486b36ce4dc781b048409f4015b7684ed1273ae395fa2fdc Li_sv_GW/POTCAR       
   COPYR  = (c) Copyright 25Mar2010 Georg Kresse                                                    
   COPYR  = This file is part of the software VASP. Any use, copying, and all other rights are regul
   COPYR  = If you do not have a valid VASP license, you may not use, copy or distribute this file. 
   VRHFIN =Li: 1s2s                                                                                 
   LEXCH  = PE                                                                                      
   EATOM  =   200.9989 eV,   14.7730 Ry                                                             
                                                                                                    
   TITEL  = PAW_PBE Li_sv_GW 25Mar2010                                                              
   LULTRA =        F    use ultrasoft PP ?                                                          
   IUNSCR =        0    unscreen: 0-lin 1-nonlin 2-no                                               
   RPACOR =    0.000    partial core radius                                                         
   POMASS =    7.010; ZVAL   =    3.000    mass and valenz                                          
   RCORE  =    1.500    outmost cutoff radius                                                       
   RWIGS  =    1.600; RWIGS  =    0.847    wigner-seitz radius (au A)                               
   ENMAX  =  433.699; ENMIN  =  325.274 eV                                                          
   RCLOC  =    1.003    cutoff for local pot                                                        
   LCOR   =        T    correct aug charges                                                         
   LPAW   =        T    paw PP                                                                      
   EAUG   = 1041.699                                                                                
   RMAX   =    1.536    core radius for proj-oper                                                   
   RAUG   =    1.300    factor for augmentation sphere                                              
   RDEP   =    1.520    radius for radial grids                                                     
   RDEPT  =    1.300    core radius for aug-charge                                                  
                                                                                                    
   Atomic configuration                                                                             
    4 entries                                                                                       
     n  l   j            E        occ.                                                              
     1  0  0.50       -53.3604   2.0000                                                             
     1  0  0.50       -52.0001   0.0000                                                             
     2  1  0.50        -1.5636   1.0000                                                             
     3  2  1.50        -1.3606   0.0000                                                             
   Description                                                                                      
     l       E           TYP  RCUT    TYP  RCUT                                                     
     0    -53.3603633     23  1.200                                                                 
     0    -52.0001064     23  1.200                                                                 
     0    176.8757380     23  1.300                                                                 
     1     -1.5635925     23  1.500                                                                 
     1    108.8466080     23  1.500                                                                 
     2     81.6349560     23  1.500                                                                 
  local pseudopotential read in
  kinetic energy density of atom read in
  atomic valenz-charges read in
  non local Contribution for L=           0  read in
    real space projection operators read in
  non local Contribution for L=           0  read in
    real space projection operators read in
  non local Contribution for L=           0  read in
    real space projection operators read in
  non local Contribution for L=           1  read in
    real space projection operators read in
  non local Contribution for L=           1  read in
    real space projection operators read in
  non local Contribution for L=           2  read in
    real space projection operators read in
    PAW grid and wavefunctions read in
 
   number of l-projection  operators is LMAX  =           6
   number of lm-projection operators is LMMAX =          14
 
 POTCAR:    PAW_PBE P_GW 19Mar2012                
   SHA256 =  715c28f2291d37b61637ce89646c59f66f71c8b8d8bfba631e5feb9f7b42defe P_GW/POTCAR           
   COPYR  = (c) Copyright 19Mar2012 Georg Kresse                                                    
   COPYR  = This file is part of the software VASP. Any use, copying, and all other rights are regul
   COPYR  = If you do not have a valid VASP license, you may not use, copy or distribute this file. 
   VRHFIN =P : s2p3                                                                                 
   LEXCH  = PE                                                                                      
   EATOM  =   176.0430 eV,   12.9388 Ry                                                             
                                                                                                    
   TITEL  = PAW_PBE P_GW 19Mar2012                                                                  
   LULTRA =        F    use ultrasoft PP ?                                                          
   IUNSCR =        1    unscreen: 0-lin 1-nonlin 2-no                                               
   RPACOR =    1.400    partial core radius                                                         
   POMASS =   30.974; ZVAL   =    5.000    mass and valenz                                          
   RCORE  =    2.000    outmost cutoff radius                                                       
   RWIGS  =    1.900; RWIGS  =    1.005    wigner-seitz radius (au A)                               
   ENMAX  =  255.040; ENMIN  =  191.280 eV                                                          
   ICORE  =        3    local potential                                                             
   LCOR   =        T    correct aug charges                                                         
   LPAW   =        T    paw PP                                                                      
   EAUG   =  499.732                                                                                
   DEXC   =    0.000                                                                                
   RMAX   =    2.047    core radius for proj-oper                                                   
   RAUG   =    1.300    factor for augmentation sphere                                              
   RDEP   =    2.059    radius for radial grids                                                     
   RDEPT  =    1.900    core radius for aug-charge                                                  
                                                                                                    
   Atomic configuration                                                                             
    7 entries                                                                                       
     n  l   j            E        occ.                                                              
     1  0  0.50     -2084.0982   2.0000                                                             
     2  0  0.50      -173.9859   2.0000                                                             
     2  1  1.50      -124.4865   6.0000                                                             
     3  0  0.50       -13.9692   2.0000                                                             
     3  1  0.50        -5.5067   3.0000                                                             
     3  2  1.50        -6.8029   0.0000                                                             
     4  3  2.50        -1.3606   0.0000                                                             
   Description                                                                                      
     l       E           TYP  RCUT    TYP  RCUT                                                     
     0    -13.9691528     23  1.900                                                                 
     0    102.0436950     23  1.900                                                                 
     1     -5.5066939     23  1.900                                                                 
     1    102.0436950     23  1.900                                                                 
     2     -8.1634956     23  2.000                                                                 
     2     81.6349560     23  2.000                                                                 
     3     27.2116520     23  2.000                                                                 
  local pseudopotential read in
  partial core-charges read in
  partial kinetic energy density read in
  kinetic energy density of atom read in
  atomic valenz-charges read in
  non local Contribution for L=           0  read in
    real space projection operators read in
  non local Contribution for L=           0  read in
    real space projection operators read in
  non local Contribution for L=           1  read in
    real space projection operators read in
  non local Contribution for L=           1  read in
    real space projection operators read in
  non local Contribution for L=           2  read in
    real space projection operators read in
  non local Contribution for L=           2  read in
    real space projection operators read in
    PAW grid and wavefunctions read in
 
   number of l-projection  operators is LMAX  =           6
   number of lm-projection operators is LMMAX =          18
 
 POTCAR:    PAW_PBE S_GW 19Mar2012                
   SHA256 =  357db9cfb0783579b2eebe03197c2d807131fea8ea663b1fcfb6ce2fa75af011 S_GW/POTCAR           
   COPYR  = (c) Copyright 19Mar2012 Georg Kresse                                                    
   COPYR  = This file is part of the software VASP. Any use, copying, and all other rights are regul
   COPYR  = If you do not have a valid VASP license, you may not use, copy or distribute this file. 
   VRHFIN =S : s2p4                                                                                 
   LEXCH  = PE                                                                                      
   EATOM  =   276.8230 eV,   20.3459 Ry                                                             
                                                                                                    
   TITEL  = PAW_PBE S_GW 19Mar2012                                                                  
   LULTRA =        F    use ultrasoft PP ?                                                          
   IUNSCR =        1    unscreen: 0-lin 1-nonlin 2-no                                               
   RPACOR =    1.400    partial core radius                                                         
   POMASS =   32.066; ZVAL   =    6.000    mass and valenz                                          
   RCORE  =    1.900    outmost cutoff radius                                                       
   RWIGS  =    1.900; RWIGS  =    1.005    wigner-seitz radius (au A)                               
   ENMAX  =  258.689; ENMIN  =  194.016 eV                                                          
   ICORE  =        3    local potential                                                             
   LCOR   =        T    correct aug charges                                                         
   LPAW   =        T    paw PP                                                                      
   EAUG   =  488.319                                                                                
   DEXC   =    0.000                                                                                
   RMAX   =    1.942    core radius for proj-oper                                                   
   RAUG   =    1.300    factor for augmentation sphere                                              
   RDEP   =    1.954    radius for radial grids                                                     
   RDEPT  =    1.900    core radius for aug-charge                                                  
                                                                                                    
   Atomic configuration                                                                             
    7 entries                                                                                       
     n  l   j            E        occ.                                                              
     1  0  0.50     -2405.8406   2.0000                                                             
     2  0  0.50      -211.7007   2.0000                                                             
     2  1  1.50      -156.4958   6.0000                                                             
     3  0  0.50       -17.2562   2.0000                                                             
     3  1  0.50        -7.0085   4.0000                                                             
     3  2  1.50        -8.1635   0.0000                                                             
     4  3  2.50        -1.3606   0.0000                                                             
   Description                                                                                      
     l       E           TYP  RCUT    TYP  RCUT                                                     
     0    -17.2561639     23  1.700                                                                 
     0     88.4378690     23  1.900                                                                 
     1     -7.0085399     23  1.900                                                                 
     1     88.4378690     23  1.900                                                                 
     2    -10.8846608     23  1.900                                                                 
     2     54.4233040     23  1.900                                                                 
     3     27.2116520     23  1.800                                                                 
  local pseudopotential read in
  partial core-charges read in
  partial kinetic energy density read in
  kinetic energy density of atom read in
  atomic valenz-charges read in
  non local Contribution for L=           0  read in
    real space projection operators read in
  non local Contribution for L=           0  read in
    real space projection operators read in
  non local Contribution for L=           1  read in
    real space projection operators read in
  non local Contribution for L=           1  read in
    real space projection operators read in
  non local Contribution for L=           2  read in
    real space projection operators read in
  non local Contribution for L=           2  read in
    real space projection operators read in
    PAW grid and wavefunctions read in
 
   number of l-projection  operators is LMAX  =           6
   number of lm-projection operators is LMMAX =          18
 
 POTCAR:    PAW_PBE Cl_GW 19Mar2012               
   SHA256 =  3ef3b3169d6a9a89979f58b4cf17d927a58518fc660d8883d88cacaee8175441 Cl_GW/POTCAR          
   COPYR  = (c) Copyright 19Mar2012 Georg Kresse                                                    
   COPYR  = This file is part of the software VASP. Any use, copying, and all other rights are regul
   COPYR  = If you do not have a valid VASP license, you may not use, copy or distribute this file. 
   VRHFIN =Cl: s2p5                                                                                 
   LEXCH  = PE                                                                                      
   EATOM  =   409.7259 eV,   30.1140 Ry                                                             
                                                                                                    
   TITEL  = PAW_PBE Cl_GW 19Mar2012                                                                 
   LULTRA =        F    use ultrasoft PP ?                                                          
   IUNSCR =        1    unscreen: 0-lin 1-nonlin 2-no                                               
   RPACOR =    1.400    partial core radius                                                         
   POMASS =   35.453; ZVAL   =    7.000    mass and valenz                                          
   RCORE  =    1.900    outmost cutoff radius                                                       
   RWIGS  =    1.900; RWIGS  =    1.005    wigner-seitz radius (au A)                               
   ENMAX  =  262.472; ENMIN  =  196.854 eV                                                          
   ICORE  =        3    local potential                                                             
   LCOR   =        T    correct aug charges                                                         
   LPAW   =        T    paw PP                                                                      
   EAUG   =  456.703                                                                                
   DEXC   =    0.000                                                                                
   RMAX   =    1.945    core radius for proj-oper                                                   
   RAUG   =    1.300    factor for augmentation sphere                                              
   RDEP   =    2.020    radius for radial grids                                                     
   RDEPT  =    1.900    core radius for aug-charge                                                  
                                                                                                    
   Atomic configuration                                                                             
    7 entries                                                                                       
     n  l   j            E        occ.                                                              
     1  0  0.50     -2751.1850   2.0000                                                             
     2  0  0.50      -252.6861   2.0000                                                             
     2  1  1.50      -191.6157   6.0000                                                             
     3  0  0.50       -20.6916   2.0000                                                             
     3  1  0.50        -8.5949   5.0000                                                             
     3  2  1.50        -9.5241   0.0000                                                             
     4  3  2.50        -9.5241   0.0000                                                             
   Description                                                                                      
     l       E           TYP  RCUT    TYP  RCUT                                                     
     0    -20.6915657     23  1.700                                                                 
     0     95.2407820     23  1.800                                                                 
     1     -8.5948577     23  1.900                                                                 
     1     95.2407820     23  1.900                                                                 
     2    -10.8846608     23  1.900                                                                 
     2     54.4233040     23  1.900                                                                 
     3     27.2116520     23  1.900                                                                 
  local pseudopotential read in
  partial core-charges read in
  partial kinetic energy density read in
  kinetic energy density of atom read in
  atomic valenz-charges read in
  non local Contribution for L=           0  read in
    real space projection operators read in
  non local Contribution for L=           0  read in
    real space projection operators read in
  non local Contribution for L=           1  read in
    real space projection operators read in
  non local Contribution for L=           1  read in
    real space projection operators read in
  non local Contribution for L=           2  read in
    real space projection operators read in
  non local Contribution for L=           2  read in
    real space projection operators read in
    PAW grid and wavefunctions read in
 
   number of l-projection  operators is LMAX  =           6
   number of lm-projection operators is LMMAX =          18
 
 Optimization of the real space projectors (new method)

 maximal supplied QI-value         = 25.13
 optimisation between [QCUT,QGAM] = [ 11.56, 23.12] = [ 37.43,149.72] Ry 
 Optimized for a Real-space Cutoff    1.28 Angstroem

   l    n(q)    QCUT    max X(q) W(low)/X(q) W(high)/X(q)  e(spline) 
   0      9    11.561    87.733    0.11E-03    0.32E-04    0.56E-06
   0      9    11.561    82.800    0.11E-03    0.35E-04    0.56E-06
   0      9    11.561     2.509    0.22E-03    0.42E-04    0.79E-06
   1      8    11.561    12.580    0.94E-04    0.26E-03    0.21E-06
   1      8    11.561     1.319    0.33E-04    0.15E-03    0.19E-06
   2      8    11.561     1.993    0.36E-04    0.89E-04    0.26E-06
 Optimization of the real space projectors (new method)

 maximal supplied QI-value         = 18.90
 optimisation between [QCUT,QGAM] = [ 11.53, 23.24] = [ 37.21,151.29] Ry 
 Optimized for a Real-space Cutoff    1.21 Angstroem

   l    n(q)    QCUT    max X(q) W(low)/X(q) W(high)/X(q)  e(spline) 
   0      8    11.527     8.355    0.73E-04    0.70E-04    0.26E-07
   0      8    11.527     1.401    0.17E-03    0.17E-03    0.63E-07
   1      8    11.527     4.747    0.13E-03    0.17E-03    0.11E-06
   1      8    11.527     2.025    0.16E-03    0.18E-03    0.12E-06
   2      7    11.527     3.169    0.51E-04    0.25E-03    0.60E-07
   2      7    11.527     3.441    0.82E-04    0.22E-03    0.14E-06
 Optimization of the real space projectors (new method)

 maximal supplied QI-value         = 19.84
 optimisation between [QCUT,QGAM] = [ 11.51, 23.22] = [ 37.09,150.92] Ry 
 Optimized for a Real-space Cutoff    1.49 Angstroem

   l    n(q)    QCUT    max X(q) W(low)/X(q) W(high)/X(q)  e(spline) 
   0     10    11.508     7.541    0.34E-04    0.13E-04    0.69E-07
   0     10    11.508     1.809    0.49E-04    0.27E-04    0.14E-06
   1     10    11.508     4.107    0.27E-05    0.41E-05    0.14E-06
   1     10    11.508     2.196    0.26E-05    0.25E-05    0.22E-06
   2      9    11.508     4.265    0.18E-03    0.11E-03    0.81E-06
   2      9    11.508     1.925    0.97E-04    0.76E-04    0.47E-06
 Optimization of the real space projectors (new method)

 maximal supplied QI-value         = 19.84
 optimisation between [QCUT,QGAM] = [ 11.51, 23.22] = [ 37.09,150.92] Ry 
 Optimized for a Real-space Cutoff    1.21 Angstroem

   l    n(q)    QCUT    max X(q) W(low)/X(q) W(high)/X(q)  e(spline) 
   0      8    11.508     6.761    0.57E-04    0.57E-04    0.35E-07
   0      8    11.508     1.642    0.14E-03    0.14E-03    0.91E-07
   1      8    11.508     3.519    0.20E-04    0.72E-04    0.47E-07
   1      8    11.508     2.150    0.27E-04    0.11E-03    0.89E-07
   2      7    11.508     2.976    0.19E-03    0.33E-03    0.16E-06
   2      7    11.508     1.494    0.14E-03    0.29E-03    0.14E-06
  PAW_PBE Li_sv_GW 25Mar2010            :
 energy of atom  1       EATOM= -200.9989
 kinetic energy error for atom=    0.0127 (will be added to EATOM!!)
  PAW_PBE P_GW 19Mar2012                :
 energy of atom  2       EATOM= -176.0430
 kinetic energy error for atom=    0.0011 (will be added to EATOM!!)
  PAW_PBE S_GW 19Mar2012                :
 energy of atom  3       EATOM= -276.8230
 kinetic energy error for atom=    0.0024 (will be added to EATOM!!)
  PAW_PBE Cl_GW 19Mar2012               :
 energy of atom  4       EATOM= -409.7259
 kinetic energy error for atom=    0.0030 (will be added to EATOM!!)
 
 
 POSCAR: Li24 P4 S20 Cl4
  positions in direct lattice
  velocities in cartesian coordinates
 exchange correlation table for  LEXCH =        8
   RHO(1)=    0.500       N(1)  =     2000
   RHO(2)=  100.500       N(2)  =     4000

 VTST: version 4.1, (05/19/21)

 CHAIN: initializing optimizer
 
 OPT: Using VASP Conjugate-Gradient optimizer
 CHAIN: Read ICHAIN            0
 
 POSCAR: Li24 P4 S20 Cl4
  positions in direct lattice
  velocities in cartesian coordinates
 


--------------------------------------------------------------------------------------------------------


 ion  position               nearest neighbor table
   1  0.961  0.185  0.153-
   2  0.003  0.696  0.712-
   3  0.058  0.339  0.698-
   4  0.022  0.839  0.217-
   5  0.853  0.978  0.787-
   6  0.212  0.795  0.018-
   7  0.692  0.296  0.005-
   8  0.805  0.798  0.990-
   9  0.314  0.988  0.278-
  10  0.198  0.046  0.823-
  11  0.554  0.848  0.649-
  12  0.670  0.040  0.322-
  13  0.296  0.800  0.485-
  14  0.282  0.212  0.512-
  15  0.807  0.698  0.517-
  16  0.818  0.328  0.454-
  17  0.305  0.373  0.943-
  18  0.150  0.546  0.325-
  19  0.715  0.492  0.211-
  20  0.778  0.511  0.740-
  21  0.490  0.186  0.695-
  22  0.459  0.680  0.191-
  23  0.505  0.289  0.228-
  24  0.537  0.661  0.849-
  25  0.497  0.511  0.507-  43 2.04  44 2.05  42 2.05  41 2.07
  26  0.510  1.000  0.993-  39 2.05  38 2.05  37 2.05  40 2.07
  27  0.016  0.499  0.012-  36 2.03  35 2.04  33 2.06  34 2.07
  28  0.998  0.016  0.499-  32 2.04  30 2.05  31 2.06  29 2.06
  29  0.118  0.897  0.628-  28 2.06
  30  0.113  0.122  0.356-  28 2.05
  31  0.861  0.895  0.390-  28 2.06
  32  0.890  0.153  0.618-  28 2.04
  33  0.899  0.628  0.136-  27 2.06
  34  0.896  0.369  0.892-  27 2.07
  35  0.149  0.600  0.882-  27 2.04
  36  0.131  0.375  0.138-  27 2.03
  37  0.646  0.102  0.866-  26 2.05
  38  0.614  0.877  0.131-  26 2.05
  39  0.375  0.133  0.089-  26 2.05
  40  0.392  0.874  0.865-  26 2.07
  41  0.615  0.639  0.382-  25 2.07
  42  0.625  0.376  0.610-  25 2.05
  43  0.392  0.635  0.643-  25 2.04
  44  0.360  0.407  0.382-  25 2.05
  45  0.759  0.748  0.755-
  46  0.741  0.256  0.238-
  47  0.244  0.761  0.254-
  48  0.271  0.253  0.741-
  49  0.006  0.971  0.996-
  50  0.980  0.519  0.527-
  51  0.471  0.016  0.484-
  52  0.524  0.492  0.026-
 
  LATTYP: Found a simple cubic cell.
 ALAT       =     9.6609735872
  
  Lattice vectors:
  
 A1 = (   9.6609735872,   0.0000000000,   0.0000000000)
 A2 = (   0.0000000000,   9.6609735872,   0.0000000000)
 A3 = (   0.0000000000,   0.0000000000,   9.6609735872)


Analysis of symmetry for initial positions (statically):
=====================================================================
 Subroutine PRICEL returns:
 Original cell was already a primitive cell.
 

 Routine SETGRP: Setting up the symmetry group for a 
 simple cubic supercell.


 Subroutine GETGRP returns: Found  1 space group operations
 (whereof  1 operations were pure point group operations)
 out of a pool of 48 trial point group operations.


The static configuration has the point symmetry C_1 .


Analysis of symmetry for dynamics (positions and initial velocities):
=====================================================================
 Subroutine PRICEL returns:
 Original cell was already a primitive cell.
 

 Routine SETGRP: Setting up the symmetry group for a 
 simple cubic supercell.


 Subroutine GETGRP returns: Found  1 space group operations
 (whereof  1 operations were pure point group operations)
 out of a pool of 48 trial point group operations.


The dynamic configuration has the point symmetry C_1 .


Analysis of structural, dynamic, and magnetic symmetry:
=====================================================================
 Subroutine PRICEL returns:
 Original cell was already a primitive cell.
 

 Routine SETGRP: Setting up the symmetry group for a 
 simple cubic supercell.


 Subroutine GETGRP returns: Found  1 space group operations
 (whereof  1 operations were pure point group operations)
 out of a pool of 48 trial point group operations.


The overall configuration has the point symmetry C_1 .


 Subroutine INISYM returns: Found  1 space group operations
 (whereof  1 operations are pure point group operations),
 and found     1 'primitive' translations


----------------------------------------------------------------------------------------

                                     Primitive cell                                     

  volume of cell :     901.7013

  direct lattice vectors                    reciprocal lattice vectors
     9.660973587  0.000000000  0.000000000     0.103509237  0.000000000  0.000000000
     0.000000000  9.660973587  0.000000000     0.000000000  0.103509237  0.000000000
     0.000000000  0.000000000  9.660973587     0.000000000  0.000000000  0.103509237

  length of vectors
     9.660973587  9.660973587  9.660973587     0.103509237  0.103509237  0.103509237

  position of ions in fractional coordinates (direct lattice)
     0.960969318  0.185055470  0.152577440
     0.002948108  0.695933730  0.712042452
     0.057562048  0.339061195  0.698034577
     0.022186744  0.838566778  0.217207063
     0.853224838  0.977591885  0.787102185
     0.211646429  0.795294779  0.017846993
     0.691556786  0.295953159  0.005455382
     0.804863190  0.798323401  0.989956068
     0.313903594  0.988473680  0.277740015
     0.197710710  0.045748690  0.823336856
     0.554069023  0.847528877  0.648520102
     0.669678987  0.039811470  0.322229394
     0.296486671  0.799989044  0.485060931
     0.282234313  0.211882380  0.511738914
     0.807162124  0.697686057  0.516823718
     0.817608595  0.327881256  0.454088646
     0.305383407  0.372914720  0.942932509
     0.150169051  0.545875371  0.324950777
     0.714926268  0.492439821  0.210998279
     0.777640969  0.510847956  0.739583082
     0.490399944  0.185818540  0.695006375
     0.458709545  0.679565731  0.191400421
     0.504507891  0.288945989  0.227914284
     0.536575224  0.661249037  0.849466698
     0.497052032  0.510832131  0.507165437
     0.509805960  0.999513671  0.992515082
     0.016303204  0.498515303  0.012312004
     0.998036567  0.016151604  0.498500396
     0.118116211  0.896700576  0.628428661
     0.113456801  0.122486312  0.356274716
     0.860744378  0.895260522  0.389563872
     0.890092420  0.152766338  0.618480664
     0.899421012  0.628180150  0.135605365
     0.895942389  0.368574310  0.892413869
     0.148965833  0.600068395  0.882471292
     0.131152984  0.374671623  0.137988405
     0.646400594  0.102132796  0.865904814
     0.613974416  0.877084371  0.131031955
     0.375474482  0.132700875  0.088517396
     0.392490694  0.873936681  0.865135133
     0.614721957  0.638556920  0.382358565
     0.624964952  0.375988925  0.610178112
     0.392459375  0.635104961  0.642593114
     0.360293602  0.407338872  0.382398442
     0.759236784  0.747771594  0.755232561
     0.740719226  0.255984147  0.238188814
     0.244185365  0.761106768  0.254085246
     0.270763532  0.252966649  0.740950371
     0.005828470  0.970555698  0.996313762
     0.979704233  0.519077467  0.527036099
     0.471055698  0.015581184  0.483551046
     0.524407129  0.492452506  0.025654594

  ion indices of the primitive-cell ions
   primitive index   ion index
                 1           1
                 2           2
                 3           3
                 4           4
                 5           5
                 6           6
                 7           7
                 8           8
                 9           9
                10          10
                11          11
                12          12
                13          13
                14          14
                15          15
                16          16
                17          17
                18          18
                19          19
                20          20
                21          21
                22          22
                23          23
                24          24
                25          25
                26          26
                27          27
                28          28
                29          29
                30          30
                31          31
                32          32
                33          33
                34          34
                35          35
                36          36
                37          37
                38          38
                39          39
                40          40
                41          41
                42          42
                43          43
                44          44
                45          45
                46          46
                47          47
                48          48
                49          49
                50          50
                51          51
                52          52

----------------------------------------------------------------------------------------

 
 
 KPOINTS: Automatic mesh                          

Automatic generation of k-mesh.
 Grid dimensions read from file:
 generate k-points for:    2    2    2

 Generating k-lattice:

  Cartesian coordinates                     Fractional coordinates (reciprocal lattice)
     0.051754618  0.000000000  0.000000000     0.500000000  0.000000000  0.000000000
     0.000000000  0.051754618  0.000000000     0.000000000  0.500000000  0.000000000
     0.000000000  0.000000000  0.051754618     0.000000000  0.000000000  0.500000000

  Length of vectors
     0.051754618  0.051754618  0.051754618

  Shift w.r.t. Gamma in fractional coordinates (k-lattice)
     0.500000000  0.500000000  0.500000000

 
 Subroutine IBZKPT returns following result:
 ===========================================
 
 Found      4 irreducible k-points:
 
 Following reciprocal coordinates:
            Coordinates               Weight
  0.250000  0.250000  0.250000      2.000000
 -0.250000  0.250000  0.250000      2.000000
 -0.250000 -0.250000  0.250000      2.000000
  0.250000 -0.250000  0.250000      2.000000
 
 Following cartesian coordinates:
            Coordinates               Weight
  0.025877  0.025877  0.025877      2.000000
 -0.025877  0.025877  0.025877      2.000000
 -0.025877 -0.025877  0.025877      2.000000
  0.025877 -0.025877  0.025877      2.000000
 


--------------------------------------------------------------------------------------------------------




 Dimension of arrays:
   k-points           NKPTS =      4   k-points in BZ     NKDIM =      4   number of bands    NBANDS=    176
   number of dos      NEDOS =    301   number of ions     NIONS =     52
   non local maximal  LDIM  =      6   non local SUM 2l+1 LMDIM =     18
   total plane-waves  NPLWV = 373248
   max r-space proj   IRMAX =   5775   max aug-charges    IRDMAX=  17668
   dimension x,y,z NGX =    72 NGY =   72 NGZ =   72
   dimension x,y,z NGXF=   144 NGYF=  144 NGZF=  144
   support grid    NGXF=   144 NGYF=  144 NGZF=  144
   ions per type =              24   4  20   4
   NGX,Y,Z   is equivalent  to a cutoff of  12.39, 12.39, 12.39 a.u.
   NGXF,Y,Z  is equivalent  to a cutoff of  24.78, 24.78, 24.78 a.u.

 SYSTEM =  unknown system                          
 POSCAR =  Li24 P4 S20 Cl4                         

 Startparameter for this run:
   NWRITE =      2    write-flag & timer
   PREC   = accu      normal or accurate (medium, high low for compatibility)
   ISTART =      0    job   : 0-new  1-cont  2-samecut
   ICHARG =      2    charge: 1-file 2-atom 10-const
   ISPIN  =      2    spin polarized calculation?
   LNONCOLLINEAR =      F non collinear calculations
   LSORBIT =      F    spin-orbit coupling
   INIWAV =      1    electr: 0-lowe 1-rand  2-diag
   LASPH  =      T    aspherical Exc in radial PAW
 Electronic Relaxation 1
   ENCUT  =  520.0 eV  38.22 Ry    6.18 a.u.  17.96 17.96 17.96*2*pi/ulx,y,z
   ENINI  =  520.0     initial cutoff
   ENAUG  = 1041.7 eV  augmentation charge cutoff
   NELM   =    100;   NELMIN=  2; NELMDL=-10     # of ELM steps 
   EDIFF  = 0.1E-05   stopping-criterion for ELM
   LREAL  =      T    real-space projection
   NLSPLINE    = F    spline interpolate recip. space projectors
   LCOMPAT=      F    compatible to vasp.4.4
   GGA_COMPAT  = T    GGA compatible to vasp.4.4-vasp.4.6
   LMAXPAW     = -100 max onsite density
   LMAXMIX     =    4 max onsite mixed and CHGCAR
   VOSKOWN=      0    Vosko Wilk Nusair interpolation
   ROPT   =   -0.00025  -0.00025  -0.00025  -0.00025
 Ionic relaxation
   EDIFFG = -.1E-02   stopping-criterion for IOM
   NSW    =   1000    number of steps for IOM
   NBLOCK =      1;   KBLOCK =   1000    inner block; outer block 
   IBRION =      2    ionic relax: 0-MD 1-quasi-New 2-CG
   NFREE  =      1    steps in history (QN), initial steepest desc. (CG)
   ISIF   =      2    stress and relaxation
   IWAVPR =     11    prediction:  0-non 1-charg 2-wave 3-comb
   ISYM   =      2    0-nonsym 1-usesym 2-fastsym
   LCORR  =      T    Harris-Foulkes like correction to forces

   POTIM  = 0.2000    time-step for ionic-motion
   TEIN   =    0.0    initial temperature
   TEBEG  =    0.0;   TEEND  =   0.0 temperature during run
   SMASS  =  -3.00    Nose mass-parameter (am)
   estimated Nose-frequenzy (Omega)   =  0.10E-29 period in steps = 0.31E+47 mass=  -0.213E-26a.u.
   SCALEE = 1.0000    scale energy and forces
   NPACO  =    256;   APACO  = 10.0  distance and # of slots for P.C.
   PSTRESS=    0.0 pullay stress

  Mass of Ions in am
   POMASS =   7.01 30.97 32.07 35.45
  Ionic Valenz
   ZVAL   =   3.00  5.00  6.00  7.00
  Atomic Wigner-Seitz radii
   RWIGS  =  -1.00 -1.00 -1.00 -1.00
  virtual crystal weights 
   VCA    =   1.00  1.00  1.00  1.00
   NELECT =     240.0000    total number of electrons
   NUPDOWN=      -1.0000    fix difference up-down

 DOS related values:
   EMIN   =  10.00;   EMAX   =-10.00  energy-range for DOS
   EFERMI =   0.00;   METHOD = LEGACY      
   ISMEAR =     0;   SIGMA  =   0.03  broadening in eV -4-tet -1-fermi 0-gaus

 Electronic relaxation 2 (details)
   IALGO  =     68    algorithm
   LDIAG  =      T    sub-space diagonalisation (order eigenvalues)
   LSUBROT=      F    optimize rotation matrix (better conditioning)
   TURBO    =      0    0=normal 1=particle mesh
   IRESTART =      0    0=no restart 2=restart with 2 vectors
   NREBOOT  =      0    no. of reboots
   NMIN     =      0    reboot dimension
   EREF     =   0.00    reference energy to select bands
   IMIX   =      4    mixing-type and parameters
     AMIX     =   0.40;   BMIX     =  1.00
     AMIX_MAG =   1.60;   BMIX_MAG =  1.00
     AMIN     =   0.10
     WC   =   100.;   INIMIX=   1;  MIXPRE=   1;  MAXMIX= -45

 Intra band minimization:
   WEIMIN = 0.0010     energy-eigenvalue tresh-hold
   EBREAK =  0.14E-08  absolut break condition
   DEPER  =   0.30     relativ break condition  

   TIME   =   0.40     timestep for ELM

  volume/ion in A,a.u.               =      17.34       117.02
  Fermi-wavevector in a.u.,A,eV,Ry     =   1.053071  1.990016 15.088299  1.108959
  Thomas-Fermi vector in A             =   2.188178
 
 Write flags
   LWAVE        =      F    write WAVECAR
   LDOWNSAMPLE  =      F    k-point downsampling of WAVECAR
   LCHARG       =      F    write CHGCAR
   LVTOT        =      F    write LOCPOT, total local potential
   LVHAR        =      F    write LOCPOT, Hartree potential only
   LELF         =      F    write electronic localiz. function (ELF)
   LORBIT       =      0    0 simple, 1 ext, 2 COOP (PROOUT), +10 PAW based schemes


 Dipole corrections
   LMONO  =      F    monopole corrections only (constant potential shift)
   LDIPOL =      F    correct potential (dipole corrections)
   IDIPOL =      0    1-x, 2-y, 3-z, 4-all directions 
   EPSILON=  1.0000000 bulk dielectric constant

 Exchange correlation treatment:
   GGA     =    PE    GGA type
   LEXCH   =     8    internal setting for exchange type
   LIBXC   =     F    Libxc                    
   VOSKOWN =     0    Vosko Wilk Nusair interpolation
   LHFCALC =     F    Hartree Fock is set to
   LHFONE  =     F    Hartree Fock one center treatment
   AEXX    =    0.0000 exact exchange contribution

 Linear response parameters
   LEPSILON=     F    determine dielectric tensor
   LRPA    =     F    only Hartree local field effects (RPA)
   LNABLA  =     F    use nabla operator in PAW spheres
   LVEL    =     F    velocity operator in full k-point grid
   CSHIFT  =0.1000    complex shift for real part using Kramers Kronig
   OMEGAMAX=  -1.0    maximum frequency
   DEG_THRESHOLD= 0.2000000E-02 threshold for treating states as degnerate
   RTIME   =   -0.100 relaxation time in fs
  (WPLASMAI=    0.000 imaginary part of plasma frequency in eV, 0.658/RTIME)
   DFIELD  = 0.0000000 0.0000000 0.0000000 field for delta impulse in time
 
  Optional k-point grid parameters
   LKPOINTS_OPT  =     F    use optional k-point grid
   KPOINTS_OPT_MODE=     1    mode for optional k-point grid
 
 Orbital magnetization related:
   ORBITALMAG=     F  switch on orbital magnetization
   LCHIMAG   =     F  perturbation theory with respect to B field
   DQ        =  0.001000  dq finite difference perturbation B field
   LLRAUG    =     F  two centre corrections for induced B field
   LBONE     =     F  B-component reconstruction in AE one-centre
   LVGVCALC  =     T  calculate vGv susceptibility
   LVGVAPPL  =     F  apply vGv susceptibility instead of pGv for G=0

 Random number generation:
   RANDOM_GENERATOR = DEFAULT
   PCG_SEED         = not used


--------------------------------------------------------------------------------------------------------


 conjugate gradient relaxation of ions
 charge density and potential will be updated during run
 spin polarized calculation
 RMM-DIIS sequential band-by-band and
  variant of blocked Davidson during initial phase
 perform sub-space diagonalisation
    before iterative eigenvector-optimisation
 modified Broyden-mixing scheme, WC =      100.0
 initial mixing is a Kerker type mixing with AMIX =  0.4000 and BMIX =      1.0000
 Hartree-type preconditioning will be used
 using additional bands           56
 real space projection scheme for non local part
 use partial core corrections
 calculate Harris-corrections to forces 
   (improved forces if not selfconsistent)
 use gradient corrections 
 use of overlap-Matrix (Vanderbilt PP)
 Gauss-broadening in eV      SIGMA  =   0.03


--------------------------------------------------------------------------------------------------------


  energy-cutoff  :      520.00
  volume of cell :      901.70
      direct lattice vectors                 reciprocal lattice vectors
     9.660973587  0.000000000  0.000000000     0.103509237  0.000000000  0.000000000
     0.000000000  9.660973587  0.000000000     0.000000000  0.103509237  0.000000000
     0.000000000  0.000000000  9.660973587     0.000000000  0.000000000  0.103509237

  length of vectors
     9.660973587  9.660973587  9.660973587     0.103509237  0.103509237  0.103509237


 
 k-points in units of 2pi/SCALE and weight: Automatic mesh                          
   0.02587731  0.02587731  0.02587731       0.250
  -0.02587731  0.02587731  0.02587731       0.250
  -0.02587731 -0.02587731  0.02587731       0.250
   0.02587731 -0.02587731  0.02587731       0.250
 
 k-points in reciprocal lattice and weights: Automatic mesh                          
   0.25000000  0.25000000  0.25000000       0.250
  -0.25000000  0.25000000  0.25000000       0.250
  -0.25000000 -0.25000000  0.25000000       0.250
   0.25000000 -0.25000000  0.25000000       0.250
 
 position of ions in fractional coordinates (direct lattice) 
   0.96096932  0.18505547  0.15257744
   0.00294811  0.69593373  0.71204245
   0.05756205  0.33906119  0.69803458
   0.02218674  0.83856678  0.21720706
   0.85322484  0.97759188  0.78710218
   0.21164643  0.79529478  0.01784699
   0.69155679  0.29595316  0.00545538
   0.80486319  0.79832340  0.98995607
   0.31390359  0.98847368  0.27774002
   0.19771071  0.04574869  0.82333686
   0.55406902  0.84752888  0.64852010
   0.66967899  0.03981147  0.32222939
   0.29648667  0.79998904  0.48506093
   0.28223431  0.21188238  0.51173891
   0.80716212  0.69768606  0.51682372
   0.81760860  0.32788126  0.45408865
   0.30538341  0.37291472  0.94293251
   0.15016905  0.54587537  0.32495078
   0.71492627  0.49243982  0.21099828
   0.77764097  0.51084796  0.73958308
   0.49039994  0.18581854  0.69500637
   0.45870954  0.67956573  0.19140042
   0.50450789  0.28894599  0.22791428
   0.53657522  0.66124904  0.84946670
   0.49705203  0.51083213  0.50716544
   0.50980596  0.99951367  0.99251508
   0.01630320  0.49851530  0.01231200
   0.99803657  0.01615160  0.49850040
   0.11811621  0.89670058  0.62842866
   0.11345680  0.12248631  0.35627472
   0.86074438  0.89526052  0.38956387
   0.89009242  0.15276634  0.61848066
   0.89942101  0.62818015  0.13560537
   0.89594239  0.36857431  0.89241387
   0.14896583  0.60006840  0.88247129
   0.13115298  0.37467162  0.13798841
   0.64640059  0.10213280  0.86590481
   0.61397442  0.87708437  0.13103196
   0.37547448  0.13270087  0.08851740
   0.39249069  0.87393668  0.86513513
   0.61472196  0.63855692  0.38235856
   0.62496495  0.37598892  0.61017811
   0.39245937  0.63510496  0.64259311
   0.36029360  0.40733887  0.38239844
   0.75923678  0.74777159  0.75523256
   0.74071923  0.25598415  0.23818881
   0.24418537  0.76110677  0.25408525
   0.27076353  0.25296665  0.74095037
   0.00582847  0.97055570  0.99631376
   0.97970423  0.51907747  0.52703610
   0.47105570  0.01558118  0.48355105
   0.52440713  0.49245251  0.02565459
 
 position of ions in cartesian coordinates  (Angst):
   9.28389920  1.78781601  1.47404662
   0.02848160  6.72339739  6.87902332
   0.55610543  3.27566125  6.74369361
   0.21434555  8.10137150  2.09843170
   8.24298262  9.44448938  7.60417342
   2.04471056  7.68332185  0.17241932
   6.68111184  2.85919565  0.05270430
   7.77576202  7.71258130  9.56393942
   3.03261433  9.54961812  2.68323895
   1.91007795  0.44197689  7.95423562
   5.35284620  8.18795409  6.26533558
   6.46975100  0.38461756  3.11304966
   2.86434990  7.72867302  4.68616084
   2.72665824  2.04699007  4.94389613
   7.79797196  6.74032657  4.99302028
   7.89889504  3.16765216  4.38693842
   2.95030103  3.60271926  9.10964607
   1.45077923  5.27368754  3.13934088
   6.90688379  4.75744811  2.03844880
   7.51276887  4.93528861  7.14509263
   4.73774091  1.79518801  6.71443823
   4.43158079  6.56526657  1.84911441
   4.87403741  2.79149957  2.20187388
   5.18383907  6.38830948  8.20667533
   4.80200656  4.93513573  4.89971189
   4.92522191  9.65627518  9.58866199
   0.15750483  4.81614317  0.11894595
   9.64200491  0.15604022  4.81599916
   1.14111760  8.66300058  6.07123270
   1.09610316  1.18333703  3.44196062
   8.31562871  8.64908826  3.76356628
   8.59915936  1.47587156  5.97512536
   8.68928264  6.06883184  1.31007985
   8.65567576  3.56078667  8.62158681
   1.43915498  5.79724492  8.52553184
   1.26706552  3.61969266  1.33310234
   6.24485906  0.98670224  8.36548354
   5.93159061  8.47348895  1.26589626
   3.62744906  1.28201964  0.85516422
   3.79184223  8.44307919  8.35804767
   5.93881259  6.16908154  3.69395599
   6.03776990  3.63241907  5.89491463
   3.79153965  6.13573226  6.20807511
   3.48078697  3.93529008  3.69434125
   7.33496651  7.22420162  7.29628183
   7.15606888  2.47305608  2.30113584
   2.35906836  7.35303238  2.45471085
   2.61583933  2.44390411  7.15830196
   0.05630869  9.37651297  9.62536093
   9.46489672  5.01479370  5.09168183
   4.55085666  0.15052941  4.67157389
   5.06628342  4.75757066  0.24784836
 


--------------------------------------------------------------------------------------------------------


 k-point   1 :   0.2500 0.2500 0.2500  plane waves:   24252
 k-point   2 :  -0.2500 0.2500 0.2500  plane waves:   24252
 k-point   3 :  -0.2500-0.2500 0.2500  plane waves:   24252
 k-point   4 :   0.2500-0.2500 0.2500  plane waves:   24252

 maximum and minimum number of plane-waves per node :       778      744

 maximum number of plane-waves:     24252
 maximum index in each direction: 
   IXMAX=   18   IYMAX=   18   IZMAX=   17
   IXMIN=  -18   IYMIN=  -18   IZMIN=  -18


 real space projection operators:
  total allocation   :      28356.50 KBytes
  max/ min on nodes  :       1212.89        743.92


 parallel 3D FFT for wavefunctions:
    minimum data exchange during FFTs selected (reduces bandwidth)
 parallel 3D FFT for charge:
    minimum data exchange during FFTs selected (reduces bandwidth)


 total amount of memory used by VASP MPI-rank0    48216. kBytes
=======================================================================

   base      :      30000. kBytes
   nonlr-proj:       6556. kBytes
   fftplans  :       1747. kBytes
   grid      :       5278. kBytes
   one-center:         62. kBytes
   wavefun   :       4573. kBytes
 
     INWAV:  cpu time      0.0000: real time      0.0000
 Broyden mixing: mesh for mixing (old mesh)
   NGX = 35   NGY = 35   NGZ = 35
  (NGX  =144   NGY  =144   NGZ  =144)
  gives a total of  42875 points

 initial charge density was supplied:
 charge density of overlapping atoms calculated
 number of electron     240.0000000 magnetization      52.0000000
 keeping initial charge density in first step


--------------------------------------------------------------------------------------------------------


 Maximum index for non-local projection operator          593
 Maximum index for augmentation-charges         1028 (set IRDMAX)


--------------------------------------------------------------------------------------------------------


 First call to EWALD:  gamma=   0.183
 Maximum number of real-space cells 3x 3x 3
 Maximum number of reciprocal cells 3x 3x 3

    FEWALD:  cpu time      0.0031: real time      0.0034


--------------------------------------- Ionic step        1  -------------------------------------------




--------------------------------------- Iteration      1(   1)  ---------------------------------------


    POTLOK:  cpu time      0.0581: real time      0.0669
    SETDIJ:  cpu time      0.4053: real time      0.4966
     EDDAV:  cpu time      2.2120: real time      2.3085
       DOS:  cpu time      0.0024: real time      0.0037
    --------------------------------------------
      LOOP:  cpu time      2.6777: real time      2.8757

 eigenvalue-minimisations  :  3096
 total energy-change (2. order) : 0.1582192E+04  (-0.1138260E+05)
 number of electron     240.0000000 magnetization      52.0000000
 augmentation part      240.0000000 magnetization      52.0000000

 Free energy of the ion-electron system (eV)
  ---------------------------------------------------
  alpha Z        PSCENC =       301.05037098
  Ewald energy   TEWEN  =     -8817.79826410
  -Hartree energ DENC   =     -2110.14537925
  -exchange      EXHF   =         0.00000000
  -V(xc)+E(xc)   XCENC  =       534.26728552
  PAW double counting   =      8141.38806575    -8271.61346273
  entropy T*S    EENTRO =        -0.00546162
  eigenvalues    EBANDS =      -898.09074654
  atomic energy  EATOM  =     12703.13999606
  Solvation  Ediel_sol  =         0.00000000
  ---------------------------------------------------
  free energy    TOTEN  =      1582.19240407 eV

  energy without entropy =     1582.19786569  energy(sigma->0) =     1582.19513488


--------------------------------------------------------------------------------------------------------




--------------------------------------- Iteration      1(   2)  ---------------------------------------


     EDDAV:  cpu time      2.6005: real time      2.6438
       DOS:  cpu time      0.0005: real time      0.0005
    --------------------------------------------
      LOOP:  cpu time      2.6010: real time      2.6442

 eigenvalue-minimisations  :  3840
 total energy-change (2. order) :-0.1639172E+04  (-0.1540412E+04)
 number of electron     240.0000000 magnetization      52.0000000
 augmentation part      240.0000000 magnetization      52.0000000

 Free energy of the ion-electron system (eV)
  ---------------------------------------------------
  alpha Z        PSCENC =       301.05037098
  Ewald energy   TEWEN  =     -8817.79826410
  -Hartree energ DENC   =     -2110.14537925
  -exchange      EXHF   =         0.00000000
  -V(xc)+E(xc)   XCENC  =       534.26728552
  PAW double counting   =      8141.38806575    -8271.61346273
  entropy T*S    EENTRO =        -0.00000000
  eigenvalues    EBANDS =     -2537.26822063
  atomic energy  EATOM  =     12703.13999606
  Solvation  Ediel_sol  =         0.00000000
  ---------------------------------------------------
  free energy    TOTEN  =       -56.97960839 eV

  energy without entropy =      -56.97960839  energy(sigma->0) =      -56.97960839


--------------------------------------------------------------------------------------------------------




--------------------------------------- Iteration      1(   3)  ---------------------------------------


     EDDAV:  cpu time      2.5462: real time      2.5889
       DOS:  cpu time      0.0004: real time      0.0004
    --------------------------------------------
      LOOP:  cpu time      2.5466: real time      2.5893

 eigenvalue-minimisations  :  3736
 total energy-change (2. order) :-0.1713860E+03  (-0.1693824E+03)
 number of electron     240.0000000 magnetization      52.0000000
 augmentation part      240.0000000 magnetization      52.0000000

 Free energy of the ion-electron system (eV)
  ---------------------------------------------------
  alpha Z        PSCENC =       301.05037098
  Ewald energy   TEWEN  =     -8817.79826410
  -Hartree energ DENC   =     -2110.14537925
  -exchange      EXHF   =         0.00000000
  -V(xc)+E(xc)   XCENC  =       534.26728552
  PAW double counting   =      8141.38806575    -8271.61346273
  entropy T*S    EENTRO =        -0.00000000
  eigenvalues    EBANDS =     -2708.65417651
  atomic energy  EATOM  =     12703.13999606
  Solvation  Ediel_sol  =         0.00000000
  ---------------------------------------------------
  free energy    TOTEN  =      -228.36556427 eV

  energy without entropy =     -228.36556427  energy(sigma->0) =     -228.36556427


--------------------------------------------------------------------------------------------------------




--------------------------------------- Iteration      1(   4)  ---------------------------------------


     EDDAV:  cpu time      3.1095: real time      3.1441
       DOS:  cpu time      0.0004: real time      0.0004
    --------------------------------------------
      LOOP:  cpu time      3.1099: real time      3.1446

 eigenvalue-minimisations  :  4728
 total energy-change (2. order) :-0.1335770E+02  (-0.1333226E+02)
 number of electron     240.0000000 magnetization      52.0000000
 augmentation part      240.0000000 magnetization      52.0000000

 Free energy of the ion-electron system (eV)
  ---------------------------------------------------
  alpha Z        PSCENC =       301.05037098
  Ewald energy   TEWEN  =     -8817.79826410
  -Hartree energ DENC   =     -2110.14537925
  -exchange      EXHF   =         0.00000000
  -V(xc)+E(xc)   XCENC  =       534.26728552
  PAW double counting   =      8141.38806575    -8271.61346273
  entropy T*S    EENTRO =        -0.00000000
  eigenvalues    EBANDS =     -2722.01187920
  atomic energy  EATOM  =     12703.13999606
  Solvation  Ediel_sol  =         0.00000000
  ---------------------------------------------------
  free energy    TOTEN  =      -241.72326696 eV

  energy without entropy =     -241.72326696  energy(sigma->0) =     -241.72326696


--------------------------------------------------------------------------------------------------------




--------------------------------------- Iteration      1(   5)  ---------------------------------------


     EDDAV:  cpu time      2.9286: real time      2.9555
       DOS:  cpu time      0.0004: real time      0.0004
    --------------------------------------------
      LOOP:  cpu time      2.9290: real time      2.9558

 eigenvalue-minimisations  :  4416
 total energy-change (2. order) :-0.2580560E+00  (-0.2579403E+00)
 number of electron     240.0000000 magnetization      52.0000000
 augmentation part      240.0000000 magnetization      52.0000000

 Free energy of the ion-electron system (eV)
  ---------------------------------------------------
  alpha Z        PSCENC =       301.05037098
  Ewald energy   TEWEN  =     -8817.79826410
  -Hartree energ DENC   =     -2110.14537925
  -exchange      EXHF   =         0.00000000
  -V(xc)+E(xc)   XCENC  =       534.26728552
  PAW double counting   =      8141.38806575    -8271.61346273
  entropy T*S    EENTRO =        -0.00000000
  eigenvalues    EBANDS =     -2722.26993516
  atomic energy  EATOM  =     12703.13999606
  Solvation  Ediel_sol  =         0.00000000
  ---------------------------------------------------
  free energy    TOTEN  =      -241.98132293 eV

  energy without entropy =     -241.98132293  energy(sigma->0) =     -241.98132293


--------------------------------------------------------------------------------------------------------




--------------------------------------- Iteration      1(   6)  ---------------------------------------


     EDDAV:  cpu time      3.0661: real time      3.0929
       DOS:  cpu time      0.0004: real time      0.0004
    --------------------------------------------
      LOOP:  cpu time      3.0665: real time      3.0933

 eigenvalue-minimisations  :  4664
 total energy-change (2. order) :-0.1217771E-01  (-0.1217643E-01)
 number of electron     240.0000000 magnetization      52.0000000
 augmentation part      240.0000000 magnetization      52.0000000

 Free energy of the ion-electron system (eV)
  ---------------------------------------------------
  alpha Z        PSCENC =       301.05037098
  Ewald energy   TEWEN  =     -8817.79826410
  -Hartree energ DENC   =     -2110.14537925
  -exchange      EXHF   =         0.00000000
  -V(xc)+E(xc)   XCENC  =       534.26728552
  PAW double counting   =      8141.38806575    -8271.61346273
  entropy T*S    EENTRO =        -0.00000000
  eigenvalues    EBANDS =     -2722.28211287
  atomic energy  EATOM  =     12703.13999606
  Solvation  Ediel_sol  =         0.00000000
  ---------------------------------------------------
  free energy    TOTEN  =      -241.99350063 eV

  energy without entropy =     -241.99350063  energy(sigma->0) =     -241.99350063


--------------------------------------------------------------------------------------------------------




--------------------------------------- Iteration      1(   7)  ---------------------------------------


     EDDAV:  cpu time      2.9832: real time      3.0172
       DOS:  cpu time      0.0004: real time      0.0004
    --------------------------------------------
      LOOP:  cpu time      2.9836: real time      3.0176

 eigenvalue-minimisations  :  4520
 total energy-change (2. order) :-0.3872318E-03  (-0.3872061E-03)
 number of electron     240.0000000 magnetization      52.0000000
 augmentation part      240.0000000 magnetization      52.0000000

 Free energy of the ion-electron system (eV)
  ---------------------------------------------------
  alpha Z        PSCENC =       301.05037098
  Ewald energy   TEWEN  =     -8817.79826410
  -Hartree energ DENC   =     -2110.14537925
  -exchange      EXHF   =         0.00000000
  -V(xc)+E(xc)   XCENC  =       534.26728552
  PAW double counting   =      8141.38806575    -8271.61346273
  entropy T*S    EENTRO =        -0.00000000
  eigenvalues    EBANDS =     -2722.28250010
  atomic energy  EATOM  =     12703.13999606
  Solvation  Ediel_sol  =         0.00000000
  ---------------------------------------------------
  free energy    TOTEN  =      -241.99388787 eV

  energy without entropy =     -241.99388787  energy(sigma->0) =     -241.99388787


--------------------------------------------------------------------------------------------------------




--------------------------------------- Iteration      1(   8)  ---------------------------------------


     EDDAV:  cpu time      3.0275: real time      3.0662
       DOS:  cpu time      0.0004: real time      0.0004
    --------------------------------------------
      LOOP:  cpu time      3.0279: real time      3.0666

 eigenvalue-minimisations  :  4592
 total energy-change (2. order) :-0.2221655E-04  (-0.2221650E-04)
 number of electron     240.0000000 magnetization      52.0000000
 augmentation part      240.0000000 magnetization      52.0000000

 Free energy of the ion-electron system (eV)
  ---------------------------------------------------
  alpha Z        PSCENC =       301.05037098
  Ewald energy   TEWEN  =     -8817.79826410
  -Hartree energ DENC   =     -2110.14537925
  -exchange      EXHF   =         0.00000000
  -V(xc)+E(xc)   XCENC  =       534.26728552
  PAW double counting   =      8141.38806575    -8271.61346273
  entropy T*S    EENTRO =        -0.00000000
  eigenvalues    EBANDS =     -2722.28252232
  atomic energy  EATOM  =     12703.13999606
  Solvation  Ediel_sol  =         0.00000000
  ---------------------------------------------------
  free energy    TOTEN  =      -241.99391008 eV

  energy without entropy =     -241.99391008  energy(sigma->0) =     -241.99391008


--------------------------------------------------------------------------------------------------------




--------------------------------------- Iteration      1(   9)  ---------------------------------------


     EDDAV:  cpu time      2.9364: real time      2.9595
       DOS:  cpu time      0.0004: real time      0.0004
    --------------------------------------------
      LOOP:  cpu time      2.9368: real time      2.9598

 eigenvalue-minimisations  :  4432
 total energy-change (2. order) :-0.1419050E-05  (-0.1418980E-05)
 number of electron     240.0000000 magnetization      52.0000000
 augmentation part      240.0000000 magnetization      52.0000000

 Free energy of the ion-electron system (eV)
  ---------------------------------------------------
  alpha Z        PSCENC =       301.05037098
  Ewald energy   TEWEN  =     -8817.79826410
  -Hartree energ DENC   =     -2110.14537925
  -exchange      EXHF   =         0.00000000
  -V(xc)+E(xc)   XCENC  =       534.26728552
  PAW double counting   =      8141.38806575    -8271.61346273
  entropy T*S    EENTRO =        -0.00000000
  eigenvalues    EBANDS =     -2722.28252374
  atomic energy  EATOM  =     12703.13999606
  Solvation  Ediel_sol  =         0.00000000
  ---------------------------------------------------
  free energy    TOTEN  =      -241.99391150 eV

  energy without entropy =     -241.99391150  energy(sigma->0) =     -241.99391150


--------------------------------------------------------------------------------------------------------




--------------------------------------- Iteration      1(  10)  ---------------------------------------


     EDDAV:  cpu time      1.9900: real time      2.0069
       DOS:  cpu time      0.0004: real time      0.0004
    CHARGE:  cpu time      0.0668: real time      0.0744
    MIXING:  cpu time      0.0020: real time      0.0037
    --------------------------------------------
      LOOP:  cpu time      2.0593: real time      2.0854

 eigenvalue-minimisations  :  2672
 total energy-change (2. order) :-0.6113260E-07  (-0.6115177E-07)
 number of electron     240.0000020 magnetization      27.2689225
 augmentation part        1.4914842 magnetization      27.7111629

 Broyden mixing:
  rms(total) = 0.64396E+01    rms(broyden)= 0.64391E+01
  rms(prec ) = 0.66861E+01
  weight for this iteration     100.00

 Free energy of the ion-electron system (eV)
  ---------------------------------------------------
  alpha Z        PSCENC =       301.05037098
  Ewald energy   TEWEN  =     -8817.79826410
  -Hartree energ DENC   =     -2110.14537925
  -exchange      EXHF   =         0.00000000
  -V(xc)+E(xc)   XCENC  =       534.26728552
  PAW double counting   =      8141.38806575    -8271.61346273
  entropy T*S    EENTRO =        -0.00000000
  eigenvalues    EBANDS =     -2722.28252380
  atomic energy  EATOM  =     12703.13999606
  Solvation  Ediel_sol  =         0.00000000
  ---------------------------------------------------
  free energy    TOTEN  =      -241.99391156 eV

  energy without entropy =     -241.99391156  energy(sigma->0) =     -241.99391156


--------------------------------------------------------------------------------------------------------




--------------------------------------- Iteration      1(  11)  ---------------------------------------


    POTLOK:  cpu time      0.0536: real time      0.0545
    SETDIJ:  cpu time      0.3957: real time      0.3976
    EDDIAG:  cpu time      0.3659: real time      0.3699
  RMM-DIIS:  cpu time      1.1561: real time      1.1664
    ORTHCH:  cpu time      0.0672: real time      0.0681
       DOS:  cpu time      0.0005: real time      0.0005
    CHARGE:  cpu time      0.0659: real time      0.0684
    MIXING:  cpu time      0.0013: real time      0.0028
    --------------------------------------------
      LOOP:  cpu time      2.1062: real time      2.1282

 eigenvalue-minimisations  :  2816
 total energy-change (2. order) : 0.5946920E+01  (-0.4741846E+01)
 number of electron     240.0000020 magnetization      16.3097928
 augmentation part        1.7002683 magnetization      16.4923715

 Broyden mixing:
  rms(total) = 0.33063E+01    rms(broyden)= 0.33061E+01
  rms(prec ) = 0.34238E+01
  weight for this iteration     100.00

 eigenvalues of (default mixing * dielectric matrix)
  average eigenvalue GAMMA=   0.7258
  0.7258

 Free energy of the ion-electron system (eV)
  ---------------------------------------------------
  alpha Z        PSCENC =       301.05037098
  Ewald energy   TEWEN  =     -8817.79826410
  -Hartree energ DENC   =     -2158.35490996
  -exchange      EXHF   =         0.00000000
  -V(xc)+E(xc)   XCENC  =       542.51302616
  PAW double counting   =      8927.88394537    -9064.16936212
  entropy T*S    EENTRO =        -0.00000000
  eigenvalues    EBANDS =     -2670.31179427
  atomic energy  EATOM  =     12703.13999606
  Solvation  Ediel_sol  =         0.00000000
  ---------------------------------------------------
  free energy    TOTEN  =      -236.04699188 eV

  energy without entropy =     -236.04699188  energy(sigma->0) =     -236.04699188


--------------------------------------------------------------------------------------------------------




--------------------------------------- Iteration      1(  12)  ---------------------------------------


    POTLOK:  cpu time      0.0533: real time      0.0543
    SETDIJ:  cpu time      0.4028: real time      0.4051
    EDDIAG:  cpu time      0.3553: real time      0.3577
  RMM-DIIS:  cpu time      1.2227: real time      1.2330
    ORTHCH:  cpu time      0.0661: real time      0.0679
       DOS:  cpu time      0.0005: real time      0.0005
    CHARGE:  cpu time      0.0659: real time      0.0683
    MIXING:  cpu time      0.0012: real time      0.0012
    --------------------------------------------
      LOOP:  cpu time      2.1679: real time      2.1879

 eigenvalue-minimisations  :  2962
 total energy-change (2. order) :-0.1969738E+02  (-0.2178408E+01)
 number of electron     240.0000020 magnetization       0.5858491
 augmentation part        1.7986117 magnetization       0.9267114

 Broyden mixing:
  rms(total) = 0.20171E+01    rms(broyden)= 0.20170E+01
  rms(prec ) = 0.20788E+01
  weight for this iteration     100.00

 eigenvalues of (default mixing * dielectric matrix)
  average eigenvalue GAMMA=   1.1580
  1.6449  0.6710

 Free energy of the ion-electron system (eV)
  ---------------------------------------------------
  alpha Z        PSCENC =       301.05037098
  Ewald energy   TEWEN  =     -8817.79826410
  -Hartree energ DENC   =     -2182.58068522
  -exchange      EXHF   =         0.00000000
  -V(xc)+E(xc)   XCENC  =       536.19151642
  PAW double counting   =      9281.58471041    -9421.45841869
  entropy T*S    EENTRO =        -0.00000000
  eigenvalues    EBANDS =     -2655.87359861
  atomic energy  EATOM  =     12703.13999606
  Solvation  Ediel_sol  =         0.00000000
  ---------------------------------------------------
  free energy    TOTEN  =      -255.74437274 eV

  energy without entropy =     -255.74437274  energy(sigma->0) =     -255.74437274


--------------------------------------------------------------------------------------------------------




--------------------------------------- Iteration      1(  13)  ---------------------------------------


    POTLOK:  cpu time      0.0530: real time      0.0540
    SETDIJ:  cpu time      0.4026: real time      0.4047
    EDDIAG:  cpu time      0.3550: real time      0.3582
  RMM-DIIS:  cpu time      1.1982: real time      1.2082
    ORTHCH:  cpu time      0.0665: real time      0.0669
       DOS:  cpu time      0.0005: real time      0.0005
    CHARGE:  cpu time      0.0654: real time      0.0675
    MIXING:  cpu time      0.0011: real time      0.0012
    --------------------------------------------
      LOOP:  cpu time      2.1424: real time      2.1612

 eigenvalue-minimisations  :  2885
 total energy-change (2. order) :-0.2495890E+01  (-0.9216692E+00)
 number of electron     240.0000020 magnetization      -1.7717466
 augmentation part        1.8987152 magnetization      -1.6668454

 Broyden mixing:
  rms(total) = 0.66833E+00    rms(broyden)= 0.66833E+00
  rms(prec ) = 0.70212E+00
  weight for this iteration     100.00

 eigenvalues of (default mixing * dielectric matrix)
  average eigenvalue GAMMA=   1.2991
  2.4945  0.7493  0.6537

 Free energy of the ion-electron system (eV)
  ---------------------------------------------------
  alpha Z        PSCENC =       301.05037098
  Ewald energy   TEWEN  =     -8817.79826410
  -Hartree energ DENC   =     -2210.12360211
  -exchange      EXHF   =         0.00000000
  -V(xc)+E(xc)   XCENC  =       537.73009185
  PAW double counting   =      9779.74926427    -9923.54117509
  entropy T*S    EENTRO =        -0.00000000
  eigenvalues    EBANDS =     -2628.44694470
  atomic energy  EATOM  =     12703.13999606
  Solvation  Ediel_sol  =         0.00000000
  ---------------------------------------------------
  free energy    TOTEN  =      -258.24026285 eV

  energy without entropy =     -258.24026285  energy(sigma->0) =     -258.24026285


--------------------------------------------------------------------------------------------------------




--------------------------------------- Iteration      1(  14)  ---------------------------------------


    POTLOK:  cpu time      0.0533: real time      0.0543
    SETDIJ:  cpu time      0.4037: real time      0.4053
    EDDIAG:  cpu time      0.3565: real time      0.3585
  RMM-DIIS:  cpu time      1.5890: real time      1.6123
    ORTHCH:  cpu time      0.2122: real time      0.2282
       DOS:  cpu time      0.0004: real time      0.0004
    CHARGE:  cpu time      0.0664: real time      0.0678
    MIXING:  cpu time      0.0011: real time      0.0011
    --------------------------------------------
      LOOP:  cpu time      2.6826: real time      2.7280

 eigenvalue-minimisations  :  3781
 total energy-change (2. order) :-0.1916310E+00  (-0.1953496E+00)
 number of electron     240.0000020 magnetization      -0.8330026
 augmentation part        1.8685261 magnetization      -0.8047527

 Broyden mixing:
  rms(total) = 0.32413E+00    rms(broyden)= 0.32413E+00
  rms(prec ) = 0.35926E+00
  weight for this iteration     100.00

 eigenvalues of (default mixing * dielectric matrix)
  average eigenvalue GAMMA=   1.2666
  2.6074  1.1766  0.6901  0.5922

 Free energy of the ion-electron system (eV)
  ---------------------------------------------------
  alpha Z        PSCENC =       301.05037098
  Ewald energy   TEWEN  =     -8817.79826410
  -Hartree energ DENC   =     -2211.38071203
  -exchange      EXHF   =         0.00000000
  -V(xc)+E(xc)   XCENC  =       538.15951415
  PAW double counting   =      9854.43225335    -9999.00471384
  entropy T*S    EENTRO =        -0.00000000
  eigenvalues    EBANDS =     -2627.03033846
  atomic energy  EATOM  =     12703.13999606
  Solvation  Ediel_sol  =         0.00000000
  ---------------------------------------------------
  free energy    TOTEN  =      -258.43189390 eV

  energy without entropy =     -258.43189390  energy(sigma->0) =     -258.43189390


--------------------------------------------------------------------------------------------------------




--------------------------------------- Iteration      1(  15)  ---------------------------------------


    POTLOK:  cpu time      0.0529: real time      0.0538
    SETDIJ:  cpu time      0.4043: real time      0.4059
    EDDIAG:  cpu time      0.3540: real time      0.3565
  RMM-DIIS:  cpu time      1.2684: real time      1.2796
    ORTHCH:  cpu time      0.0660: real time      0.0664
       DOS:  cpu time      0.0005: real time      0.0005
    CHARGE:  cpu time      0.0658: real time      0.0673
    MIXING:  cpu time      0.0013: real time      0.0013
    --------------------------------------------
      LOOP:  cpu time      2.2131: real time      2.2313

 eigenvalue-minimisations  :  3059
 total energy-change (2. order) : 0.2899266E-01  (-0.3482187E-01)
 number of electron     240.0000020 magnetization      -0.2452786
 augmentation part        1.8207823 magnetization      -0.2179645

 Broyden mixing:
  rms(total) = 0.70175E-01    rms(broyden)= 0.70172E-01
  rms(prec ) = 0.82482E-01
  weight for this iteration     100.00

 eigenvalues of (default mixing * dielectric matrix)
  average eigenvalue GAMMA=   1.2680
  2.5412  1.5666  0.9471  0.6850  0.6002

 Free energy of the ion-electron system (eV)
  ---------------------------------------------------
  alpha Z        PSCENC =       301.05037098
  Ewald energy   TEWEN  =     -8817.79826410
  -Hartree energ DENC   =     -2206.92079694
  -exchange      EXHF   =         0.00000000
  -V(xc)+E(xc)   XCENC  =       537.82132462
  PAW double counting   =      9827.56821039    -9971.97108252
  entropy T*S    EENTRO =        -0.00000000
  eigenvalues    EBANDS =     -2631.29265974
  atomic energy  EATOM  =     12703.13999606
  Solvation  Ediel_sol  =         0.00000000
  ---------------------------------------------------
  free energy    TOTEN  =      -258.40290123 eV

  energy without entropy =     -258.40290123  energy(sigma->0) =     -258.40290123


--------------------------------------------------------------------------------------------------------




--------------------------------------- Iteration      1(  16)  ---------------------------------------


    POTLOK:  cpu time      0.0536: real time      0.0546
    SETDIJ:  cpu time      0.4051: real time      0.4064
    EDDIAG:  cpu time      0.3578: real time      0.3598
  RMM-DIIS:  cpu time      1.2822: real time      1.2943
    ORTHCH:  cpu time      0.0664: real time      0.0676
       DOS:  cpu time      0.0005: real time      0.0005
    CHARGE:  cpu time      0.0655: real time      0.0667
    MIXING:  cpu time      0.0012: real time      0.0012
    --------------------------------------------
      LOOP:  cpu time      2.2324: real time      2.2511

 eigenvalue-minimisations  :  3106
 total energy-change (2. order) :-0.2016585E-01  (-0.1129292E-01)
 number of electron     240.0000020 magnetization      -0.1234802
 augmentation part        1.7986285 magnetization      -0.1086365

 Broyden mixing:
  rms(total) = 0.32135E-01    rms(broyden)= 0.32133E-01
  rms(prec ) = 0.38976E-01
  weight for this iteration     100.00

 eigenvalues of (default mixing * dielectric matrix)
  average eigenvalue GAMMA=   1.2437
  2.4644  1.9088  1.0375  0.6199  0.7016  0.7299

 Free energy of the ion-electron system (eV)
  ---------------------------------------------------
  alpha Z        PSCENC =       301.05037098
  Ewald energy   TEWEN  =     -8817.79826410
  -Hartree energ DENC   =     -2206.41930463
  -exchange      EXHF   =         0.00000000
  -V(xc)+E(xc)   XCENC  =       537.74696425
  PAW double counting   =      9817.06045910    -9961.24883016
  entropy T*S    EENTRO =        -0.00000000
  eigenvalues    EBANDS =     -2631.95445858
  atomic energy  EATOM  =     12703.13999606
[...]
  0.510  -0.524  -0.002   0.395   0.007  -0.008   0.003   0.000  -0.000   0.004  -0.001  -0.004  -0.002   0.001
  0.508  -0.522  -0.001   0.007   0.331  -0.048   0.000   0.003  -0.000  -0.002  -0.002   0.002   0.002   0.004
 -0.219   0.225   0.001  -0.008  -0.048   0.620  -0.000  -0.000   0.005   0.007  -0.002   0.002   0.006  -0.005
  0.004  -0.004  -0.000   0.003   0.000  -0.000   0.000   0.000  -0.000   0.000  -0.000  -0.000  -0.000   0.000
  0.004  -0.004  -0.000   0.000   0.003  -0.000   0.000   0.000  -0.000  -0.000  -0.000   0.000   0.000   0.000
 -0.001   0.001   0.000  -0.000  -0.000   0.005  -0.000  -0.000   0.000   0.000  -0.000   0.000   0.000  -0.000
 -0.002   0.002   0.000   0.004  -0.002   0.007   0.000  -0.000   0.000   0.000  -0.000  -0.000   0.000  -0.000
  0.004  -0.004  -0.000  -0.001  -0.002  -0.002  -0.000  -0.000  -0.000  -0.000   0.000  -0.000  -0.000  -0.000
 -0.013   0.013   0.000  -0.004   0.002   0.002  -0.000   0.000   0.000  -0.000  -0.000   0.000   0.000  -0.000
 -0.006   0.006   0.000  -0.002   0.002   0.006  -0.000   0.000   0.000   0.000  -0.000   0.000   0.000  -0.000
  0.013  -0.014  -0.000   0.001   0.004  -0.005   0.000   0.000  -0.000  -0.000  -0.000  -0.000  -0.000   0.000
 total augmentation occupancy for first ion, spin component:           2
  0.000  -0.000  -0.000  -0.000  -0.000  -0.000   0.000  -0.000   0.000   0.000  -0.000  -0.000   0.000  -0.000
 -0.000   0.000  -0.000   0.000  -0.000   0.000  -0.000   0.000  -0.000  -0.000   0.000   0.000  -0.000   0.000
 -0.000  -0.000  -0.000  -0.000   0.000  -0.000  -0.000   0.000  -0.000  -0.000  -0.000  -0.000  -0.000   0.000
 -0.000   0.000  -0.000   0.000  -0.000  -0.000   0.000  -0.000  -0.000  -0.000   0.000  -0.000  -0.000  -0.000
 -0.000  -0.000   0.000  -0.000   0.000   0.000  -0.000   0.000  -0.000  -0.000  -0.000   0.000   0.000   0.000
 -0.000   0.000  -0.000  -0.000   0.000  -0.000  -0.000   0.000  -0.000  -0.000   0.000   0.000   0.000   0.000
  0.000  -0.000  -0.000   0.000  -0.000  -0.000   0.000  -0.000  -0.000  -0.000   0.000  -0.000  -0.000   0.000
 -0.000   0.000   0.000  -0.000   0.000   0.000  -0.000   0.000   0.000   0.000  -0.000   0.000   0.000   0.000
  0.000  -0.000  -0.000  -0.000  -0.000  -0.000  -0.000   0.000  -0.000  -0.000   0.000   0.000   0.000  -0.000
  0.000  -0.000  -0.000  -0.000  -0.000  -0.000  -0.000   0.000  -0.000   0.000  -0.000   0.000   0.000  -0.000
 -0.000   0.000  -0.000   0.000  -0.000   0.000   0.000  -0.000   0.000  -0.000   0.000  -0.000  -0.000  -0.000
 -0.000   0.000  -0.000  -0.000   0.000   0.000  -0.000   0.000   0.000   0.000  -0.000   0.000   0.000   0.000
  0.000  -0.000  -0.000  -0.000   0.000   0.000  -0.000   0.000   0.000   0.000  -0.000   0.000   0.000   0.000
 -0.000   0.000   0.000  -0.000   0.000   0.000   0.000   0.000  -0.000  -0.000  -0.000   0.000   0.000   0.000


------------------------ aborting loop because EDIFF is reached ----------------------------------------


    CHARGE:  cpu time      0.0659: real time      0.0665
    FORLOC:  cpu time      0.0038: real time      0.0038
    FORNL :  cpu time      0.3962: real time      0.3989
    STRESS:  cpu time      1.1816: real time      1.1894
    FORCOR:  cpu time      0.0499: real time      0.0501
    FORHAR:  cpu time      0.0083: real time      0.0083
    MIXING:  cpu time      0.0007: real time      0.0007
    OFIELD:  cpu time      0.0000: real time      0.0000

 ---------------------------------------------------------------------------------------------

         DFTD3 V3.0 Rev 1        
 Edisp (eV)  -13.56844

 E6    (eV) :    -8.3622
 E8    (eV) :    -5.2063
 % E8        : 38.37
    FORVDW:  cpu time      0.2853: real time      0.2871

  FORCE on cell =-STRESS in cart. coord.  units (eV):
  Direction    XX          YY          ZZ          XY          YZ          ZX
  --------------------------------------------------------------------------------------
  Alpha Z   301.05037   301.05037   301.05037
  Ewald   -2980.07230 -2953.91682 -2883.88875   -27.16289   -19.70886    62.80482
  Hartree   715.42219   731.85414   761.69254    -8.16103    -2.62511    39.10247
  E(xc)    -947.80563  -947.76393  -947.59680    -0.08924    -0.05046     0.09133
  Local   -1445.89492 -1488.58111 -1580.32775    31.55058    20.52835  -101.21914
  n-local  1481.64455  1481.64838  1481.30181    -0.38956    -0.69473     0.40569
  augment  -357.12230  -357.08389  -356.64216    -0.26243     0.11466    -0.03486
  Kinetic  3246.82613  3246.97429  3239.30146     5.32393     0.40429    -0.55892
  Fock        0.00000     0.00000     0.00000     0.00000     0.00000     0.00000
  vdW       -14.39001   -14.36784   -14.38886    -0.01499    -0.03292     0.02707
  -------------------------------------------------------------------------------------
  Total      -0.34191    -0.18641     0.50186     0.79438    -2.06478     0.61845
  in kB      -0.60752    -0.33122     0.89172     1.41148    -3.66878     1.09888
  external pressure =       -0.02 kB  Pullay stress =        0.00 kB


 VOLUME and BASIS-vectors are now :
 -----------------------------------------------------------------------------
  energy-cutoff  :      520.00
  volume of cell :      901.70
      direct lattice vectors                 reciprocal lattice vectors
     9.660973587  0.000000000  0.000000000     0.103509237  0.000000000  0.000000000
     0.000000000  9.660973587  0.000000000     0.000000000  0.103509237  0.000000000
     0.000000000  0.000000000  9.660973587     0.000000000  0.000000000  0.103509237

  length of vectors
     9.660973587  9.660973587  9.660973587     0.103509237  0.103509237  0.103509237


 FORCES acting on ions
    electron-ion (+dipol)            ewald-force                    non-local-force                 convergence-correction
 -----------------------------------------------------------------------------------------------
   -.294E-01 0.100E+02 0.946E+01   -.581E+00 -.870E+01 -.819E+01   0.609E+00 -.130E+01 -.127E+01   0.137E-03 -.502E-05 0.219E-04
   -.133E+02 -.623E+00 0.581E+00   0.134E+02 0.114E+01 0.108E+00   -.137E+00 -.526E+00 -.692E+00   -.252E-03 -.251E-04 -.282E-04
   -.830E+01 -.342E+01 0.756E+01   0.101E+02 0.188E+01 -.663E+01   -.180E+01 0.155E+01 -.936E+00   -.148E-03 -.265E-04 0.105E-03
   0.572E+01 -.460E+01 -.185E+01   -.479E+01 0.356E+01 0.295E+01   -.924E+00 0.104E+01 -.109E+01   -.247E-04 0.588E-04 0.263E-04
   -.289E+01 -.756E+01 -.171E+01   0.179E+01 0.761E+01 0.109E+01   0.111E+01 -.520E-01 0.612E+00   -.230E-05 -.644E-04 -.531E-04
   -.193E+01 -.255E+01 0.455E+01   0.272E+01 0.131E+01 -.380E+01   -.795E+00 0.125E+01 -.751E+00   0.272E-04 0.779E-04 0.372E-04
   0.352E+01 0.653E+00 0.133E+02   -.222E+01 -.178E+01 -.124E+02   -.130E+01 0.112E+01 -.860E+00   -.860E-04 -.192E-04 0.174E-03
   0.228E+01 -.249E+01 -.335E+01   -.281E+01 0.132E+01 0.322E+01   0.533E+00 0.117E+01 0.126E+00   0.859E-04 0.359E-04 -.162E-04
   -.450E+01 -.741E+01 0.171E+01   0.335E+01 0.637E+01 -.259E+01   0.116E+01 0.104E+01 0.881E+00   -.405E-04 0.598E-04 -.284E-04
   0.109E+02 -.491E+01 -.115E+02   -.953E+01 0.713E+01 0.947E+01   -.134E+01 -.221E+01 0.198E+01   0.127E-04 0.154E-03 -.310E-04
   -.911E+01 -.155E+02 0.111E+02   0.927E+01 0.145E+02 -.104E+02   -.164E+00 0.104E+01 -.723E+00   0.527E-06 0.118E-03 -.493E-04
   0.215E+01 -.249E+01 -.974E+01   -.999E+00 0.316E+01 0.876E+01   -.115E+01 -.664E+00 0.980E+00   -.677E-05 0.439E-04 -.467E-05
   0.170E+01 0.533E+01 -.437E+01   -.263E+01 -.616E+01 0.371E+01   0.932E+00 0.833E+00 0.659E+00   0.878E-05 0.127E-03 -.365E-04
   0.205E+01 -.485E+01 0.485E+01   -.276E+01 0.610E+01 -.311E+01   0.714E+00 -.125E+01 -.174E+01   -.701E-04 -.148E-03 -.775E-04
   -.333E+01 -.302E+01 0.869E+01   0.253E+01 0.394E+01 -.875E+01   0.802E+00 -.929E+00 0.655E-01   -.683E-04 -.163E-03 0.127E-03
   -.108E+02 -.864E-01 0.976E+01   0.941E+01 -.108E+01 -.104E+02   0.137E+01 0.117E+01 0.614E+00   -.124E-03 0.315E-04 0.821E-04
   -.109E+02 -.325E+01 0.202E+01   0.983E+01 0.188E+01 -.387E+01   0.102E+01 0.137E+01 0.185E+01   0.423E-04 -.117E-03 0.173E-03
   0.104E+02 0.406E+01 -.167E+02   -.894E+01 -.348E+01 0.154E+02   -.146E+01 -.585E+00 0.126E+01   0.108E-03 0.142E-04 -.208E-03
   -.726E+01 -.446E+01 -.254E+01   0.812E+01 0.368E+01 0.335E+01   -.864E+00 0.775E+00 -.810E+00   -.129E-03 0.253E-04 0.125E-03
   0.695E+01 0.789E+01 -.818E+01   -.733E+01 -.754E+01 0.867E+01   0.396E+00 -.347E+00 -.500E+00   0.377E-03 -.370E-04 -.341E-03
   -.923E+01 0.244E+01 0.335E+01   0.769E+01 -.998E+00 -.213E+01   0.153E+01 -.144E+01 -.122E+01   -.168E-05 -.123E-03 0.506E-04
   0.599E+01 0.494E+01 0.102E+02   -.700E+01 -.366E+01 -.890E+01   0.101E+01 -.129E+01 -.127E+01   0.254E-04 -.823E-04 0.951E-04
   0.998E+01 0.491E+01 -.602E+01   -.912E+01 -.538E+01 0.644E+01   -.851E+00 0.478E+00 -.424E+00   0.897E-04 0.789E-04 -.126E-03
   0.120E+01 0.147E+02 -.962E+01   -.120E+01 -.141E+02 0.870E+01   -.200E-02 -.590E+00 0.918E+00   -.111E-03 0.133E-03 -.392E-05
   0.125E+02 0.112E+02 -.909E+01   -.131E+02 -.112E+02 0.940E+01   0.550E+00 -.135E-01 -.306E+00   0.767E-04 -.117E-03 -.792E-04
   -.332E+01 -.778E+01 -.453E+01   0.336E+01 0.790E+01 0.473E+01   -.412E-01 -.120E+00 -.202E+00   0.266E-04 0.130E-03 0.444E-04
   0.399E+01 -.166E+00 -.273E+01   -.277E+01 -.161E+00 0.283E+01   -.121E+01 0.317E+00 -.992E-01   0.946E-04 0.546E-04 -.417E-04
   0.135E+01 -.302E+01 0.514E+00   -.155E+01 0.356E+01 -.652E+00   0.192E+00 -.532E+00 0.138E+00   -.354E-04 -.514E-05 -.414E-04
   -.398E+02 0.355E+02 -.373E+02   0.435E+02 -.381E+02 0.408E+02   -.371E+01 0.259E+01 -.347E+01   0.892E-04 0.711E-04 0.298E-04
   -.222E+02 -.525E+02 0.489E+02   0.241E+02 0.561E+02 -.526E+02   -.186E+01 -.358E+01 0.364E+01   0.150E-03 0.162E-04 -.136E-03
   0.495E+02 0.264E+02 0.312E+02   -.530E+02 -.291E+02 -.341E+02   0.350E+01 0.272E+01 0.289E+01   0.108E-03 0.102E-03 0.141E-03
   0.436E+02 -.404E+02 -.353E+02   -.465E+02 0.432E+02 0.382E+02   0.287E+01 -.287E+01 -.294E+01   0.272E-04 -.807E-04 -.208E-04
   0.292E+02 -.259E+02 -.487E+02   -.320E+02 0.287E+02 0.526E+02   0.283E+01 -.273E+01 -.390E+01   0.197E-04 0.105E-04 0.380E-05
   0.257E+02 0.606E+02 0.256E+02   -.275E+02 -.650E+02 -.283E+02   0.184E+01 0.439E+01 0.275E+01   0.216E-03 -.387E-04 -.299E-03
   -.625E+02 -.200E+02 0.511E+02   0.666E+02 0.209E+02 -.545E+02   -.412E+01 -.990E+00 0.337E+01   -.340E-03 -.131E-03 0.307E-03
   -.410E+02 0.504E+02 -.460E+02   0.435E+02 -.533E+02 0.490E+02   -.252E+01 0.284E+01 -.297E+01   0.176E-03 -.202E-03 -.800E-04
   -.471E+02 -.351E+02 0.421E+02   0.505E+02 0.376E+02 -.455E+02   -.344E+01 -.254E+01 0.339E+01   -.189E-03 -.140E-03 0.159E-04
   -.372E+02 0.309E+02 -.483E+02   0.397E+02 -.337E+02 0.520E+02   -.243E+01 0.285E+01 -.377E+01   -.136E-03 0.194E-03 0.390E-04
   0.587E+02 -.485E+02 -.170E+02   -.635E+02 0.517E+02 0.181E+02   0.478E+01 -.323E+01 -.117E+01   -.162E-03 0.193E-03 -.251E-04
   0.414E+02 0.316E+02 0.401E+02   -.439E+02 -.342E+02 -.433E+02   0.247E+01 0.257E+01 0.324E+01   -.714E-04 0.234E-03 -.124E-03
   -.310E+02 -.503E+02 0.319E+02   0.332E+02 0.542E+02 -.345E+02   -.219E+01 -.391E+01 0.255E+01   0.258E-03 0.782E-04 -.328E-03
   -.190E+02 0.551E+02 -.386E+02   0.221E+02 -.594E+02 0.410E+02   -.305E+01 0.425E+01 -.238E+01   0.208E-03 0.985E-04 -.316E-03
   0.644E+02 -.270E+01 -.457E+02   -.680E+02 0.472E+01 0.496E+02   0.359E+01 -.202E+01 -.390E+01   0.164E-03 0.413E-04 -.233E-03
   0.572E+02 0.272E+02 0.282E+02   -.612E+02 -.291E+02 -.318E+02   0.399E+01 0.191E+01 0.363E+01   0.269E-03 0.185E-04 -.133E-03
   0.504E+01 -.109E+02 -.480E+01   -.526E+01 0.114E+02 0.489E+01   0.226E+00 -.431E+00 -.893E-01   0.393E-03 0.123E-03 -.333E-03
   -.211E+02 0.207E+02 -.126E+02   0.216E+02 -.211E+02 0.128E+02   -.495E+00 0.490E+00 -.217E+00   -.264E-03 0.597E-04 -.232E-04
   0.139E+00 0.183E+02 -.564E+01   -.121E+00 -.188E+02 0.572E+01   -.217E-01 0.489E+00 -.775E-01   0.743E-04 0.139E-03 -.110E-05
   0.131E+01 -.232E+02 -.951E+01   -.121E+01 0.237E+02 0.985E+01   -.109E+00 -.546E+00 -.332E+00   -.748E-04 -.380E-03 0.200E-03
   -.299E+01 -.405E+02 -.331E-01   0.313E+01 0.412E+02 0.510E-01   -.138E+00 -.757E+00 -.180E-01   0.928E-04 0.806E-04 -.497E-04
   -.445E+02 0.132E+02 0.329E+02   0.453E+02 -.134E+02 -.336E+02   -.820E+00 0.244E+00 0.669E+00   -.955E-03 0.878E-04 0.104E-02
   -.246E+02 -.115E+02 -.326E+01   0.249E+02 0.118E+02 0.325E+01   -.254E+00 -.348E+00 0.177E-01   -.522E-04 -.733E-04 0.915E-04
   0.198E+02 0.859E+00 0.265E+02   -.202E+02 -.100E+01 -.268E+02   0.369E+00 0.137E+00 0.251E+00   -.370E-03 -.495E-03 0.500E-03
 -----------------------------------------------------------------------------------------------
   -.122E+01 -.283E+01 0.165E+01   0.320E-13 0.844E-14 0.782E-13   0.122E+01 0.283E+01 -.164E+01   -.357E-03 0.217E-03 0.163E-03
 
 
 POSITION                                       TOTAL-FORCE (eV/Angst)
 -----------------------------------------------------------------------------------
      9.28392      1.78784      1.47400        -0.000073     -0.000052      0.000059
      0.02845      6.72331      6.87897         0.000101      0.000074      0.000106
      0.55614      3.27575      6.74365        -0.000002     -0.000119      0.000023
      0.21434      8.10142      2.09845        -0.000033     -0.000104     -0.000029
      8.24301      9.44446      7.60413        -0.000056      0.000091      0.000047
      2.04469      7.68338      0.17239         0.000050     -0.000159     -0.000006
      6.68115      2.85917      0.05273        -0.000019      0.000028     -0.000047
      7.77578      7.71262      9.56394        -0.000064     -0.000070      0.000016
      3.03267      9.54960      2.68323        -0.000071     -0.000036      0.000018
      1.91004      0.44205      7.95422         0.000080     -0.000099      0.000010
      5.35288      8.18786      6.26518        -0.000064      0.000105      0.000224
      6.46980      0.38460      3.11304        -0.000047     -0.000007      0.000014
      2.86428      7.72862      4.68617         0.000145      0.000040      0.000039
      2.72665      2.04698      4.94387         0.000054      0.000053      0.000124
      7.79798      6.74019      4.99303         0.000069      0.000140      0.000056
      7.89901      3.16770      4.38692        -0.000139     -0.000111      0.000121
      2.95035      3.60276      9.10962        -0.000070      0.000012     -0.000020
      1.45075      5.27370      3.13933         0.000078     -0.000019      0.000056
      6.90687      4.75747      2.03847         0.000068     -0.000123     -0.000091
      7.51241      4.93527      7.14547         0.000514      0.000036     -0.000556
      4.73776      1.79514      6.71441        -0.000013      0.000110      0.000037
      4.43155      6.56520      1.84912         0.000021      0.000137     -0.000076
      4.87407      2.79142      2.20197        -0.000019      0.000143     -0.000109
      5.18375      6.38850      8.20677         0.000123     -0.000250     -0.000135
      4.80194      4.93507      4.89977        -0.000055      0.000021      0.000113
      4.92527      9.65629      9.58868         0.000141     -0.000292     -0.000184
      0.15755      4.81620      0.11895         0.000020      0.000063     -0.000497
      9.64196      0.15603      4.81599        -0.000286      0.000016      0.000471
      1.14110      8.66298      6.07128         0.000106     -0.000038     -0.000056
      1.09611      1.18328      3.44193         0.000161      0.000357     -0.000242
      8.31561      8.64903      3.76363         0.000276      0.000452     -0.000069
      8.59919      1.47590      5.97512         0.000306     -0.000604     -0.000471
      8.68928      6.06884      1.31008         0.000064     -0.000008     -0.000020
      8.65571      3.56073      8.62158        -0.000105      0.000205      0.000034
      1.43916      5.79727      8.52554        -0.000543     -0.000463      0.000520
      1.26710      3.61970      1.33309         0.000110     -0.000151      0.000236
      6.24489      0.98671      8.36549        -0.000153     -0.000156      0.000175
      5.93156      8.47345      1.26588        -0.000182      0.000510     -0.000493
      3.62747      1.28205      0.85517        -0.000190      0.000129      0.000210
      3.79179      8.44317      8.35798         0.000206     -0.000304      0.000168
      5.93879      6.16914      3.69397         0.000383      0.000277     -0.000444
      6.03779      3.63239      5.89487        -0.000239      0.000245     -0.000054
      3.79154      6.13569      6.20811         0.000186     -0.000152     -0.000366
      3.48078      3.93531      3.69435         0.000333      0.000146      0.000217
      7.33495      7.22419      7.29628         0.000035      0.000015      0.000030
      7.15612      2.47306      2.30116        -0.000186     -0.000009     -0.000078
      2.35906      7.35303      2.45469         0.000007      0.000009      0.000077
      2.61587      2.44395      7.15828        -0.000099     -0.000086     -0.000029
      0.05630      9.37654      9.62536         0.000057     -0.000017      0.000015
      9.46500      5.01478      5.09156        -0.000358      0.000083      0.000486
      4.55086      0.15053      4.67156         0.000144      0.000024      0.000062
      5.06637      4.75760      0.24779        -0.000772     -0.000093      0.000306
 -----------------------------------------------------------------------------------
    total drift:                                0.003953      0.002054      0.003221


--------------------------------------------------------------------------------------------------------



  FREE ENERGIE OF THE ION-ELECTRON SYSTEM (eV)
  ---------------------------------------------------
  free  energy   TOTEN  =      -271.99918661 eV

  energy  without entropy=     -271.99918661  energy(sigma->0) =     -271.99918661
 
 d Force =-0.2787249E-07[-0.522E-06, 0.466E-06]  d Energy = 0.1111288E-05-0.114E-05
 d Force = 0.1200783E-01[ 0.120E-01, 0.120E-01]  d Ewald  = 0.1200783E-01 0.600E-10


--------------------------------------------------------------------------------------------------------


    POTLOK:  cpu time      0.4618: real time      0.4635


--------------------------------------------------------------------------------------------------------


 stress matrix after NEB project (eV)
     -0.34191      0.79438      0.61845
      0.79438     -0.18641     -2.06478
      0.61845     -2.06478      0.50186
  FORCES: max atom, RMS     0.000883    0.000364
  FORCE total and by dimension    0.002627    0.000772
  Stress total and by dimension    3.310163    2.064782


--------------------------------------------------------------------------------------------------------


  
 reached required accuracy - stopping structural energy minimisation
     LOOP+:  cpu time      7.5912: real time      7.6646
    4ORBIT:  cpu time      0.0000: real time      0.0000

 total amount of memory used by VASP MPI-rank0    48216. kBytes
=======================================================================

   base      :      30000. kBytes
   nonlr-proj:       6556. kBytes
   fftplans  :       1747. kBytes
   grid      :       5278. kBytes
   one-center:         62. kBytes
   wavefun   :       4573. kBytes
 
  
  
 General timing and accounting informations for this job:
 ========================================================
  
                  Total CPU time used (sec):      117.432
                            User time (sec):      116.115
                          System time (sec):        1.317
                         Elapsed time (sec):      121.264
  
                   Maximum memory used (kb):      385776.
                   Average memory used (kb):          N/A
  
                          Minor page faults:        62855
                          Major page faults:          130
                 Voluntary context switches:         4172
