<?xml version="1.0" encoding="ISO-8859-1"?>
<modeling>
 <generator>
  <i name="program" type="string">vasp </i>
  <i name="version" type="string">6.4.1  </i>
  <i name="subversion" type="string">05Apr23 (build Jun 07 2023 15:38:11) complex                          parallel </i>
  <i name="platform" type="string">LinuxIFC </i>
  <i name="date" type="string">2023 10 30 </i>
  <i name="time" type="string">11:56:00 </i>
 </generator>
 <incar>
  <i type="string" name="PREC">Accu</i>
  <i type="string" name="ALGO">F</i>
  <i type="logical" name="LDIAG"> T  </i>
  <i type="int" name="ISPIN">     2</i>
  <i type="int" name="NELM">   100</i>
  <i type="int" name="NELMDL">   -10</i>
  <i type="int" name="IBRION">     2</i>
  <i name="EDIFF">      0.00000100</i>
  <i name="EDIFFG">     -0.00100000</i>
  <i type="int" name="NSW">  1000</i>
  <i type="int" name="ISIF">     2</i>
  <i name="ENCUT">    520.00000000</i>
  <i name="POTIM">      0.20000000</i>
  <i type="string" name="LREAL">Auto</i>
  <i type="logical" name="LPLANE"> T  </i>
  <i type="int" name="ISMEAR">     0</i>
  <i name="SIGMA">      0.03000000</i>
  <i type="int" name="LMAXMIX">     4</i>
  <i type="logical" name="LWAVE"> F  </i>
  <i type="logical" name="LCHARG"> F  </i>
  <i type="logical" name="LASPH"> T  </i>
  <i type="string" name="GGA">PE</i>
  <i type="int" name="IVDW">    12</i>
 </incar>
 <primitive_cell>
  <structure name="primitive_cell" >
   <crystal>
    <varray name="basis" >
     <v>       9.66097359       0.00000000       0.00000000 </v>
     <v>       0.00000000       9.66097359       0.00000000 </v>
     <v>       0.00000000       0.00000000       9.66097359 </v>
    </varray>
    <i name="volume">    901.70127608 </i>
    <varray name="rec_basis" >
     <v>       0.10350924       0.00000000       0.00000000 </v>
     <v>       0.00000000       0.10350924       0.00000000 </v>
     <v>       0.00000000       0.00000000       0.10350924 </v>
    </varray>
   </crystal>
   <varray name="positions" >
    <v>       0.96096932       0.18505547       0.15257744 </v>
    <v>       0.00294811       0.69593373       0.71204245 </v>
    <v>       0.05756205       0.33906119       0.69803458 </v>
    <v>       0.02218674       0.83856678       0.21720706 </v>
    <v>       0.85322484       0.97759188       0.78710218 </v>
    <v>       0.21164643       0.79529478       0.01784699 </v>
    <v>       0.69155679       0.29595316       0.00545538 </v>
    <v>       0.80486319       0.79832340       0.98995607 </v>
    <v>       0.31390359       0.98847368       0.27774002 </v>
    <v>       0.19771071       0.04574869       0.82333686 </v>
    <v>       0.55406902       0.84752888       0.64852010 </v>
    <v>       0.66967899       0.03981147       0.32222939 </v>
    <v>       0.29648667       0.79998904       0.48506093 </v>
    <v>       0.28223431       0.21188238       0.51173891 </v>
    <v>       0.80716212       0.69768606       0.51682372 </v>
    <v>       0.81760860       0.32788126       0.45408865 </v>
    <v>       0.30538341       0.37291472       0.94293251 </v>
    <v>       0.15016905       0.54587537       0.32495078 </v>
    <v>       0.71492627       0.49243982       0.21099828 </v>
    <v>       0.77764097       0.51084796       0.73958308 </v>
    <v>       0.49039994       0.18581854       0.69500637 </v>
    <v>       0.45870954       0.67956573       0.19140042 </v>
    <v>       0.50450789       0.28894599       0.22791428 </v>
    <v>       0.53657522       0.66124904       0.84946670 </v>
    <v>       0.49705203       0.51083213       0.50716544 </v>
    <v>       0.50980596       0.99951367       0.99251508 </v>
    <v>       0.01630320       0.49851530       0.01231200 </v>
    <v>       0.99803657       0.01615160       0.49850040 </v>
    <v>       0.11811621       0.89670058       0.62842866 </v>
    <v>       0.11345680       0.12248631       0.35627472 </v>
    <v>       0.86074438       0.89526052       0.38956387 </v>
    <v>       0.89009242       0.15276634       0.61848066 </v>
    <v>       0.89942101       0.62818015       0.13560537 </v>
    <v>       0.89594239       0.36857431       0.89241387 </v>
    <v>       0.14896583       0.60006840       0.88247129 </v>
    <v>       0.13115298       0.37467162       0.13798841 </v>
    <v>       0.64640059       0.10213280       0.86590481 </v>
    <v>       0.61397442       0.87708437       0.13103196 </v>
    <v>       0.37547448       0.13270087       0.08851740 </v>
    <v>       0.39249069       0.87393668       0.86513513 </v>
    <v>       0.61472196       0.63855692       0.38235856 </v>
    <v>       0.62496495       0.37598892       0.61017811 </v>
    <v>       0.39245937       0.63510496       0.64259311 </v>
    <v>       0.36029360       0.40733887       0.38239844 </v>
    <v>       0.75923678       0.74777159       0.75523256 </v>
    <v>       0.74071923       0.25598415       0.23818881 </v>
    <v>       0.24418537       0.76110677       0.25408525 </v>
    <v>       0.27076353       0.25296665       0.74095037 </v>
    <v>       0.00582847       0.97055570       0.99631376 </v>
    <v>       0.97970423       0.51907747       0.52703610 </v>
    <v>       0.47105570       0.01558118       0.48355105 </v>
    <v>       0.52440713       0.49245251       0.02565459 </v>
   </varray>
  </structure>
  <varray name="primitive_index" >
   <v type="int" >        1 </v>
   <v type="int" >        2 </v>
   <v type="int" >        3 </v>
   <v type="int" >        4 </v>
   <v type="int" >        5 </v>
   <v type="int" >        6 </v>
   <v type="int" >        7 </v>
   <v type="int" >        8 </v>
   <v type="int" >        9 </v>
   <v type="int" >       10 </v>
   <v type="int" >       11 </v>
   <v type="int" >       12 </v>
   <v type="int" >       13 </v>
   <v type="int" >       14 </v>
   <v type="int" >       15 </v>
   <v type="int" >       16 </v>
   <v type="int" >       17 </v>
   <v type="int" >       18 </v>
   <v type="int" >       19 </v>
   <v type="int" >       20 </v>
   <v type="int" >       21 </v>
   <v type="int" >       22 </v>
   <v type="int" >       23 </v>
   <v type="int" >       24 </v>
   <v type="int" >       25 </v>
   <v type="int" >       26 </v>
   <v type="int" >       27 </v>
   <v type="int" >       28 </v>
   <v type="int" >       29 </v>
   <v type="int" >       30 </v>
   <v type="int" >       31 </v>
   <v type="int" >       32 </v>
   <v type="int" >       33 </v>
   <v type="int" >       34 </v>
   <v type="int" >       35 </v>
   <v type="int" >       36 </v>
   <v type="int" >       37 </v>
   <v type="int" >       38 </v>
   <v type="int" >       39 </v>
   <v type="int" >       40 </v>
   <v type="int" >       41 </v>
   <v type="int" >       42 </v>
   <v type="int" >       43 </v>
   <v type="int" >       44 </v>
   <v type="int" >       45 </v>
   <v type="int" >       46 </v>
   <v type="int" >       47 </v>
   <v type="int" >       48 </v>
   <v type="int" >       49 </v>
   <v type="int" >       50 </v>
   <v type="int" >       51 </v>
   <v type="int" >       52 </v>
  </varray>
 </primitive_cell>
 <kpoints>
  <generation param="Monkhorst-Pack">
   <v type="int" name="divisions">       2        2        2 </v>
   <v name="usershift">      0.00000000       0.00000000       0.00000000 </v>
   <v name="genvec1">      0.50000000       0.00000000       0.00000000 </v>
   <v name="genvec2">      0.00000000       0.50000000       0.00000000 </v>
   <v name="genvec3">      0.00000000       0.00000000       0.50000000 </v>
   <v name="shift">      0.50000000       0.50000000       0.50000000 </v>
  </generation>
  <varray name="kpointlist" >
   <v>       0.25000000       0.25000000       0.25000000 </v>
   <v>      -0.25000000       0.25000000       0.25000000 </v>
   <v>      -0.25000000      -0.25000000       0.25000000 </v>
   <v>       0.25000000      -0.25000000       0.25000000 </v>
  </varray>
  <varray name="weights" >
   <v>       0.25000000 </v>
   <v>       0.25000000 </v>
   <v>       0.25000000 </v>
   <v>       0.25000000 </v>
  </varray>
 </kpoints>
 <parameters>
  <separator name="general" >
   <i type="string" name="SYSTEM">unknown system</i>
   <i type="logical" name="LCOMPAT"> F  </i>
  </separator>
  <separator name="electronic" >
   <i type="string" name="PREC">accu</i>
   <i name="ENMAX">    520.00000000</i>
   <i name="ENAUG">   1041.69900000</i>
   <i name="EDIFF">      0.00000100</i>
   <i type="int" name="IALGO">    68</i>
   <i type="int" name="IWAVPR">    11</i>
   <i type="int" name="NBANDS">   176</i>
   <i type="int" name="NBANDSLOW">    -1</i>
   <i type="int" name="NBANDSHIGH">    -1</i>
   <i name="NELECT">    240.00000000</i>
   <i type="int" name="TURBO">     0</i>
   <i type="int" name="IRESTART">     0</i>
   <i type="int" name="NREBOOT">     0</i>
   <i type="int" name="NMIN">     0</i>
   <i name="EREF">      0.00000000</i>
   <separator name="electronic smearing" >
    <i type="int" name="ISMEAR">     0</i>
    <i name="SIGMA">      0.03000000</i>
    <i name="KSPACING">      0.50000000</i>
    <i type="logical" name="KGAMMA"> T  </i>
    <i type="logical" name="KBLOWUP"> T  </i>
   </separator>
   <separator name="electronic projectors" >
    <i type="logical" name="LREAL"> T  </i>
    <v name="ROPT">     -0.00025000     -0.00025000     -0.00025000     -0.00025000</v>
    <i type="int" name="LMAXPAW">  -100</i>
    <i type="int" name="LMAXMIX">     4</i>
    <i type="logical" name="NLSPLINE"> F  </i>
   </separator>
   <separator name="electronic startup" >
    <i type="int" name="ISTART">     0</i>
    <i type="int" name="ICHARG">     2</i>
    <i type="int" name="INIWAV">     1</i>
   </separator>
   <separator name="electronic spin" >
    <i type="int" name="ISPIN">     2</i>
    <i type="logical" name="LNONCOLLINEAR"> F  </i>
    <v name="MAGMOM">      1.00000000      1.00000000      1.00000000      1.00000000      1.00000000      1.00000000      1.00000000      1.00000000      1.00000000      1.00000000      1.00000000      1.00000000      1.00000000      1.00000000      1.00000000      1.00000000      1.00000000      1.00000000      1.00000000      1.00000000
      1.00000000      1.00000000      1.00000000      1.00000000      1.00000000      1.00000000      1.00000000      1.00000000      1.00000000      1.00000000      1.00000000      1.00000000      1.00000000      1.00000000      1.00000000      1.00000000      1.00000000      1.00000000      1.00000000      1.00000000
      1.00000000      1.00000000      1.00000000      1.00000000      1.00000000      1.00000000      1.00000000      1.00000000      1.00000000      1.00000000      1.00000000      1.00000000</v>
    <i name="NUPDOWN">     -1.00000000</i>
    <i type="logical" name="LSORBIT"> F  </i>
    <v name="SAXIS">      0.00000000      0.00000000      1.00000000</v>
    <i type="logical" name="LSPIRAL"> F  </i>
    <v name="QSPIRAL">      0.00000000      0.00000000      0.00000000</v>
    <i type="logical" name="LZEROZ"> F  </i>
   </separator>
   <separator name="electronic exchange-correlation" >
    <i type="logical" name="LASPH"> T  </i>
    <i type="logical" name="LMETAGGA"> F  </i>
   </separator>
   <separator name="electronic convergence" >
    <i type="int" name="NELM">   100</i>
    <i type="int" name="NELMDL">   -10</i>
    <i type="int" name="NELMIN">     2</i>
    <i name="ENINI">    520.00000000</i>
    <separator name="electronic convergence detail" >
     <i type="logical" name="LDIAG"> T  </i>
     <i type="logical" name="LSUBROT"> F  </i>
     <i name="WEIMIN">      0.00100000</i>
     <i name="EBREAK">      0.00000000</i>
     <i name="DEPER">      0.30000000</i>
     <i type="int" name="NRMM">     4</i>
     <i name="TIME">      0.40000000</i>
    </separator>
   </separator>
   <separator name="electronic mixer" >
    <i name="AMIX">      0.40000000</i>
    <i name="BMIX">      1.00000000</i>
    <i name="AMIN">      0.10000000</i>
    <i name="AMIX_MAG">      1.60000000</i>
    <i name="BMIX_MAG">      1.00000000</i>
    <separator name="electronic mixer details" >
     <i type="int" name="IMIX">     4</i>
     <i type="logical" name="MIXFIRST"> F  </i>
     <i type="int" name="MAXMIX">   -45</i>
     <i name="WC">    100.00000000</i>
     <i type="int" name="INIMIX">     1</i>
     <i type="int" name="MIXPRE">     1</i>
     <i type="int" name="MREMOVE">     5</i>
    </separator>
   </separator>
   <separator name="electronic dipolcorrection" >
    <i type="logical" name="LDIPOL"> F  </i>
    <i type="logical" name="LMONO"> F  </i>
    <i type="int" name="IDIPOL">     0</i>
    <i name="EPSILON">      1.00000000</i>
    <v name="DIPOL">   -100.00000000   -100.00000000   -100.00000000</v>
    <i name="EFIELD">      0.00000000</i>
   </separator>
  </separator>
  <separator name="grids" >
   <i type="int" name="NGX">    72</i>
   <i type="int" name="NGY">    72</i>
   <i type="int" name="NGZ">    72</i>
   <i type="int" name="NGXF">   144</i>
   <i type="int" name="NGYF">   144</i>
   <i type="int" name="NGZF">   144</i>
   <i type="logical" name="ADDGRID"> F  </i>
  </separator>
  <separator name="ionic" >
   <i type="int" name="NSW">  1000</i>
   <i type="int" name="IBRION">     2</i>
   <i type="int" name="MDALGO">     0</i>
   <i type="int" name="ISIF">     2</i>
   <i name="PSTRESS">      0.00000000</i>
   <i name="EDIFFG">     -0.00100000</i>
   <i type="int" name="NFREE">     1</i>
   <i name="POTIM">      0.20000000</i>
   <i name="SMASS">     -3.00000000</i>
   <i name="SCALEE">      1.00000000</i>
  </separator>
  <separator name="ionic md" >
   <i name="TEBEG">      0.00010000</i>
   <i name="TEEND">      0.00010000</i>
   <i type="int" name="NBLOCK">     1</i>
   <i type="int" name="KBLOCK">  1000</i>
   <i type="int" name="NPACO">   256</i>
   <i name="APACO">     10.00000000</i>
  </separator>
  <separator name="symmetry" >
   <i type="int" name="ISYM">     2</i>
   <i name="SYMPREC">      0.00001000</i>
  </separator>
  <separator name="dos" >
   <i type="int" name="LORBIT">     0</i>
   <v name="RWIGS">     -1.00000000     -1.00000000     -1.00000000     -1.00000000</v>
   <i type="int" name="NEDOS">   301</i>
   <i name="EMIN">     10.00000000</i>
   <i name="EMAX">    -10.00000000</i>
   <i name="EFERMI">      0.00000000</i>
  </separator>
  <separator name="writing" >
   <i type="int" name="NWRITE">     2</i>
   <i type="logical" name="LWAVE"> F  </i>
   <i type="logical" name="LDOWNSAMPLE"> F  </i>
   <i type="logical" name="LCHARG"> F  </i>
   <i type="logical" name="LPARD"> F  </i>
   <i type="logical" name="LVTOT"> F  </i>
   <i type="logical" name="LVHAR"> F  </i>
   <i type="logical" name="LELF"> F  </i>
   <i type="logical" name="LOPTICS"> F  </i>
   <v name="STM">      0.00000000      0.00000000      0.00000000      0.00000000      0.00000000      0.00000000      0.00000000</v>
  </separator>
  <separator name="performance" >
   <i type="int" name="NPAR">     4</i>
   <i type="int" name="NSIM">     4</i>
   <i type="int" name="NBLK">    -1</i>
   <i type="logical" name="LPLANE"> T  </i>
   <i type="logical" name="LSCALAPACK"> T  </i>
   <i type="logical" name="LSCAAWARE"> F  </i>
   <i type="logical" name="LSCALU"> F  </i>
   <i type="logical" name="LASYNC"> F  </i>
   <i type="logical" name="LORBITALREAL"> F  </i>
  </separator>
  <separator name="miscellaneous" >
   <i type="int" name="IDIOT">     3</i>
   <i type="int" name="PHON_NSTRUCT">    -1</i>
   <i type="logical" name="LMUSIC"> F  </i>
   <v name="POMASS">      7.01000000     30.97400000     32.06600000     35.45300000</v>
   <v name="DARWINR">      0.00000000      0.00000000      0.00000000      0.00000000</v>
   <v name="DARWINV">      1.00000000      1.00000000      1.00000000      1.00000000</v>
   <i type="logical" name="LCORR"> T  </i>
  </separator>
  <i type="logical" name="GGA_COMPAT"> T  </i>
  <i type="logical" name="LBERRY"> F  </i>
  <i type="int" name="ICORELEVEL">     0</i>
  <i type="logical" name="LDAU"> F  </i>
  <i type="int" name="I_CONSTRAINED_M">     0</i>
  <separator name="electronic exchange-correlation" >
   <i type="string" name="GGA">PE</i>
   <i type="int" name="VOSKOWN">     0</i>
   <i type="logical" name="LHFCALC"> F  </i>
   <i type="string" name="PRECFOCK"></i>
   <i type="logical" name="LSYMGRAD"> F  </i>
   <i type="logical" name="LHFONE"> F  </i>
   <i type="logical" name="LRHFCALC"> F  </i>
   <i type="logical" name="LTHOMAS"> F  </i>
   <i type="logical" name="LMODELHF"> F  </i>
   <i type="logical" name="LFOCKACE"> F  </i>
   <i name="ENCUT4O">     -1.00000000</i>
   <i type="int" name="EXXOEP">     0</i>
   <i type="int" name="FOURORBIT">     0</i>
   <i name="AEXX">      0.00000000</i>
   <i name="HFALPHA">      0.00000000</i>
   <i name="MCALPHA">      0.00000000</i>
   <i name="ALDAX">      1.00000000</i>
   <i name="AGGAX">      1.00000000</i>
   <i name="ALDAC">      1.00000000</i>
   <i name="AGGAC">      1.00000000</i>
   <i type="int" name="NKREDX">     1</i>
   <i type="int" name="NKREDY">     1</i>
   <i type="int" name="NKREDZ">     1</i>
   <i type="logical" name="SHIFTRED"> F  </i>
   <i type="logical" name="ODDONLY"> F  </i>
   <i type="logical" name="EVENONLY"> F  </i>
   <i type="int" name="LMAXFOCK">     0</i>
   <i type="int" name="NMAXFOCKAE">     0</i>
   <i type="logical" name="LFOCKAEDFT"> F  </i>
   <i name="HFSCREEN">      0.00000000</i>
   <i name="HFSCREENC">      0.00000000</i>
   <i type="int" name="NBANDSGWLOW">     0</i>
  </separator>
  <separator name="vdW DFT" >
   <i type="logical" name="LUSE_VDW"> F  </i>
   <i type="int" name="IVDW_NL">     1</i>
   <i type="logical" name="LSPIN_VDW"> F  </i>
   <i name="Zab_VDW">     -0.84910000</i>
   <i name="PARAM1">      0.12340000</i>
   <i name="PARAM2">      1.00000000</i>
   <i name="PARAM3">      0.00000000</i>
  </separator>
  <separator name="model GW" >
   <i type="int" name="MODEL_GW">     0</i>
   <i name="MODEL_EPS0">     10.40424549</i>
   <i name="MODEL_ALPHA">      1.00000000</i>
  </separator>
  <separator name="linear response parameters" >
   <i type="logical" name="LEPSILON"> F  </i>
   <i type="logical" name="LRPA"> F  </i>
   <i type="logical" name="LNABLA"> F  </i>
   <i type="logical" name="LVEL"> F  </i>
   <i name="CSHIFT">      0.10000000</i>
   <i name="OMEGAMAX">     -1.00000000</i>
   <i name="DEG_THRESHOLD">      0.00200000</i>
   <i name="RTIME">     -0.10000000</i>
   <i name="WPLASMAI">      0.00000000</i>
   <v name="DFIELD">      0.00000000      0.00000000      0.00000000</v>
   <v name="WPLASMA">      0.00000000      0.00000000      0.00000000      0.00000000      0.00000000      0.00000000      0.00000000      0.00000000      0.00000000</v>
  </separator>
  <separator name="orbital magnetization" >
   <i type="logical" name="NUCIND"> F  </i>
   <v name="MAGPOS">      0.00000000      0.00000000      0.00000000</v>
   <i type="logical" name="LNICSALL"> T  </i>
   <i type="logical" name="ORBITALMAG"> F  </i>
   <i type="logical" name="LMAGBLOCH"> F  </i>
   <i type="logical" name="LCHIMAG"> F  </i>
   <i type="logical" name="LGAUGE"> T  </i>
   <i type="int" name="MAGATOM">     0</i>
   <v name="MAGDIPOL">      0.00000000      0.00000000      0.00000000</v>
   <v name="AVECCONST">      0.00000000      0.00000000      0.00000000</v>
  </separator>
  <separator name="response functions" >
   <i type="logical" name="LALL_IN_ONE"> F  </i>
   <i type="int" name="IALL_IN_ONE">    -1</i>
   <i type="int" name="NBANDS_WAVE">    -1</i>
   <i type="logical" name="LFINITE_TEMPERATURE"> F  </i>
   <i type="logical" name="LADDER"> F  </i>
   <i type="logical" name="LRPAFORCE"> F  </i>
   <i type="logical" name="LFXC"> F  </i>
   <i type="logical" name="LHARTREE"> T  </i>
   <i type="int" name="IBSE">     0</i>
   <v type="int" name="KPOINT">    -1     0     0     0</v>
   <i type="logical" name="LTCTC"> F  </i>
   <i type="logical" name="LTCTE"> F  </i>
   <i type="logical" name="LTETE"> F  </i>
   <i type="logical" name="LTRIPLET"> F  </i>
   <i type="logical" name="LFXCEPS"> F  </i>
   <i type="logical" name="LFXHEG"> F  </i>
   <i type="int" name="NATURALO">     2</i>
   <i type="logical" name="LHOLEGF"> F  </i>
   <i type="logical" name="L2ORDER"> F  </i>
   <i type="logical" name="LDMP1"> F  </i>
   <i type="logical" name="LMP2LT"> F  </i>
   <i type="logical" name="LSMP2LT"> F  </i>
   <i type="logical" name="LGWLF"> F  </i>
   <i name="ENCUTGW">     -1.60000002</i>
   <i name="ENCUTGWSOFT">     -1.60000002</i>
   <i name="ENCUTLF">     -1.00000000</i>
   <i type="logical" name="LESF_SPLINES"> F  </i>
   <i type="int" name="LMAXMP2">    -1</i>
   <i name="SCISSOR">      0.00000000</i>
   <i type="int" name="NOMEGA">     0</i>
   <i type="int" name="NOMEGAR">     0</i>
   <i type="int" name="NBANDSGW">    -1</i>
   <i type="int" name="NBANDSO">    -1</i>
   <i type="int" name="NBANDSV">    -1</i>
   <i type="int" name="NELMGW">     1</i>
   <i type="int" name="NELMHF">     1</i>
   <i type="int" name="DIM">     3</i>
   <i type="int" name="IESPILON">     4</i>
   <i type="int" name="ANTIRES">     0</i>
   <i name="OMEGAMAX">    -30.00000000</i>
   <i name="OMEGAMIN">    -30.00000000</i>
   <i name="OMEGATL">   -200.00000000</i>
   <i type="int" name="OMEGAGRID">     0</i>
   <i name="CSHIFT">     -0.10000000</i>
   <i type="logical" name="LSELFENERGY"> F  </i>
   <i type="logical" name="LSPECTRAL"> F  </i>
   <i type="logical" name="LSPECTRALGW"> F  </i>
   <i type="logical" name="LSINGLES"> F  </i>
   <i type="logical" name="LFERMIGW"> F  </i>
   <i type="logical" name="ODDONLYGW"> F  </i>
   <i type="logical" name="EVENONLYGW"> F  </i>
   <i type="int" name="NKREDLFX">     1</i>
   <i type="int" name="NKREDLFY">     1</i>
   <i type="int" name="NKREDLFZ">     1</i>
   <i type="int" name="MAXMEM">  2800</i>
   <i type="int" name="TELESCOPE">     0</i>
   <i type="int" name="NTAUPAR">    -1</i>
   <i type="int" name="NOMEGAPAR">    -1</i>
   <i name="DAMP_NEWTON">      0.80000001</i>
   <i name="LAMBDA">      1.00000000</i>
  </separator>
  <separator name="External order field" >
   <i name="OFIELD_KAPPA">      0.00000000</i>
   <v name="OFIELD_K">      0.00000000      0.00000000      0.00000000</v>
   <i name="OFIELD_Q6_NEAR">      0.00000000</i>
   <i name="OFIELD_Q6_FAR">      0.00000000</i>
   <i name="OFIELD_A">      0.00000000</i>
  </separator>
  <separator name="optional k-points parameters" >
   <i type="int" name="KPOINTS_OPT_MODE">     1</i>
   <i type="logical" name="LKPOINTS_OPT"> F  </i>
  </separator>
 </parameters>
 <atominfo>
  <atoms>      52 </atoms>
  <types>       4 </types>
  <array name="atoms" >
   <dimension dim="1">ion</dimension>
   <field type="string">element</field>
   <field type="int">atomtype</field>
   <set>
    <rc><c>Li</c><c>   1</c></rc>
    <rc><c>Li</c><c>   1</c></rc>
    <rc><c>Li</c><c>   1</c></rc>
    <rc><c>Li</c><c>   1</c></rc>
    <rc><c>Li</c><c>   1</c></rc>
    <rc><c>Li</c><c>   1</c></rc>
    <rc><c>Li</c><c>   1</c></rc>
    <rc><c>Li</c><c>   1</c></rc>
    <rc><c>Li</c><c>   1</c></rc>
    <rc><c>Li</c><c>   1</c></rc>
    <rc><c>Li</c><c>   1</c></rc>
    <rc><c>Li</c><c>   1</c></rc>
    <rc><c>Li</c><c>   1</c></rc>
    <rc><c>Li</c><c>   1</c></rc>
    <rc><c>Li</c><c>   1</c></rc>
    <rc><c>Li</c><c>   1</c></rc>
    <rc><c>Li</c><c>   1</c></rc>
    <rc><c>Li</c><c>   1</c></rc>
    <rc><c>Li</c><c>   1</c></rc>
    <rc><c>Li</c><c>   1</c></rc>
    <rc><c>Li</c><c>   1</c></rc>
    <rc><c>Li</c><c>   1</c></rc>
    <rc><c>Li</c><c>   1</c></rc>
    <rc><c>Li</c><c>   1</c></rc>
    <rc><c>P </c><c>   2</c></rc>
    <rc><c>P </c><c>   2</c></rc>
    <rc><c>P </c><c>   2</c></rc>
    <rc><c>P </c><c>   2</c></rc>
    <rc><c>S </c><c>   3</c></rc>
    <rc><c>S </c><c>   3</c></rc>
    <rc><c>S </c><c>   3</c></rc>
    <rc><c>S </c><c>   3</c></rc>
    <rc><c>S </c><c>   3</c></rc>
    <rc><c>S </c><c>   3</c></rc>
    <rc><c>S </c><c>   3</c></rc>
    <rc><c>S </c><c>   3</c></rc>
    <rc><c>S </c><c>   3</c></rc>
    <rc><c>S </c><c>   3</c></rc>
    <rc><c>S </c><c>   3</c></rc>
    <rc><c>S </c><c>   3</c></rc>
    <rc><c>S </c><c>   3</c></rc>
    <rc><c>S </c><c>   3</c></rc>
    <rc><c>S </c><c>   3</c></rc>
    <rc><c>S </c><c>   3</c></rc>
    <rc><c>S </c><c>   3</c></rc>
    <rc><c>S </c><c>   3</c></rc>
    <rc><c>S </c><c>   3</c></rc>
    <rc><c>S </c><c>   3</c></rc>
    <rc><c>Cl</c><c>   4</c></rc>
    <rc><c>Cl</c><c>   4</c></rc>
    <rc><c>Cl</c><c>   4</c></rc>
    <rc><c>Cl</c><c>   4</c></rc>
   </set>
  </array>
  <array name="atomtypes" >
   <dimension dim="1">type</dimension>
   <field type="int">atomspertype</field>
   <field type="string">element</field>
   <field>mass</field>
   <field>valence</field>
   <field type="string">pseudopotential</field>
   <set>
    <rc><c>  24</c><c>Li</c><c>      7.01000000</c><c>      3.00000000</c><c>  PAW_PBE Li_sv_GW 25Mar2010            </c></rc>
    <rc><c>   4</c><c>P </c><c>     30.97400000</c><c>      5.00000000</c><c>  PAW_PBE P_GW 19Mar2012                </c></rc>
    <rc><c>  20</c><c>S </c><c>     32.06600000</c><c>      6.00000000</c><c>  PAW_PBE S_GW 19Mar2012                </c></rc>
    <rc><c>   4</c><c>Cl</c><c>     35.45300000</c><c>      7.00000000</c><c>  PAW_PBE Cl_GW 19Mar2012               </c></rc>
   </set>
  </array>
 </atominfo>
 <structure name="initialpos" >
  <crystal>
   <varray name="basis" >
    <v>       9.66097359       0.00000000       0.00000000 </v>
    <v>       0.00000000       9.66097359       0.00000000 </v>
    <v>       0.00000000       0.00000000       9.66097359 </v>
   </varray>
   <i name="volume">    901.70127608 </i>
   <varray name="rec_basis" >
    <v>       0.10350924       0.00000000       0.00000000 </v>
    <v>       0.00000000       0.10350924       0.00000000 </v>
    <v>       0.00000000       0.00000000       0.10350924 </v>
   </varray>
  </crystal>
  <varray name="positions" >
   <v>       0.96096932       0.18505547       0.15257744 </v>
   <v>       0.00294811       0.69593373       0.71204245 </v>
   <v>       0.05756205       0.33906119       0.69803458 </v>
   <v>       0.02218674       0.83856678       0.21720706 </v>
   <v>       0.85322484       0.97759188       0.78710218 </v>
   <v>       0.21164643       0.79529478       0.01784699 </v>
   <v>       0.69155679       0.29595316       0.00545538 </v>
   <v>       0.80486319       0.79832340       0.98995607 </v>
   <v>       0.31390359       0.98847368       0.27774002 </v>
   <v>       0.19771071       0.04574869       0.82333686 </v>
   <v>       0.55406902       0.84752888       0.64852010 </v>
   <v>       0.66967899       0.03981147       0.32222939 </v>
   <v>       0.29648667       0.79998904       0.48506093 </v>
   <v>       0.28223431       0.21188238       0.51173891 </v>
   <v>       0.80716212       0.69768606       0.51682372 </v>
   <v>       0.81760860       0.32788126       0.45408865 </v>
   <v>       0.30538341       0.37291472       0.94293251 </v>
   <v>       0.15016905       0.54587537       0.32495078 </v>
   <v>       0.71492627       0.49243982       0.21099828 </v>
   <v>       0.77764097       0.51084796       0.73958308 </v>
   <v>       0.49039994       0.18581854       0.69500637 </v>
   <v>       0.45870954       0.67956573       0.19140042 </v>
   <v>       0.50450789       0.28894599       0.22791428 </v>
   <v>       0.53657522       0.66124904       0.84946670 </v>
   <v>       0.49705203       0.51083213       0.50716544 </v>
   <v>       0.50980596       0.99951367       0.99251508 </v>
   <v>       0.01630320       0.49851530       0.01231200 </v>
   <v>       0.99803657       0.01615160       0.49850040 </v>
   <v>       0.11811621       0.89670058       0.62842866 </v>
   <v>       0.11345680       0.12248631       0.35627472 </v>
   <v>       0.86074438       0.89526052       0.38956387 </v>
   <v>       0.89009242       0.15276634       0.61848066 </v>
   <v>       0.89942101       0.62818015       0.13560537 </v>
   <v>       0.89594239       0.36857431       0.89241387 </v>
   <v>       0.14896583       0.60006840       0.88247129 </v>
   <v>       0.13115298       0.37467162       0.13798841 </v>
   <v>       0.64640059       0.10213280       0.86590481 </v>
   <v>       0.61397442       0.87708437       0.13103196 </v>
   <v>       0.37547448       0.13270087       0.08851740 </v>
   <v>       0.39249069       0.87393668       0.86513513 </v>
   <v>       0.61472196       0.63855692       0.38235856 </v>
   <v>       0.62496495       0.37598892       0.61017811 </v>
   <v>       0.39245937       0.63510496       0.64259311 </v>
   <v>       0.36029360       0.40733887       0.38239844 </v>
   <v>       0.75923678       0.74777159       0.75523256 </v>
   <v>       0.74071923       0.25598415       0.23818881 </v>
   <v>       0.24418537       0.76110677       0.25408525 </v>
   <v>       0.27076353       0.25296665       0.74095037 </v>
   <v>       0.00582847       0.97055570       0.99631376 </v>
   <v>       0.97970423       0.51907747       0.52703610 </v>
   <v>       0.47105570       0.01558118       0.48355105 </v>
   <v>       0.52440713       0.49245251       0.02565459 </v>
  </varray>
 </structure>
 <calculation>
  <scstep>
   <time name="dav">    2.21    2.31</time>
   <time name="total">    2.68    2.88</time>
   <energy>
    <i name="alphaZ">    301.05037098 </i>
    <i name="ewald">  -8817.79826410 </i>
    <i name="hartreedc">  -2110.14537925 </i>
    <i name="XCdc">    534.26728552 </i>
    <i name="pawpsdc">   8141.38806575 </i>
    <i name="pawaedc">  -8271.61346273 </i>
    <i name="eentropy">     -0.00546162 </i>
    <i name="bandstr">   -898.09074654 </i>
    <i name="atom">  12703.13999606 </i>
    <i name="e_fr_energy">   1582.19240407 </i>
    <i name="e_wo_entrp">   1582.19786569 </i>
    <i name="e_0_energy">   1582.19513488 </i>
   </energy>
  </scstep>
  <scstep>
   <time name="dav">    2.60    2.64</time>
   <time name="total">    2.60    2.64</time>
   <energy>
    <i name="e_fr_energy">    -56.97960839 </i>
    <i name="e_wo_entrp">    -56.97960839 </i>
    <i name="e_0_energy">    -56.97960839 </i>
   </energy>
  </scstep>
  <scstep>
   <time name="dav">    2.55    2.59</time>
   <time name="total">    2.55    2.59</time>
   <energy>
    <i name="e_fr_energy">   -228.36556427 </i>
    <i name="e_wo_entrp">   -228.36556427 </i>
    <i name="e_0_energy">   -228.36556427 </i>
   </energy>
  </scstep>
  <scstep>
   <time name="dav">    3.11    3.14</time>
   <time name="total">    3.11    3.14</time>
   <energy>
    <i name="e_fr_energy">   -241.72326696 </i>
    <i name="e_wo_entrp">   -241.72326696 </i>
    <i name="e_0_energy">   -241.72326696 </i>
   </energy>
  </scstep>
  <scstep>
   <time name="dav">    2.93    2.96</time>
   <time name="total">    2.93    2.96</time>
   <energy>
    <i name="e_fr_energy">   -241.98132293 </i>
    <i name="e_wo_entrp">   -241.98132293 </i>
    <i name="e_0_energy">   -241.98132293 </i>
   </energy>
  </scstep>
  <scstep>
   <time name="dav">    3.07    3.09</time>
   <time name="total">    3.07    3.09</time>
   <energy>
    <i name="e_fr_energy">   -241.99350063 </i>
    <i name="e_wo_entrp">   -241.99350063 </i>
    <i name="e_0_energy">   -241.99350063 </i>
   </energy>
  </scstep>
  <scstep>
   <time name="dav">    2.98    3.02</time>
   <time name="total">    2.98    3.02</time>
   <energy>
    <i name="e_fr_energy">   -241.99388787 </i>
    <i name="e_wo_entrp">   -241.99388787 </i>
    <i name="e_0_energy">   -241.99388787 </i>
   </energy>
  </scstep>
  <scstep>
   <time name="dav">    3.03    3.07</time>
   <time name="total">    3.03    3.07</time>
   <energy>
    <i name="e_fr_energy">   -241.99391008 </i>
    <i name="e_wo_entrp">   -241.99391008 </i>
    <i name="e_0_energy">   -241.99391008 </i>
   </energy>
  </scstep>
  <scstep>
   <time name="dav">    2.94    2.96</time>
   <time name="total">    2.94    2.96</time>
   <energy>
    <i name="e_fr_energy">   -241.99391150 </i>
    <i name="e_wo_entrp">   -241.99391150 </i>
    <i name="e_0_energy">   -241.99391150 </i>
   </energy>
  </scstep>
  <scstep>
   <time name="dav">    1.99    2.01</time>
   <time name="total">    2.06    2.09</time>
   <energy>
    <i name="e_fr_energy">   -241.99391156 </i>
    <i name="e_wo_entrp">   -241.99391156 </i>
    <i name="e_0_energy">   -241.99391156 </i>
   </energy>
  </scstep>
  <scstep>
   <time name="diag">    0.37    0.37</time>
   <time name="diis">    1.16    1.17</time>
   <time name="orth">    0.07    0.07</time>
   <time name="total">    2.11    2.13</time>
   <energy>
    <i name="e_fr_energy">   -236.04699188 </i>
    <i name="e_wo_entrp">   -236.04699188 </i>
    <i name="e_0_energy">   -236.04699188 </i>
   </energy>
  </scstep>
  <scstep>
   <time name="diag">    0.36    0.36</time>
   <time name="diis">    1.22    1.23</time>
   <time name="orth">    0.07    0.07</time>
   <time name="total">    2.17    2.19</time>
   <energy>
    <i name="e_fr_energy">   -255.74437274 </i>
    <i name="e_wo_entrp">   -255.74437274 </i>
    <i name="e_0_energy">   -255.74437274 </i>
   </energy>
  </scstep>
  <scstep>
   <time name="diag">    0.35    0.36</time>
   <time name="diis">    1.20    1.21</time>
   <time name="orth">    0.07    0.07</time>
   <time name="total">    2.14    2.16</time>
   <energy>
    <i name="e_fr_energy">   -258.24026285 </i>
    <i name="e_wo_entrp">   -258.24026285 </i>
    <i name="e_0_energy">   -258.24026285 </i>
   </energy>
  </scstep>
  <scstep>
   <time name="diag">    0.36    0.36</time>
   <time name="diis">    1.59    1.61</time>
   <time name="orth">    0.21    0.23</time>
   <time name="total">    2.68    2.73</time>
   <energy>
    <i name="e_fr_energy">   -258.43189390 </i>
    <i name="e_wo_entrp">   -258.43189390 </i>
    <i name="e_0_energy">   -258.43189390 </i>
   </energy>
  </scstep>
  <scstep>
   <time name="diag">    0.35    0.36</time>
   <time name="diis">    1.27    1.28</time>
   <time name="orth">    0.07    0.07</time>
   <time name="total">    2.21    2.23</time>
   <energy>
    <i name="e_fr_energy">   -258.40290123 </i>
    <i name="e_wo_entrp">   -258.40290123 </i>
    <i name="e_0_energy">   -258.40290123 </i>
   </energy>
  </scstep>
  <scstep>
   <time name="diag">    0.36    0.36</time>
   <time name="diis">    1.28    1.29</time>
   <time name="orth">    0.07    0.07</time>
   <time name="total">    2.23    2.25</time>
   <energy>
    <i name="e_fr_energy">   -258.42306708 </i>
    <i name="e_wo_entrp">   -258.42306708 </i>
    <i name="e_0_energy">   -258.42306708 </i>
   </energy>
  </scstep>
  <scstep>
   <time name="diag">    0.36    0.36</time>
   <time name="diis">    1.45    1.46</time>
   <time name="orth">    0.07    0.07</time>
   <time name="total">    2.39    2.41</time>
   <energy>
    <i name="e_fr_energy">   -258.42887533 </i>
    <i name="e_wo_entrp">   -258.42887533 </i>
    <i name="e_0_energy">   -258.42887533 </i>
   </energy>
  </scstep>
  <scstep>
   <time name="diag">    0.36    0.36</time>
   <time name="diis">    1.42    1.43</time>
   <time name="orth">    0.07    0.07</time>
   <time name="total">    2.37    2.38</time>
   <energy>
    <i name="e_fr_energy">   -258.43016050 </i>
    <i name="e_wo_entrp">   -258.43016050 </i>
    <i name="e_0_energy">   -258.43016050 </i>
   </energy>
  </scstep>
  <scstep>
   <time name="diag">    0.45    0.46</time>
   <time name="diis">    1.61    1.63</time>
   <time name="orth">    0.07    0.07</time>
   <time name="total">    2.66    2.68</time>
   <energy>
    <i name="e_fr_energy">   -258.43063232 </i>
    <i name="e_wo_entrp">   -258.43063232 </i>
    <i name="e_0_energy">   -258.43063232 </i>
   </energy>
  </scstep>
  <scstep>
   <time name="diag">    0.36    0.36</time>
   <time name="diis">    1.59    1.61</time>
   <time name="orth">    0.07    0.07</time>
   <time name="total">    2.54    2.56</time>
   <energy>
    <i name="e_fr_energy">   -258.43072540 </i>
    <i name="e_wo_entrp">   -258.43072540 </i>
    <i name="e_0_energy">   -258.43072540 </i>
   </energy>
  </scstep>
  <scstep>
   <time name="diag">    0.36    0.36</time>
   <time name="diis">    1.36    1.37</time>
   <time name="orth">    0.07    0.07</time>
   <time name="total">    2.31    2.33</time>
   <energy>
    <i name="e_fr_energy">   -258.43074436 </i>
    <i name="e_wo_entrp">   -258.43074436 </i>
    <i name="e_0_energy">   -258.43074436 </i>
   </energy>
  </scstep>
  <scstep>
   <time name="diag">    0.36    0.36</time>
   <time name="diis">    1.59    1.61</time>
   <time name="orth">    0.07    0.07</time>
   <time name="total">    2.54    2.56</time>
   <energy>
    <i name="e_fr_energy">   -258.43075230 </i>
    <i name="e_wo_entrp">   -258.43075230 </i>
    <i name="e_0_energy">   -258.43075230 </i>
   </energy>
  </scstep>
  <scstep>
   <time name="diag">    0.36    0.36</time>
   <time name="diis">    1.29    1.30</time>
   <time name="orth">    0.07    0.07</time>
   <time name="total">    2.24    2.26</time>
   <energy>
    <i name="e_fr_energy">   -258.43075194 </i>
    <i name="e_wo_entrp">   -258.43075194 </i>
    <i name="e_0_energy">   -258.43075194 </i>
   </energy>
  </scstep>
  <scstep>
   <time name="diag">    0.36    0.36</time>
   <time name="diis">    1.02    1.03</time>
   <time name="orth">    0.07    0.07</time>
   <time name="total">    1.90    1.92</time>
   <energy>
    <i name="alphaZ">    301.05037098 </i>
    <i name="ewald">  -8817.79826410 </i>
    <i name="hartreedc">  -2208.99315757 </i>
    <i name="XCdc">    537.84177754 </i>
    <i name="pawpsdc">   9814.40537305 </i>
    <i name="pawaedc">  -9958.35391074 </i>
    <i name="eentropy">     -0.00000000 </i>
    <i name="bandstr">  -2629.72293632 </i>
    <i name="atom">  12703.13999606 </i>
    <i name="e_fr_energy">   -258.43075109 </i>
    <i name="e_wo_entrp">   -258.43075109 </i>
    <i name="e_0_energy">   -258.43075109 </i>
   </energy>
  </scstep>
  <structure>
   <crystal>
    <varray name="basis" >
     <v>       9.66097359       0.00000000       0.00000000 </v>
     <v>       0.00000000       9.66097359       0.00000000 </v>
     <v>       0.00000000       0.00000000       9.66097359 </v>
    </varray>
    <i name="volume">    901.70127608 </i>
    <varray name="rec_basis" >
     <v>       0.10350924       0.00000000       0.00000000 </v>
     <v>       0.00000000       0.10350924       0.00000000 </v>
     <v>       0.00000000       0.00000000       0.10350924 </v>
    </varray>
   </crystal>
   <varray name="positions" >
    <v>       0.96096932       0.18505547       0.15257744 </v>
    <v>       0.00294811       0.69593373       0.71204245 </v>
    <v>       0.05756205       0.33906119       0.69803458 </v>
    <v>       0.02218674       0.83856678       0.21720706 </v>
    <v>       0.85322484       0.97759188       0.78710218 </v>
    <v>       0.21164643       0.79529478       0.01784699 </v>
    <v>       0.69155679       0.29595316       0.00545538 </v>
    <v>       0.80486319       0.79832340       0.98995607 </v>
    <v>       0.31390359       0.98847368       0.27774002 </v>
    <v>       0.19771071       0.04574869       0.82333686 </v>
    <v>       0.55406902       0.84752888       0.64852010 </v>
    <v>       0.66967899       0.03981147       0.32222939 </v>
    <v>       0.29648667       0.79998904       0.48506093 </v>
    <v>       0.28223431       0.21188238       0.51173891 </v>
    <v>       0.80716212       0.69768606       0.51682372 </v>
    <v>       0.81760860       0.32788126       0.45408865 </v>
    <v>       0.30538341       0.37291472       0.94293251 </v>
    <v>       0.15016905       0.54587537       0.32495078 </v>
    <v>       0.71492627       0.49243982       0.21099828 </v>
    <v>       0.77764097       0.51084796       0.73958308 </v>
    <v>       0.49039994       0.18581854       0.69500637 </v>
    <v>       0.45870954       0.67956573       0.19140042 </v>
    <v>       0.50450789       0.28894599       0.22791428 </v>
    <v>       0.53657522       0.66124904       0.84946670 </v>
    <v>       0.49705203       0.51083213       0.50716544 </v>
    <v>       0.50980596       0.99951367       0.99251508 </v>
    <v>       0.01630320       0.49851530       0.01231200 </v>
    <v>       0.99803657       0.01615160       0.49850040 </v>
    <v>       0.11811621       0.89670058       0.62842866 </v>
    <v>       0.11345680       0.12248631       0.35627472 </v>
    <v>       0.86074438       0.89526052       0.38956387 </v>
    <v>       0.89009242       0.15276634       0.61848066 </v>
    <v>       0.89942101       0.62818015       0.13560537 </v>
    <v>       0.89594239       0.36857431       0.89241387 </v>
    <v>       0.14896583       0.60006840       0.88247129 </v>
    <v>       0.13115298       0.37467162       0.13798841 </v>
    <v>       0.64640059       0.10213280       0.86590481 </v>
    <v>       0.61397442       0.87708437       0.13103196 </v>
    <v>       0.37547448       0.13270087       0.08851740 </v>
    <v>       0.39249069       0.87393668       0.86513513 </v>
    <v>       0.61472196       0.63855692       0.38235856 </v>
    <v>       0.62496495       0.37598892       0.61017811 </v>
    <v>       0.39245937       0.63510496       0.64259311 </v>
    <v>       0.36029360       0.40733887       0.38239844 </v>
    <v>       0.75923678       0.74777159       0.75523256 </v>
    <v>       0.74071923       0.25598415       0.23818881 </v>
    <v>       0.24418537       0.76110677       0.25408525 </v>
    <v>       0.27076353       0.25296665       0.74095037 </v>
    <v>       0.00582847       0.97055570       0.99631376 </v>
    <v>       0.97970423       0.51907747       0.52703610 </v>
    <v>       0.47105570       0.01558118       0.48355105 </v>
    <v>       0.52440713       0.49245251       0.02565459 </v>
   </varray>
  </structure>
  <varray name="forces" >
   <v>       0.00010733       0.00010978      -0.00022841 </v>
   <v>      -0.00019856      -0.00058997      -0.00025492 </v>
   <v>       0.00018849       0.00050827      -0.00022624 </v>
   <v>      -0.00005027       0.00024748       0.00012871 </v>
   <v>       0.00011299      -0.00014595      -0.00027609 </v>
   <v>      -0.00018188       0.00030575      -0.00016224 </v>
   <v>       0.00015501      -0.00015366       0.00020421 </v>
   <v>       0.00006686       0.00023246       0.00002981 </v>
   <v>       0.00037208      -0.00013906      -0.00002900 </v>
   <v>      -0.00025764       0.00045768      -0.00012082 </v>
   <v>       0.00015107      -0.00056489      -0.00086809 </v>
   <v>       0.00027023      -0.00016371      -0.00009641 </v>
   <v>      -0.00041759      -0.00032370       0.00007470 </v>
   <v>      -0.00002507       0.00000980      -0.00018105 </v>
   <v>       0.00012154      -0.00080463       0.00013142 </v>
   <v>       0.00060960       0.00024960      -0.00002214 </v>
   <v>       0.00024149       0.00026206      -0.00017081 </v>
   <v>      -0.00013583       0.00006874      -0.00006463 </v>
   <v>      -0.00011871       0.00004970       0.00010195 </v>
   <v>      -0.00212007      -0.00007013       0.00220750 </v>
   <v>       0.00014110      -0.00024218      -0.00014189 </v>
   <v>      -0.00023429      -0.00033513      -0.00001085 </v>
   <v>       0.00017813      -0.00046317       0.00059856 </v>
   <v>      -0.00054772       0.00112180       0.00055735 </v>
   <v>      -0.00178250      -0.00171816       0.00151779 </v>
   <v>       0.00132492      -0.00008856       0.00060788 </v>
   <v>       0.00107117       0.00137516      -0.00038240 </v>
   <v>      -0.00151994      -0.00001511       0.00006480 </v>
   <v>       0.00018037      -0.00037613       0.00055124 </v>
   <v>       0.00029376      -0.00010796      -0.00057343 </v>
   <v>       0.00023722       0.00001382       0.00067075 </v>
   <v>       0.00047368      -0.00012376      -0.00037605 </v>
   <v>      -0.00000251       0.00000961       0.00004191 </v>
   <v>      -0.00017673      -0.00085748      -0.00034985 </v>
   <v>      -0.00054434      -0.00046155       0.00069858 </v>
   <v>       0.00035112      -0.00011757       0.00014574 </v>
   <v>      -0.00001067      -0.00012429       0.00020346 </v>
   <v>      -0.00060564       0.00017404      -0.00049232 </v>
   <v>      -0.00013010       0.00048213       0.00015865 </v>
   <v>      -0.00065341       0.00021505      -0.00076570 </v>
   <v>       0.00071398       0.00134774      -0.00087852 </v>
   <v>      -0.00021392       0.00012179      -0.00055957 </v>
   <v>       0.00033862      -0.00056810      -0.00016014 </v>
   <v>       0.00036411       0.00051494       0.00046731 </v>
   <v>      -0.00014512      -0.00002766       0.00000170 </v>
   <v>       0.00037201      -0.00007889       0.00018376 </v>
   <v>      -0.00001790      -0.00011464      -0.00013192 </v>
   <v>       0.00017647       0.00028440      -0.00000691 </v>
   <v>      -0.00008095       0.00062516       0.00000785 </v>
   <v>       0.00103481      -0.00022455      -0.00109160 </v>
   <v>       0.00029719      -0.00002319      -0.00011792 </v>
   <v>       0.00022597       0.00023679      -0.00061571 </v>
  </varray>
  <varray name="stress" >
   <v>      -0.59052347       1.41398520       1.09803618 </v>
   <v>       1.41398488      -0.31290575      -3.66960435 </v>
   <v>       1.09803591      -3.66960430       0.90991070 </v>
  </varray>
  <energy>
   <i name="e_fr_energy">   -271.99918267 </i>
   <i name="e_wo_entrp">   -271.99918267 </i>
   <i name="e_0_energy">   -271.99918267 </i>
  </energy>
  <time name="totalsc">   63.52   64.35</time>
 </calculation>
 <calculation>
  <scstep>
   <time name="dav">    2.26    2.28</time>
   <time name="total">    2.78    2.81</time>
   <energy>
    <i name="alphaZ">    301.05037098 </i>
    <i name="ewald">  -8817.80413467 </i>
    <i name="hartreedc">  -2208.99257438 </i>
    <i name="XCdc">    537.84176865 </i>
    <i name="pawpsdc">   9814.38874470 </i>
    <i name="pawaedc">  -9958.33718801 </i>
    <i name="eentropy">     -0.00000000 </i>
    <i name="bandstr">  -2629.71773486 </i>
    <i name="atom">  12703.13999606 </i>
    <i name="e_fr_energy">   -258.43075153 </i>
    <i name="e_wo_entrp">   -258.43075153 </i>
    <i name="e_0_energy">   -258.43075153 </i>
   </energy>
  </scstep>
  <scstep>
   <time name="diag">    0.36    0.37</time>
   <time name="diis">    0.82    0.83</time>
   <time name="orth">    0.22    0.22</time>
   <time name="total">    1.86    1.88</time>
   <energy>
    <i name="alphaZ">    301.05037098 </i>
    <i name="ewald">  -8817.80413467 </i>
    <i name="hartreedc">  -2208.99488364 </i>
    <i name="XCdc">    537.84165635 </i>
    <i name="pawpsdc">   9814.37008883 </i>
    <i name="pawaedc">  -9958.31810495 </i>
    <i name="eentropy">     -0.00000000 </i>
    <i name="bandstr">  -2629.71574074 </i>
    <i name="atom">  12703.13999606 </i>
    <i name="e_fr_energy">   -258.43075178 </i>
    <i name="e_wo_entrp">   -258.43075178 </i>
    <i name="e_0_energy">   -258.43075178 </i>
   </energy>
  </scstep>
  <structure>
   <crystal>
    <varray name="basis" >
     <v>       9.66097359       0.00000000       0.00000000 </v>
     <v>       0.00000000       9.66097359       0.00000000 </v>
     <v>       0.00000000       0.00000000       9.66097359 </v>
    </varray>
    <i name="volume">    901.70127608 </i>
    <varray name="rec_basis" >
     <v>       0.10350924       0.00000000       0.00000000 </v>
     <v>       0.00000000       0.10350924       0.00000000 </v>
     <v>       0.00000000       0.00000000       0.10350924 </v>
    </varray>
   </crystal>
   <varray name="positions" >
    <v>       0.96096953       0.18505569       0.15257698 </v>
    <v>       0.00294771       0.69593255       0.71204194 </v>
    <v>       0.05756242       0.33906221       0.69803412 </v>
    <v>       0.02218664       0.83856727       0.21720732 </v>
    <v>       0.85322506       0.97759159       0.78710163 </v>
    <v>       0.21164607       0.79529539       0.01784667 </v>
    <v>       0.69155710       0.29595285       0.00545579 </v>
    <v>       0.80486332       0.79832387       0.98995613 </v>
    <v>       0.31390434       0.98847340       0.27773996 </v>
    <v>       0.19771020       0.04574960       0.82333662 </v>
    <v>       0.55406932       0.84752775       0.64851837 </v>
    <v>       0.66967953       0.03981114       0.32222920 </v>
    <v>       0.29648584       0.79998840       0.48506108 </v>
    <v>       0.28223426       0.21188240       0.51173855 </v>
    <v>       0.80716237       0.69768445       0.51682398 </v>
    <v>       0.81760981       0.32788175       0.45408860 </v>
    <v>       0.30538389       0.37291524       0.94293217 </v>
    <v>       0.15016878       0.54587551       0.32495065 </v>
    <v>       0.71492603       0.49243992       0.21099848 </v>
    <v>       0.77763673       0.51084782       0.73958749 </v>
    <v>       0.49040023       0.18581806       0.69500609 </v>
    <v>       0.45870908       0.67956506       0.19140040 </v>
    <v>       0.50450825       0.28894506       0.22791548 </v>
    <v>       0.53657413       0.66125128       0.84946781 </v>
    <v>       0.49704847       0.51082870       0.50716847 </v>
    <v>       0.50980861       0.99951349       0.99251630 </v>
    <v>       0.01630534       0.49851805       0.01231124 </v>
    <v>       0.99803353       0.01615157       0.49850053 </v>
    <v>       0.11811657       0.89669983       0.62842976 </v>
    <v>       0.11345739       0.12248610       0.35627357 </v>
    <v>       0.86074485       0.89526055       0.38956521 </v>
    <v>       0.89009337       0.15276609       0.61847991 </v>
    <v>       0.89942101       0.62818017       0.13560545 </v>
    <v>       0.89594204       0.36857260       0.89241317 </v>
    <v>       0.14896475       0.60006747       0.88247269 </v>
    <v>       0.13115369       0.37467139       0.13798870 </v>
    <v>       0.64640057       0.10213255       0.86590522 </v>
    <v>       0.61397321       0.87708472       0.13103097 </v>
    <v>       0.37547422       0.13270184       0.08851771 </v>
    <v>       0.39248939       0.87393711       0.86513360 </v>
    <v>       0.61472338       0.63855961       0.38235681 </v>
    <v>       0.62496452       0.37598917       0.61017699 </v>
    <v>       0.39246005       0.63510383       0.64259279 </v>
    <v>       0.36029433       0.40733990       0.38239938 </v>
    <v>       0.75923649       0.74777154       0.75523256 </v>
    <v>       0.74071997       0.25598399       0.23818918 </v>
    <v>       0.24418533       0.76110654       0.25408498 </v>
    <v>       0.27076388       0.25296722       0.74095036 </v>
    <v>       0.00582831       0.97055695       0.99631378 </v>
    <v>       0.97970630       0.51907702       0.52703392 </v>
    <v>       0.47105629       0.01558114       0.48355081 </v>
    <v>       0.52440758       0.49245298       0.02565336 </v>
   </varray>
  </structure>
  <varray name="forces" >
   <v>       0.00011784       0.00009685      -0.00018084 </v>
   <v>      -0.00009362      -0.00029352      -0.00020209 </v>
   <v>       0.00012265       0.00032884      -0.00017236 </v>
   <v>       0.00001196       0.00020566       0.00005973 </v>
   <v>       0.00012399      -0.00010265      -0.00017933 </v>
   <v>      -0.00007351       0.00025294      -0.00009260 </v>
   <v>       0.00014257      -0.00005408       0.00004830 </v>
   <v>       0.00010155       0.00013116      -0.00003101 </v>
   <v>       0.00022115      -0.00007934      -0.00003406 </v>
   <v>      -0.00013551       0.00026700      -0.00009281 </v>
   <v>       0.00018186      -0.00030900      -0.00057761 </v>
   <v>       0.00015707      -0.00005462      -0.00006308 </v>
   <v>      -0.00023174      -0.00015313      -0.00001697 </v>
   <v>      -0.00003937      -0.00006034      -0.00014633 </v>
   <v>       0.00000525      -0.00048173      -0.00001928 </v>
   <v>       0.00043027       0.00021028      -0.00010620 </v>
   <v>       0.00017769       0.00013241      -0.00010751 </v>
   <v>      -0.00012329       0.00006417      -0.00008128 </v>
   <v>      -0.00002180       0.00011017       0.00005746 </v>
   <v>      -0.00125415      -0.00006780       0.00131276 </v>
   <v>       0.00006779      -0.00018691      -0.00010083 </v>
   <v>      -0.00009083      -0.00022688       0.00001454 </v>
   <v>       0.00013517      -0.00025875       0.00029319 </v>
   <v>      -0.00029575       0.00069338       0.00032692 </v>
   <v>      -0.00034779      -0.00044540       0.00037132 </v>
   <v>       0.00035015       0.00007534       0.00011915 </v>
   <v>       0.00029978       0.00040103      -0.00006597 </v>
   <v>      -0.00029376      -0.00007624      -0.00002077 </v>
   <v>      -0.00004691      -0.00001689       0.00010487 </v>
   <v>       0.00009659      -0.00027665      -0.00005296 </v>
   <v>      -0.00004801      -0.00033646       0.00013073 </v>
   <v>       0.00010419       0.00018602       0.00007493 </v>
   <v>      -0.00010948       0.00006316      -0.00002659 </v>
   <v>       0.00012875      -0.00010675      -0.00005190 </v>
   <v>       0.00003464       0.00021079      -0.00011298 </v>
   <v>       0.00012143       0.00003533      -0.00006489 </v>
   <v>       0.00014952       0.00009296      -0.00002957 </v>
   <v>      -0.00005259      -0.00024406       0.00001331 </v>
   <v>       0.00008158       0.00008638       0.00003721 </v>
   <v>      -0.00017784       0.00037700      -0.00025106 </v>
   <v>      -0.00015878       0.00003434       0.00019590 </v>
   <v>       0.00022685      -0.00009647      -0.00015839 </v>
   <v>      -0.00001674       0.00002053       0.00016011 </v>
   <v>      -0.00002026      -0.00006434      -0.00016464 </v>
   <v>      -0.00001339      -0.00009524      -0.00001882 </v>
   <v>       0.00005140       0.00014797      -0.00001742 </v>
   <v>      -0.00001316       0.00014625      -0.00010983 </v>
   <v>       0.00011124       0.00007631      -0.00017650 </v>
   <v>       0.00000074      -0.00043173      -0.00002157 </v>
   <v>      -0.00029540       0.00010568       0.00011241 </v>
   <v>      -0.00039446      -0.00000623      -0.00006527 </v>
   <v>       0.00059445      -0.00002673       0.00018049 </v>
  </varray>
  <varray name="stress" >
   <v>      -0.59965143       1.41269620       1.09836982 </v>
   <v>       1.41269586      -0.32240534      -3.66859106 </v>
   <v>       1.09836968      -3.66859103       0.90036989 </v>
  </varray>
  <energy>
   <i name="e_fr_energy">   -271.99918386 </i>
   <i name="e_wo_entrp">   -271.99918386 </i>
   <i name="e_0_energy">   -271.99918386 </i>
  </energy>
  <time name="totalsc">    7.78    7.88</time>
 </calculation>
 <calculation>
  <scstep>
   <time name="dav">    2.05    2.07</time>
   <time name="total">    2.57    2.59</time>
   <energy>
    <i name="alphaZ">    301.05037098 </i>
    <i name="ewald">  -8817.80645063 </i>
    <i name="hartreedc">  -2208.99374904 </i>
    <i name="XCdc">    537.84152543 </i>
    <i name="pawpsdc">   9814.35583945 </i>
    <i name="pawaedc">  -9958.30348277 </i>
    <i name="eentropy">     -0.00000000 </i>
    <i name="bandstr">  -2629.71480128 </i>
    <i name="atom">  12703.13999606 </i>
    <i name="e_fr_energy">   -258.43075179 </i>
    <i name="e_wo_entrp">   -258.43075179 </i>
    <i name="e_0_energy">   -258.43075179 </i>
   </energy>
  </scstep>
  <scstep>
   <time name="diag">    0.36    0.36</time>
   <time name="diis">    0.81    0.81</time>
   <time name="orth">    0.07    0.07</time>
   <time name="total">    1.69    1.70</time>
   <energy>
    <i name="alphaZ">    301.05037098 </i>
    <i name="ewald">  -8817.80645063 </i>
    <i name="hartreedc">  -2208.99391786 </i>
    <i name="XCdc">    537.84143024 </i>
    <i name="pawpsdc">   9814.34410058 </i>
    <i name="pawaedc">  -9958.29155037 </i>
    <i name="eentropy">     -0.00000000 </i>
    <i name="bandstr">  -2629.71473083 </i>
    <i name="atom">  12703.13999606 </i>
    <i name="e_fr_energy">   -258.43075182 </i>
    <i name="e_wo_entrp">   -258.43075182 </i>
    <i name="e_0_energy">   -258.43075182 </i>
   </energy>
  </scstep>
  <structure>
   <crystal>
    <varray name="basis" >
     <v>       9.66097359       0.00000000       0.00000000 </v>
     <v>       0.00000000       9.66097359       0.00000000 </v>
     <v>       0.00000000       0.00000000       9.66097359 </v>
    </varray>
    <i name="volume">    901.70127608 </i>
    <varray name="rec_basis" >
     <v>       0.10350924       0.00000000       0.00000000 </v>
     <v>       0.00000000       0.10350924       0.00000000 </v>
     <v>       0.00000000       0.00000000       0.10350924 </v>
    </varray>
   </crystal>
   <varray name="positions" >
    <v>       0.96096962       0.18505578       0.15257680 </v>
    <v>       0.00294756       0.69593209       0.71204174 </v>
    <v>       0.05756257       0.33906261       0.69803395 </v>
    <v>       0.02218660       0.83856747       0.21720742 </v>
    <v>       0.85322515       0.97759148       0.78710142 </v>
    <v>       0.21164592       0.79529563       0.01784654 </v>
    <v>       0.69155722       0.29595273       0.00545595 </v>
    <v>       0.80486338       0.79832405       0.98995615 </v>
    <v>       0.31390463       0.98847329       0.27773993 </v>
    <v>       0.19770999       0.04574996       0.82333652 </v>
    <v>       0.55406944       0.84752730       0.64851768 </v>
    <v>       0.66967974       0.03981101       0.32222913 </v>
    <v>       0.29648551       0.79998814       0.48506114 </v>
    <v>       0.28223424       0.21188241       0.51173841 </v>
    <v>       0.80716246       0.69768382       0.51682408 </v>
    <v>       0.81761029       0.32788195       0.45408858 </v>
    <v>       0.30538408       0.37291545       0.94293203 </v>
    <v>       0.15016867       0.54587556       0.32495060 </v>
    <v>       0.71492594       0.49243996       0.21099856 </v>
    <v>       0.77763506       0.51084776       0.73958923 </v>
    <v>       0.49040034       0.18581787       0.69500598 </v>
    <v>       0.45870889       0.67956480       0.19140039 </v>
    <v>       0.50450839       0.28894470       0.22791595 </v>
    <v>       0.53657370       0.66125216       0.84946825 </v>
    <v>       0.49704707       0.51082735       0.50716967 </v>
    <v>       0.50980965       0.99951342       0.99251678 </v>
    <v>       0.01630619       0.49851913       0.01231094 </v>
    <v>       0.99803233       0.01615156       0.49850058 </v>
    <v>       0.11811671       0.89669953       0.62843020 </v>
    <v>       0.11345762       0.12248601       0.35627312 </v>
    <v>       0.86074504       0.89526056       0.38956574 </v>
    <v>       0.89009374       0.15276599       0.61847962 </v>
    <v>       0.89942100       0.62818018       0.13560548 </v>
    <v>       0.89594190       0.36857192       0.89241289 </v>
    <v>       0.14896432       0.60006711       0.88247324 </v>
    <v>       0.13115396       0.37467130       0.13798881 </v>
    <v>       0.64640056       0.10213245       0.86590538 </v>
    <v>       0.61397273       0.87708486       0.13103058 </v>
    <v>       0.37547412       0.13270222       0.08851784 </v>
    <v>       0.39248887       0.87393728       0.86513300 </v>
    <v>       0.61472395       0.63856067       0.38235612 </v>
    <v>       0.62496436       0.37598926       0.61017655 </v>
    <v>       0.39246032       0.63510338       0.64259267 </v>
    <v>       0.36029462       0.40734031       0.38239974 </v>
    <v>       0.75923638       0.74777152       0.75523257 </v>
    <v>       0.74072026       0.25598393       0.23818933 </v>
    <v>       0.24418532       0.76110645       0.25408488 </v>
    <v>       0.27076402       0.25296744       0.74095035 </v>
    <v>       0.00582824       0.97055744       0.99631378 </v>
    <v>       0.97970712       0.51907684       0.52703306 </v>
    <v>       0.47105653       0.01558112       0.48355072 </v>
    <v>       0.52440776       0.49245317       0.02565288 </v>
   </varray>
  </structure>
  <varray name="forces" >
   <v>       0.00014459       0.00010962      -0.00022666 </v>
   <v>      -0.00012344      -0.00040261      -0.00025221 </v>
   <v>       0.00016134       0.00042436      -0.00021209 </v>
   <v>       0.00000536       0.00025194       0.00009170 </v>
   <v>       0.00015707      -0.00013246      -0.00022726 </v>
   <v>      -0.00009972       0.00032158      -0.00011768 </v>
   <v>       0.00018685      -0.00010672       0.00012389 </v>
   <v>       0.00011670       0.00018236      -0.00001461 </v>
   <v>       0.00029895      -0.00010732      -0.00003752 </v>
   <v>      -0.00018442       0.00034812      -0.00009614 </v>
   <v>       0.00023765      -0.00046717      -0.00083205 </v>
   <v>       0.00021914      -0.00009161      -0.00006688 </v>
   <v>      -0.00031929      -0.00023375      -0.00000204 </v>
   <v>      -0.00005006      -0.00005890      -0.00015306 </v>
   <v>       0.00002332      -0.00062386       0.00000253 </v>
   <v>       0.00055771       0.00026103      -0.00011577 </v>
   <v>       0.00023279       0.00017238      -0.00012279 </v>
   <v>      -0.00015679       0.00006414      -0.00006831 </v>
   <v>      -0.00006868       0.00013462       0.00011608 </v>
   <v>      -0.00189780      -0.00009568       0.00199620 </v>
   <v>       0.00009483      -0.00023768      -0.00011763 </v>
   <v>      -0.00013280      -0.00030112       0.00002368 </v>
   <v>       0.00018088      -0.00037763       0.00044798 </v>
   <v>      -0.00045607       0.00100629       0.00050391 </v>
   <v>       0.00011716       0.00001448      -0.00002733 </v>
   <v>      -0.00003502       0.00013945      -0.00004871 </v>
   <v>       0.00001380      -0.00000610       0.00010154 </v>
   <v>       0.00013359      -0.00008918      -0.00006418 </v>
   <v>      -0.00013044       0.00002605       0.00006271 </v>
   <v>      -0.00000619      -0.00030510       0.00003299 </v>
   <v>      -0.00013160      -0.00035258       0.00010441 </v>
   <v>       0.00001299       0.00021036       0.00012770 </v>
   <v>      -0.00007875       0.00005665      -0.00003358 </v>
   <v>       0.00021818      -0.00001666       0.00001732 </v>
   <v>       0.00015838       0.00029994      -0.00023712 </v>
   <v>       0.00008741       0.00008283      -0.00009294 </v>
   <v>       0.00019833       0.00009800      -0.00003720 </v>
   <v>       0.00003769      -0.00028637       0.00009371 </v>
   <v>       0.00014168       0.00001026      -0.00000064 </v>
   <v>      -0.00009984       0.00042361      -0.00015160 </v>
   <v>      -0.00032311      -0.00016635       0.00036980 </v>
   <v>       0.00022781      -0.00017674      -0.00007744 </v>
   <v>      -0.00012476       0.00001637       0.00025117 </v>
   <v>      -0.00012484      -0.00013226      -0.00020301 </v>
   <v>      -0.00000896      -0.00007169       0.00000254 </v>
   <v>      -0.00000061       0.00013761      -0.00002506 </v>
   <v>      -0.00001808       0.00013275      -0.00008208 </v>
   <v>       0.00005829      -0.00000395      -0.00016763 </v>
   <v>      -0.00003914      -0.00015675      -0.00000677 </v>
   <v>       0.00016530      -0.00000198      -0.00034289 </v>
   <v>      -0.00022472      -0.00000074      -0.00009325 </v>
   <v>       0.00064736       0.00007817      -0.00011572 </v>
  </varray>
  <varray name="stress" >
   <v>      -0.60263939       1.41236377       1.09852923 </v>
   <v>       1.41236346      -0.32555748      -3.66826464 </v>
   <v>       1.09852905      -3.66826432       0.89727189 </v>
  </varray>
  <energy>
   <i name="e_fr_energy">   -271.99918410 </i>
   <i name="e_wo_entrp">   -271.99918410 </i>
   <i name="e_0_energy">   -271.99918410 </i>
  </energy>
  <time name="totalsc">    7.33    7.41</time>
 </calculation>
 <calculation>
  <scstep>
   <time name="dav">    2.48    2.50</time>
   <time name="total">    3.00    3.03</time>
   <energy>
    <i name="alphaZ">    301.05037098 </i>
    <i name="ewald">  -8817.81108161 </i>
    <i name="hartreedc">  -2208.98984035 </i>
    <i name="XCdc">    537.84132273 </i>
    <i name="pawpsdc">   9814.33618791 </i>
    <i name="pawaedc">  -9958.28353252 </i>
    <i name="eentropy">     -0.00000000 </i>
    <i name="bandstr">  -2629.71417476 </i>
    <i name="atom">  12703.13999606 </i>
    <i name="e_fr_energy">   -258.43075155 </i>
    <i name="e_wo_entrp">   -258.43075155 </i>
    <i name="e_0_energy">   -258.43075155 </i>
   </energy>
  </scstep>
  <scstep>
   <time name="diag">    0.36    0.37</time>
   <time name="diis">    0.79    0.79</time>
   <time name="orth">    0.07    0.07</time>
   <time name="total">    1.67    1.68</time>
   <energy>
    <i name="alphaZ">    301.05037098 </i>
    <i name="ewald">  -8817.81108161 </i>
    <i name="hartreedc">  -2208.98973535 </i>
    <i name="XCdc">    537.84128339 </i>
    <i name="pawpsdc">   9814.33065324 </i>
    <i name="pawaedc">  -9958.27794400 </i>
    <i name="eentropy">     -0.00000000 </i>
    <i name="bandstr">  -2629.71429433 </i>
    <i name="atom">  12703.13999606 </i>
    <i name="e_fr_energy">   -258.43075162 </i>
    <i name="e_wo_entrp">   -258.43075162 </i>
    <i name="e_0_energy">   -258.43075162 </i>
   </energy>
  </scstep>
  <structure>
   <crystal>
    <varray name="basis" >
     <v>       9.66097359       0.00000000       0.00000000 </v>
     <v>       0.00000000       9.66097359       0.00000000 </v>
     <v>       0.00000000       0.00000000       9.66097359 </v>
    </varray>
    <i name="volume">    901.70127608 </i>
    <varray name="rec_basis" >
     <v>       0.10350924       0.00000000       0.00000000 </v>
     <v>       0.00000000       0.10350924       0.00000000 </v>
     <v>       0.00000000       0.00000000       0.10350924 </v>
    </varray>
   </crystal>
   <varray name="positions" >
    <v>       0.96096979       0.18505595       0.15257644 </v>
    <v>       0.00294724       0.69593116       0.71204134 </v>
    <v>       0.05756287       0.33906341       0.69803359 </v>
    <v>       0.02218652       0.83856786       0.21720762 </v>
    <v>       0.85322533       0.97759125       0.78710098 </v>
    <v>       0.21164564       0.79529611       0.01784628 </v>
    <v>       0.69155746       0.29595249       0.00545627 </v>
    <v>       0.80486348       0.79832442       0.98995620 </v>
    <v>       0.31390522       0.98847307       0.27773989 </v>
    <v>       0.19770959       0.04575069       0.82333633 </v>
    <v>       0.55406968       0.84752641       0.64851632 </v>
    <v>       0.66968017       0.03981076       0.32222897 </v>
    <v>       0.29648485       0.79998763       0.48506126 </v>
    <v>       0.28223420       0.21188242       0.51173812 </v>
    <v>       0.80716265       0.69768255       0.51682429 </v>
    <v>       0.81761125       0.32788235       0.45408855 </v>
    <v>       0.30538446       0.37291586       0.94293176 </v>
    <v>       0.15016846       0.54587567       0.32495050 </v>
    <v>       0.71492575       0.49244004       0.21099872 </v>
    <v>       0.77763172       0.51084765       0.73959271 </v>
    <v>       0.49040056       0.18581748       0.69500576 </v>
    <v>       0.45870852       0.67956427       0.19140037 </v>
    <v>       0.50450867       0.28894397       0.22791690 </v>
    <v>       0.53657283       0.66125393       0.84946913 </v>
    <v>       0.49704426       0.51082464       0.50717206 </v>
    <v>       0.50981174       0.99951329       0.99251773 </v>
    <v>       0.01630788       0.49852130       0.01231034 </v>
    <v>       0.99802994       0.01615154       0.49850068 </v>
    <v>       0.11811700       0.89669894       0.62843107 </v>
    <v>       0.11345808       0.12248584       0.35627222 </v>
    <v>       0.86074541       0.89526058       0.38956680 </v>
    <v>       0.89009449       0.15276580       0.61847902 </v>
    <v>       0.89942100       0.62818019       0.13560555 </v>
    <v>       0.89594162       0.36857057       0.89241234 </v>
    <v>       0.14896346       0.60006638       0.88247434 </v>
    <v>       0.13115452       0.37467111       0.13798904 </v>
    <v>       0.64640055       0.10213225       0.86590570 </v>
    <v>       0.61397177       0.87708513       0.13102981 </v>
    <v>       0.37547391       0.13270298       0.08851809 </v>
    <v>       0.39248784       0.87393762       0.86513179 </v>
    <v>       0.61472507       0.63856280       0.38235473 </v>
    <v>       0.62496402       0.37598946       0.61017567 </v>
    <v>       0.39246085       0.63510248       0.64259242 </v>
    <v>       0.36029519       0.40734112       0.38240048 </v>
    <v>       0.75923615       0.74777147       0.75523257 </v>
    <v>       0.74072085       0.25598380       0.23818962 </v>
    <v>       0.24418529       0.76110627       0.25408467 </v>
    <v>       0.27076430       0.25296789       0.74095034 </v>
    <v>       0.00582812       0.97055843       0.99631380 </v>
    <v>       0.97970875       0.51907649       0.52703134 </v>
    <v>       0.47105699       0.01558108       0.48355053 </v>
    <v>       0.52440811       0.49245354       0.02565191 </v>
   </varray>
  </structure>
  <varray name="forces" >
   <v>       0.00014175       0.00010928      -0.00019108 </v>
   <v>      -0.00010983      -0.00033789      -0.00025361 </v>
   <v>       0.00012927       0.00036536      -0.00018099 </v>
   <v>       0.00002663       0.00022527       0.00006549 </v>
   <v>       0.00014760      -0.00011760      -0.00018110 </v>
   <v>      -0.00007009       0.00031822      -0.00009189 </v>
   <v>       0.00017735      -0.00007982       0.00009330 </v>
   <v>       0.00011441       0.00014178      -0.00003059 </v>
   <v>       0.00023038      -0.00007331      -0.00003813 </v>
   <v>      -0.00016395       0.00028936      -0.00008400 </v>
   <v>       0.00020994      -0.00035473      -0.00067280 </v>
   <v>       0.00018663      -0.00006337      -0.00004887 </v>
   <v>      -0.00028158      -0.00018948      -0.00002504 </v>
   <v>      -0.00007391      -0.00008183      -0.00010919 </v>
   <v>      -0.00001385      -0.00057403      -0.00004243 </v>
   <v>       0.00049596       0.00025468      -0.00015128 </v>
   <v>       0.00020412       0.00011290      -0.00008193 </v>
   <v>      -0.00014406       0.00004726      -0.00006354 </v>
   <v>      -0.00005258       0.00016107       0.00012102 </v>
   <v>      -0.00151888      -0.00008478       0.00160324 </v>
   <v>       0.00005393      -0.00021509      -0.00009388 </v>
   <v>      -0.00009029      -0.00028125       0.00005078 </v>
   <v>       0.00015552      -0.00032516       0.00036744 </v>
   <v>      -0.00036087       0.00080938       0.00039524 </v>
   <v>       0.00098161       0.00086212      -0.00076713 </v>
   <v>      -0.00073791       0.00025757      -0.00038089 </v>
   <v>      -0.00052224      -0.00072084       0.00037378 </v>
   <v>       0.00090684      -0.00012157      -0.00013491 </v>
   <v>      -0.00034761       0.00016311      -0.00007813 </v>
   <v>      -0.00020872      -0.00046386       0.00019354 </v>
   <v>      -0.00036884      -0.00054466       0.00000471 </v>
   <v>      -0.00015345       0.00040618       0.00029300 </v>
   <v>      -0.00005694       0.00007343      -0.00005176 </v>
   <v>       0.00048294       0.00019628       0.00023453 </v>
   <v>       0.00051963       0.00059852      -0.00058732 </v>
   <v>       0.00001648       0.00021354      -0.00020660 </v>
   <v>       0.00032473       0.00015810      -0.00010556 </v>
   <v>       0.00020477      -0.00051088       0.00032174 </v>
   <v>       0.00030972      -0.00011441      -0.00009425 </v>
   <v>       0.00008160       0.00066470       0.00001979 </v>
   <v>      -0.00084780      -0.00065084       0.00090567 </v>
   <v>       0.00033449      -0.00040082       0.00004328 </v>
   <v>      -0.00033648       0.00011604       0.00050214 </v>
   <v>      -0.00042007      -0.00031479      -0.00037497 </v>
   <v>      -0.00006094      -0.00005060       0.00002232 </v>
   <v>       0.00014091       0.00006053       0.00005303 </v>
   <v>      -0.00004550       0.00005699      -0.00012244 </v>
   <v>       0.00013028       0.00018383      -0.00016874 </v>
   <v>      -0.00003683      -0.00027405      -0.00000308 </v>
   <v>       0.00000334       0.00003763      -0.00016827 </v>
   <v>      -0.00026802       0.00001316      -0.00007074 </v>
   <v>       0.00058041       0.00004938      -0.00000888 </v>
  </varray>
  <varray name="stress" >
   <v>      -0.60349335       1.41133318       1.09872434 </v>
   <v>       1.41133286      -0.32685298      -3.66749346 </v>
   <v>       1.09872430      -3.66749342       0.89618115 </v>
  </varray>
  <energy>
   <i name="e_fr_energy">   -271.99918429 </i>
   <i name="e_wo_entrp">   -271.99918429 </i>
   <i name="e_0_energy">   -271.99918429 </i>
  </energy>
  <time name="totalsc">    7.74    7.82</time>
 </calculation>
 <calculation>
  <scstep>
   <time name="dav">    2.34    2.36</time>
   <time name="total">    2.86    2.88</time>
   <energy>
    <i name="alphaZ">    301.05037098 </i>
    <i name="ewald">  -8817.81625203 </i>
    <i name="hartreedc">  -2208.98556335 </i>
    <i name="XCdc">    537.84117905 </i>
    <i name="pawpsdc">   9814.32685205 </i>
    <i name="pawaedc">  -9958.27410228 </i>
    <i name="eentropy">     -0.00000000 </i>
    <i name="bandstr">  -2629.71323161 </i>
    <i name="atom">  12703.13999606 </i>
    <i name="e_fr_energy">   -258.43075112 </i>
    <i name="e_wo_entrp">   -258.43075112 </i>
    <i name="e_0_energy">   -258.43075112 </i>
   </energy>
  </scstep>
  <scstep>
   <time name="diag">    0.36    0.37</time>
   <time name="diis">    0.79    0.79</time>
   <time name="orth">    0.07    0.07</time>
   <time name="total">    1.67    1.68</time>
   <energy>
    <i name="alphaZ">    301.05037098 </i>
    <i name="ewald">  -8817.81625203 </i>
    <i name="hartreedc">  -2208.98538121 </i>
    <i name="XCdc">    537.84116140 </i>
    <i name="pawpsdc">   9814.32212768 </i>
    <i name="pawaedc">  -9958.26935285 </i>
    <i name="eentropy">     -0.00000000 </i>
    <i name="bandstr">  -2629.71342129 </i>
    <i name="atom">  12703.13999606 </i>
    <i name="e_fr_energy">   -258.43075126 </i>
    <i name="e_wo_entrp">   -258.43075126 </i>
    <i name="e_0_energy">   -258.43075126 </i>
   </energy>
  </scstep>
  <structure>
   <crystal>
    <varray name="basis" >
     <v>       9.66097359       0.00000000       0.00000000 </v>
     <v>       0.00000000       9.66097359       0.00000000 </v>
     <v>       0.00000000       0.00000000       9.66097359 </v>
    </varray>
    <i name="volume">    901.70127608 </i>
    <varray name="rec_basis" >
     <v>       0.10350924       0.00000000       0.00000000 </v>
     <v>       0.00000000       0.10350924       0.00000000 </v>
     <v>       0.00000000       0.00000000       0.10350924 </v>
    </varray>
   </crystal>
   <varray name="positions" >
    <v>       0.96097027       0.18505635       0.15257569 </v>
    <v>       0.00294673       0.69592961       0.71204040 </v>
    <v>       0.05756342       0.33906493       0.69803287 </v>
    <v>       0.02218653       0.83856871       0.21720794 </v>
    <v>       0.85322583       0.97759078       0.78710020 </v>
    <v>       0.21164524       0.79529727       0.01784586 </v>
    <v>       0.69155809       0.29595210       0.00545675 </v>
    <v>       0.80486385       0.79832505       0.98995616 </v>
    <v>       0.31390624       0.98847272       0.27773976 </v>
    <v>       0.19770887       0.04575196       0.82333598 </v>
    <v>       0.55407038       0.84752485       0.64851360 </v>
    <v>       0.66968095       0.03981040       0.32222874 </v>
    <v>       0.29648365       0.79998677       0.48506129 </v>
    <v>       0.28223399       0.21188223       0.51173763 </v>
    <v>       0.80716277       0.69768015       0.51682435 </v>
    <v>       0.81761322       0.32788328       0.45408815 </v>
    <v>       0.30538526       0.37291646       0.94293135 </v>
    <v>       0.15016794       0.54587587       0.32495026 </v>
    <v>       0.71492548       0.49244050       0.21099915 </v>
    <v>       0.77762540       0.51084736       0.73959935 </v>
    <v>       0.49040086       0.18581666       0.69500535 </v>
    <v>       0.45870802       0.67956317       0.19140049 </v>
    <v>       0.50450927       0.28894260       0.22791853 </v>
    <v>       0.53657128       0.66125729       0.84947078 </v>
    <v>       0.49704452       0.51082468       0.50717201 </v>
    <v>       0.50981152       0.99951381       0.99251753 </v>
    <v>       0.01630789       0.49852119       0.01231080 </v>
    <v>       0.99803033       0.01615122       0.49850042 </v>
    <v>       0.11811636       0.89669888       0.62843154 </v>
    <v>       0.11345792       0.12248456       0.35627200 </v>
    <v>       0.86074479       0.89525925       0.38956762 </v>
    <v>       0.89009468       0.15276665       0.61847929 </v>
    <v>       0.89942086       0.62818039       0.13560547 </v>
    <v>       0.89594260       0.36857001       0.89241250 </v>
    <v>       0.14896408       0.60006730       0.88247374 </v>
    <v>       0.13115498       0.37467150       0.13798871 </v>
    <v>       0.64640134       0.10213249       0.86590569 </v>
    <v>       0.61397154       0.87708408       0.13103001 </v>
    <v>       0.37547452       0.13270328       0.08851805 </v>
    <v>       0.39248725       0.87393952       0.86513091 </v>
    <v>       0.61472384       0.63856283       0.38235590 </v>
    <v>       0.62496459       0.37598861       0.61017510 </v>
    <v>       0.39246043       0.63510208       0.64259346 </v>
    <v>       0.36029459       0.40734097       0.38240012 </v>
    <v>       0.75923582       0.74777131       0.75523263 </v>
    <v>       0.74072165       0.25598386       0.23818997 </v>
    <v>       0.24418515       0.76110627       0.25408421 </v>
    <v>       0.27076484       0.25296869       0.74094992 </v>
    <v>       0.00582793       0.97055851       0.99631380 </v>
    <v>       0.97971001       0.51907631       0.52702960 </v>
    <v>       0.47105669       0.01558109       0.48355021 </v>
    <v>       0.52440982       0.49245395       0.02565114 </v>
   </varray>
  </structure>
  <varray name="forces" >
   <v>       0.00007188       0.00005493      -0.00011730 </v>
   <v>      -0.00004602      -0.00023157      -0.00012246 </v>
   <v>       0.00009224       0.00021647      -0.00011726 </v>
   <v>      -0.00000027       0.00012450       0.00004726 </v>
   <v>       0.00008124      -0.00005768      -0.00011717 </v>
   <v>      -0.00004578       0.00015704      -0.00006486 </v>
   <v>       0.00010239      -0.00006061       0.00007069 </v>
   <v>       0.00005752       0.00009068      -0.00000329 </v>
   <v>       0.00015456      -0.00007381      -0.00001826 </v>
   <v>      -0.00010346       0.00019329      -0.00005203 </v>
   <v>       0.00012275      -0.00022771      -0.00040638 </v>
   <v>       0.00012855      -0.00005782      -0.00003925 </v>
   <v>      -0.00015712      -0.00013702       0.00000302 </v>
   <v>      -0.00002587      -0.00002694      -0.00004814 </v>
   <v>       0.00003759      -0.00036141       0.00000873 </v>
   <v>       0.00030333       0.00013328      -0.00004934 </v>
   <v>       0.00012837       0.00009827      -0.00006522 </v>
   <v>      -0.00007153       0.00002724      -0.00002569 </v>
   <v>      -0.00001950       0.00004977       0.00005039 </v>
   <v>      -0.00097257      -0.00005051       0.00101335 </v>
[...]
       <r>     7.9549    12.7651   144.2980 </r>
       <r>     8.1490    13.0399   146.8311 </r>
       <r>     8.3431    13.2874   149.4148 </r>
       <r>     8.5372    16.9110   152.6986 </r>
       <r>     8.7313    14.3033   155.4759 </r>
       <r>     8.9254    15.1099   158.4110 </r>
       <r>     9.1195    16.1719   161.5552 </r>
       <r>     9.3136    18.1080   165.0711 </r>
       <r>     9.5077    17.5288   168.4758 </r>
       <r>     9.7018    20.2648   172.4098 </r>
       <r>     9.8959    14.6114   175.2482 </r>
       <r>    10.0900     3.8721   176.0000 </r>
       <r>    10.2841     0.0000   176.0000 </r>
       <r>    10.4782     0.0000   176.0000 </r>
       <r>    10.6724     0.0000   176.0000 </r>
       <r>    10.8665     0.0000   176.0000 </r>
       <r>    11.0606     0.0000   176.0000 </r>
       <r>    11.2547     0.0000   176.0000 </r>
       <r>    11.4488     0.0000   176.0000 </r>
       <r>    11.6429     0.0000   176.0000 </r>
       <r>    11.8370     0.0000   176.0000 </r>
       <r>    12.0311     0.0000   176.0000 </r>
       <r>    12.2252     0.0000   176.0000 </r>
       <r>    12.4193     0.0000   176.0000 </r>
       <r>    12.6134     0.0000   176.0000 </r>
      </set>
      <set comment="spin 2">
       <r>   -45.6177     0.0000     0.0000 </r>
       <r>   -45.4236     0.0000     0.0000 </r>
       <r>   -45.2295     0.0000     0.0000 </r>
       <r>   -45.0354     0.0000     0.0000 </r>
       <r>   -44.8413     0.0000     0.0000 </r>
       <r>   -44.6472     0.0000     0.0000 </r>
       <r>   -44.4531     0.0000     0.0000 </r>
       <r>   -44.2590     0.0000     0.0000 </r>
       <r>   -44.0649     0.0000     0.0000 </r>
       <r>   -43.8708     0.0000     0.0000 </r>
       <r>   -43.6767     0.0000     0.0000 </r>
       <r>   -43.4826     0.0000     0.0000 </r>
       <r>   -43.2885     0.0000     0.0000 </r>
       <r>   -43.0944     0.0000     0.0000 </r>
       <r>   -42.9003     5.1500     0.9996 </r>
       <r>   -42.7062     5.8359     2.1329 </r>
       <r>   -42.5121    17.1792     5.4674 </r>
       <r>   -42.3180    60.0180    17.1181 </r>
       <r>   -42.1239    21.2899    21.2538 </r>
       <r>   -41.9298    14.0877    23.9941 </r>
       <r>   -41.7357     0.0000    24.0000 </r>
       <r>   -41.5416     0.0000    24.0000 </r>
       <r>   -41.3475     0.0000    24.0000 </r>
       <r>   -41.1533     0.0000    24.0000 </r>
       <r>   -40.9592     0.0000    24.0000 </r>
       <r>   -40.7651     0.0000    24.0000 </r>
       <r>   -40.5710     0.0000    24.0000 </r>
       <r>   -40.3769     0.0000    24.0000 </r>
       <r>   -40.1828     0.0000    24.0000 </r>
       <r>   -39.9887     0.0000    24.0000 </r>
       <r>   -39.7946     0.0000    24.0000 </r>
       <r>   -39.6005     0.0000    24.0000 </r>
       <r>   -39.4064     0.0000    24.0000 </r>
       <r>   -39.2123     0.0000    24.0000 </r>
       <r>   -39.0182     0.0000    24.0000 </r>
       <r>   -38.8241     0.0000    24.0000 </r>
       <r>   -38.6300     0.0000    24.0000 </r>
       <r>   -38.4359     0.0000    24.0000 </r>
       <r>   -38.2418     0.0000    24.0000 </r>
       <r>   -38.0477     0.0000    24.0000 </r>
       <r>   -37.8536     0.0000    24.0000 </r>
       <r>   -37.6595     0.0000    24.0000 </r>
       <r>   -37.4654     0.0000    24.0000 </r>
       <r>   -37.2713     0.0000    24.0000 </r>
       <r>   -37.0772     0.0000    24.0000 </r>
       <r>   -36.8831     0.0000    24.0000 </r>
       <r>   -36.6890     0.0000    24.0000 </r>
       <r>   -36.4949     0.0000    24.0000 </r>
       <r>   -36.3008     0.0000    24.0000 </r>
       <r>   -36.1067     0.0000    24.0000 </r>
       <r>   -35.9125     0.0000    24.0000 </r>
       <r>   -35.7184     0.0000    24.0000 </r>
       <r>   -35.5243     0.0000    24.0000 </r>
       <r>   -35.3302     0.0000    24.0000 </r>
       <r>   -35.1361     0.0000    24.0000 </r>
       <r>   -34.9420     0.0000    24.0000 </r>
       <r>   -34.7479     0.0000    24.0000 </r>
       <r>   -34.5538     0.0000    24.0000 </r>
       <r>   -34.3597     0.0000    24.0000 </r>
       <r>   -34.1656     0.0000    24.0000 </r>
       <r>   -33.9715     0.0000    24.0000 </r>
       <r>   -33.7774     0.0000    24.0000 </r>
       <r>   -33.5833     0.0000    24.0000 </r>
       <r>   -33.3892     0.0000    24.0000 </r>
       <r>   -33.1951     0.0000    24.0000 </r>
       <r>   -33.0010     0.0000    24.0000 </r>
       <r>   -32.8069     0.0000    24.0000 </r>
       <r>   -32.6128     0.0000    24.0000 </r>
       <r>   -32.4187     0.0000    24.0000 </r>
       <r>   -32.2246     0.0000    24.0000 </r>
       <r>   -32.0305     0.0000    24.0000 </r>
       <r>   -31.8364     0.0000    24.0000 </r>
       <r>   -31.6423     0.0000    24.0000 </r>
       <r>   -31.4482     0.0000    24.0000 </r>
       <r>   -31.2541     0.0000    24.0000 </r>
       <r>   -31.0600     0.0000    24.0000 </r>
       <r>   -30.8659     0.0000    24.0000 </r>
       <r>   -30.6717     0.0000    24.0000 </r>
       <r>   -30.4776     0.0000    24.0000 </r>
       <r>   -30.2835     0.0000    24.0000 </r>
       <r>   -30.0894     0.0000    24.0000 </r>
       <r>   -29.8953     0.0000    24.0000 </r>
       <r>   -29.7012     0.0000    24.0000 </r>
       <r>   -29.5071     0.0000    24.0000 </r>
       <r>   -29.3130     0.0000    24.0000 </r>
       <r>   -29.1189     0.0000    24.0000 </r>
       <r>   -28.9248     0.0000    24.0000 </r>
       <r>   -28.7307     0.0000    24.0000 </r>
       <r>   -28.5366     0.0000    24.0000 </r>
       <r>   -28.3425     0.0000    24.0000 </r>
       <r>   -28.1484     0.0000    24.0000 </r>
       <r>   -27.9543     0.0000    24.0000 </r>
       <r>   -27.7602     0.0000    24.0000 </r>
       <r>   -27.5661     0.0000    24.0000 </r>
       <r>   -27.3720     0.0000    24.0000 </r>
       <r>   -27.1779     0.0000    24.0000 </r>
       <r>   -26.9838     0.0000    24.0000 </r>
       <r>   -26.7897     0.0000    24.0000 </r>
       <r>   -26.5956     0.0000    24.0000 </r>
       <r>   -26.4015     0.0000    24.0000 </r>
       <r>   -26.2074     0.0000    24.0000 </r>
       <r>   -26.0133     0.0000    24.0000 </r>
       <r>   -25.8192     0.0000    24.0000 </r>
       <r>   -25.6250     0.0000    24.0000 </r>
       <r>   -25.4309     0.0000    24.0000 </r>
       <r>   -25.2368     0.0000    24.0000 </r>
       <r>   -25.0427     0.0000    24.0000 </r>
       <r>   -24.8486     0.0000    24.0000 </r>
       <r>   -24.6545     0.0000    24.0000 </r>
       <r>   -24.4604     0.0000    24.0000 </r>
       <r>   -24.2663     0.0000    24.0000 </r>
       <r>   -24.0722     0.0000    24.0000 </r>
       <r>   -23.8781     0.0000    24.0000 </r>
       <r>   -23.6840     0.0000    24.0000 </r>
       <r>   -23.4899     0.0000    24.0000 </r>
       <r>   -23.2958     0.0000    24.0000 </r>
       <r>   -23.1017     0.0000    24.0000 </r>
       <r>   -22.9076     0.0000    24.0000 </r>
       <r>   -22.7135     0.0000    24.0000 </r>
       <r>   -22.5194     0.0000    24.0000 </r>
       <r>   -22.3253     0.0000    24.0000 </r>
       <r>   -22.1312     0.0000    24.0000 </r>
       <r>   -21.9371     0.0000    24.0000 </r>
       <r>   -21.7430     0.0000    24.0000 </r>
       <r>   -21.5489     0.0000    24.0000 </r>
       <r>   -21.3548     0.0000    24.0000 </r>
       <r>   -21.1607     0.0000    24.0000 </r>
       <r>   -20.9666     0.0000    24.0000 </r>
       <r>   -20.7725     0.0000    24.0000 </r>
       <r>   -20.5784     0.0000    24.0000 </r>
       <r>   -20.3842     0.0000    24.0000 </r>
       <r>   -20.1901     0.0000    24.0000 </r>
       <r>   -19.9960     0.0000    24.0000 </r>
       <r>   -19.8019     0.0000    24.0000 </r>
       <r>   -19.6078     0.0000    24.0000 </r>
       <r>   -19.4137     0.0000    24.0000 </r>
       <r>   -19.2196     0.0000    24.0000 </r>
       <r>   -19.0255     0.0000    24.0000 </r>
       <r>   -18.8314     0.0000    24.0000 </r>
       <r>   -18.6373     0.0000    24.0000 </r>
       <r>   -18.4432     0.0000    24.0000 </r>
       <r>   -18.2491     0.0000    24.0000 </r>
       <r>   -18.0550     0.0000    24.0000 </r>
       <r>   -17.8609     0.0000    24.0000 </r>
       <r>   -17.6668     0.0000    24.0000 </r>
       <r>   -17.4727     0.0000    24.0000 </r>
       <r>   -17.2786     0.0000    24.0000 </r>
       <r>   -17.0845     0.0000    24.0000 </r>
       <r>   -16.8904     0.0000    24.0000 </r>
       <r>   -16.6963     0.0000    24.0000 </r>
       <r>   -16.5022     0.0000    24.0000 </r>
       <r>   -16.3081     0.0000    24.0000 </r>
       <r>   -16.1140     0.0000    24.0000 </r>
       <r>   -15.9199     0.0000    24.0000 </r>
       <r>   -15.7258     0.0000    24.0000 </r>
       <r>   -15.5317     0.0000    24.0000 </r>
       <r>   -15.3376     0.0000    24.0000 </r>
       <r>   -15.1434     0.0000    24.0000 </r>
       <r>   -14.9493     0.0000    24.0000 </r>
       <r>   -14.7552     0.0000    24.0000 </r>
       <r>   -14.5611     0.0000    24.0000 </r>
       <r>   -14.3670     0.0000    24.0000 </r>
       <r>   -14.1729     0.0000    24.0000 </r>
       <r>   -13.9788     0.0000    24.0000 </r>
       <r>   -13.7847     0.0000    24.0000 </r>
       <r>   -13.5906     0.0000    24.0000 </r>
       <r>   -13.3965     0.0000    24.0000 </r>
       <r>   -13.2024     0.0000    24.0000 </r>
       <r>   -13.0083     6.0301    25.1705 </r>
       <r>   -12.8142    15.3030    28.1408 </r>
       <r>   -12.6201    19.5785    31.9411 </r>
       <r>   -12.4260     0.2045    32.0000 </r>
       <r>   -12.2319     0.0000    32.0000 </r>
       <r>   -12.0378     0.0000    32.0000 </r>
       <r>   -11.8437     0.0000    32.0000 </r>
       <r>   -11.6496     0.0000    32.0000 </r>
       <r>   -11.4555     0.0000    32.0000 </r>
       <r>   -11.2614     0.0000    32.0000 </r>
       <r>   -11.0673     0.0000    32.0000 </r>
       <r>   -10.8732     0.0000    32.0000 </r>
       <r>   -10.6791     0.0000    32.0000 </r>
       <r>   -10.4850     0.0000    32.0000 </r>
       <r>   -10.2909     1.2951    32.2514 </r>
       <r>   -10.0967    17.4158    35.6319 </r>
       <r>    -9.9026    31.2475    41.6971 </r>
       <r>    -9.7085    11.8264    44.0000 </r>
       <r>    -9.5144     0.0000    44.0000 </r>
       <r>    -9.3203     0.0000    44.0000 </r>
       <r>    -9.1262     0.0000    44.0000 </r>
       <r>    -8.9321     0.0000    44.0000 </r>
       <r>    -8.7380     5.0680    44.9837 </r>
       <r>    -8.5439     0.0839    45.0000 </r>
       <r>    -8.3498     1.1731    45.2277 </r>
       <r>    -8.1557     9.1307    47.0000 </r>
       <r>    -7.9616     0.0000    47.0000 </r>
       <r>    -7.7675     0.0000    47.0000 </r>
       <r>    -7.5734     4.5660    47.8863 </r>
       <r>    -7.3793     0.5859    48.0000 </r>
       <r>    -7.1852     0.0000    48.0000 </r>
       <r>    -6.9911     0.0000    48.0000 </r>
       <r>    -6.7970     0.0000    48.0000 </r>
       <r>    -6.6029     0.0000    48.0000 </r>
       <r>    -6.4088     0.0000    48.0000 </r>
       <r>    -6.2147     0.0000    48.0000 </r>
       <r>    -6.0206     5.1518    49.0000 </r>
       <r>    -5.8265     0.0001    49.0000 </r>
       <r>    -5.6324     8.7810    50.7044 </r>
       <r>    -5.4383     6.6745    52.0000 </r>
       <r>    -5.2442     0.0000    52.0000 </r>
       <r>    -5.0501     0.0000    52.0000 </r>
       <r>    -4.8559     0.0000    52.0000 </r>
       <r>    -4.6618     0.0000    52.0000 </r>
       <r>    -4.4677     0.0000    52.0000 </r>
       <r>    -4.2736     0.0000    52.0000 </r>
       <r>    -4.0795     0.0000    52.0000 </r>
       <r>    -3.8854     0.0000    52.0000 </r>
       <r>    -3.6913     0.0000    52.0000 </r>
       <r>    -3.4972     0.0000    52.0000 </r>
       <r>    -3.3031     0.0005    52.0001 </r>
       <r>    -3.1090    15.3769    54.9848 </r>
       <r>    -2.9149     0.0862    55.0052 </r>
       <r>    -2.7208     8.0712    56.5719 </r>
       <r>    -2.5267    11.2750    58.7604 </r>
       <r>    -2.3326    15.9764    61.8632 </r>
       <r>    -2.1385    10.9325    63.9852 </r>
       <r>    -1.9444     0.0743    64.0000 </r>
       <r>    -1.7503     0.0000    64.0000 </r>
       <r>    -1.5562     5.7798    65.1219 </r>
       <r>    -1.3621    28.4569    70.6455 </r>
       <r>    -1.1680    26.2399    75.7406 </r>
       <r>    -0.9739     1.3123    76.0000 </r>
       <r>    -0.7798     0.0000    76.0000 </r>
       <r>    -0.5857     4.4592    76.8655 </r>
       <r>    -0.3916    11.3670    79.0730 </r>
       <r>    -0.1975    12.5705    81.5131 </r>
       <r>    -0.0034    22.1980    85.8220 </r>
       <r>     0.1907    26.7115    91.0078 </r>
       <r>     0.3849    18.2113    94.5455 </r>
       <r>     0.5790     7.4865    96.0000 </r>
       <r>     0.7731     6.5239    97.2663 </r>
       <r>     0.9672    22.0178   101.5475 </r>
       <r>     1.1613    20.9770   105.6225 </r>
       <r>     1.3554    22.1188   109.9168 </r>
       <r>     1.5495    21.9908   114.1869 </r>
       <r>     1.7436    14.1159   116.9285 </r>
       <r>     1.9377     5.9793   118.0894 </r>
       <r>     2.1318     4.6915   119.0000 </r>
       <r>     2.3259     5.1435   119.9984 </r>
       <r>     2.5200     0.0000   120.0000 </r>
       <r>     2.7141     0.0000   120.0000 </r>
       <r>     2.9082     0.0000   120.0000 </r>
       <r>     3.1023     0.0000   120.0000 </r>
       <r>     3.2964     0.0000   120.0000 </r>
       <r>     3.4905     0.0000   120.0000 </r>
       <r>     3.6846     0.0000   120.0000 </r>
       <r>     3.8787     0.0000   120.0000 </r>
       <r>     4.0728     0.0000   120.0000 </r>
       <r>     4.2669     0.0000   120.0000 </r>
       <r>     4.4610     3.1971   120.6206 </r>
       <r>     4.6551     1.9394   121.0000 </r>
       <r>     4.8492     0.0000   121.0000 </r>
       <r>     5.0433     0.0000   121.0000 </r>
       <r>     5.2374     3.3179   121.6440 </r>
       <r>     5.4316    11.2114   123.8202 </r>
       <r>     5.6257     0.9207   124.0000 </r>
       <r>     5.8198     0.0112   124.0022 </r>
       <r>     6.0139    12.8056   126.4878 </r>
       <r>     6.2080    11.4261   128.7075 </r>
       <r>     6.4021     6.6538   130.0000 </r>
       <r>     6.5962     9.6093   131.8652 </r>
       <r>     6.7903    10.2045   133.8472 </r>
       <r>     6.9844    10.8569   135.9550 </r>
       <r>     7.1785     5.2541   136.9748 </r>
       <r>     7.3726     3.3231   137.6238 </r>
       <r>     7.5667    10.9854   139.7561 </r>
       <r>     7.7608    10.6168   141.8176 </r>
       <r>     7.9549    12.7651   144.2980 </r>
       <r>     8.1490    13.0399   146.8311 </r>
       <r>     8.3431    13.2874   149.4148 </r>
       <r>     8.5372    16.9110   152.6986 </r>
       <r>     8.7313    14.3033   155.4759 </r>
       <r>     8.9254    15.1099   158.4110 </r>
       <r>     9.1195    16.1719   161.5552 </r>
       <r>     9.3136    18.1084   165.0712 </r>
       <r>     9.5077    17.5302   168.4762 </r>
       <r>     9.7018    20.2956   172.4161 </r>
       <r>     9.8959    14.0639   175.1519 </r>
       <r>    10.0900     4.3670   176.0000 </r>
       <r>    10.2841     0.0000   176.0000 </r>
       <r>    10.4782     0.0000   176.0000 </r>
       <r>    10.6724     0.0000   176.0000 </r>
       <r>    10.8665     0.0000   176.0000 </r>
       <r>    11.0606     0.0000   176.0000 </r>
       <r>    11.2547     0.0000   176.0000 </r>
       <r>    11.4488     0.0000   176.0000 </r>
       <r>    11.6429     0.0000   176.0000 </r>
       <r>    11.8370     0.0000   176.0000 </r>
       <r>    12.0311     0.0000   176.0000 </r>
       <r>    12.2252     0.0000   176.0000 </r>
       <r>    12.4193     0.0000   176.0000 </r>
       <r>    12.6134     0.0000   176.0000 </r>
      </set>
     </set>
    </array>
   </total>
  </dos>
 </calculation>
 <structure name="finalpos" >
  <crystal>
   <varray name="basis" >
    <v>       9.66097359       0.00000000       0.00000000 </v>
    <v>       0.00000000       9.66097359       0.00000000 </v>
    <v>       0.00000000       0.00000000       9.66097359 </v>
   </varray>
   <i name="volume">    901.70127608 </i>
   <varray name="rec_basis" >
    <v>       0.10350924       0.00000000       0.00000000 </v>
    <v>       0.00000000       0.10350924       0.00000000 </v>
    <v>       0.00000000       0.00000000       0.10350924 </v>
   </varray>
  </crystal>
  <varray name="positions" >
   <v>       0.96097194       0.18505776       0.15257308 </v>
   <v>       0.00294494       0.69592420       0.71203714 </v>
   <v>       0.05756533       0.33907023       0.69803035 </v>
   <v>       0.02218655       0.83857170       0.21720905 </v>
   <v>       0.85322758       0.97758915       0.78709747 </v>
   <v>       0.21164387       0.79530130       0.01784438 </v>
   <v>       0.69156027       0.29595077       0.00545842 </v>
   <v>       0.80486511       0.79832725       0.98995602 </v>
   <v>       0.31390979       0.98847150       0.27773931 </v>
   <v>       0.19770637       0.04575638       0.82333474 </v>
   <v>       0.55407283       0.84751941       0.64850414 </v>
   <v>       0.66968370       0.03980916       0.32222791 </v>
   <v>       0.29647946       0.79998377       0.48506139 </v>
   <v>       0.28223325       0.21188157       0.51173593 </v>
   <v>       0.80716316       0.69767181       0.51682454 </v>
   <v>       0.81762007       0.32788652       0.45408675 </v>
   <v>       0.30538804       0.37291854       0.94292993 </v>
   <v>       0.15016612       0.54587657       0.32494944 </v>
   <v>       0.71492452       0.49244209       0.21100062 </v>
   <v>       0.77760336       0.51084633       0.73962249 </v>
   <v>       0.49040193       0.18581378       0.69500394 </v>
   <v>       0.45870625       0.67955933       0.19140088 </v>
   <v>       0.50451136       0.28893785       0.22792422 </v>
   <v>       0.53656586       0.66126900       0.84947654 </v>
   <v>       0.49704543       0.51082483       0.50717182 </v>
   <v>       0.50981078       0.99951566       0.99251682 </v>
   <v>       0.01630792       0.49852080       0.01231240 </v>
   <v>       0.99803171       0.01615011       0.49849954 </v>
   <v>       0.11811413       0.89669869       0.62843320 </v>
   <v>       0.11345737       0.12248012       0.35627124 </v>
   <v>       0.86074262       0.89525462       0.38957050 </v>
   <v>       0.89009536       0.15276962       0.61848022 </v>
   <v>       0.89942036       0.62818106       0.13560520 </v>
   <v>       0.89594601       0.36856808       0.89241304 </v>
   <v>       0.14896625       0.60007050       0.88247164 </v>
   <v>       0.13115661       0.37467284       0.13798755 </v>
   <v>       0.64640409       0.10213333       0.86590564 </v>
   <v>       0.61397075       0.87708042       0.13103069 </v>
   <v>       0.37547664       0.13270433       0.08851791 </v>
   <v>       0.39248519       0.87394615       0.86512784 </v>
   <v>       0.61471957       0.63856293       0.38235998 </v>
   <v>       0.62496656       0.37598568       0.61017310 </v>
   <v>       0.39245897       0.63510068       0.64259711 </v>
   <v>       0.36029252       0.40734043       0.38239887 </v>
   <v>       0.75923469       0.74777076       0.75523283 </v>
   <v>       0.74072443       0.25598404       0.23819120 </v>
   <v>       0.24418469       0.76110627       0.25408260 </v>
   <v>       0.27076671       0.25297147       0.74094843 </v>
   <v>       0.00582727       0.97055879       0.99631380 </v>
   <v>       0.97971442       0.51907568       0.52702353 </v>
   <v>       0.47105564       0.01558110       0.48354911 </v>
   <v>       0.52441577       0.49245538       0.02564846 </v>
  </varray>
 </structure>
</modeling>
