unknown system                          
           1
     9.660974    0.000000    0.000000
     0.000000    9.660974    0.000000
     0.000000    0.000000    9.660974
   Li   P    S    Cl
    24     4    20     4
Direct configuration=     1
   0.96096932  0.18505547  0.15257744
   0.00294811  0.69593373  0.71204245
   0.05756205  0.33906119  0.69803458
   0.02218674  0.83856678  0.21720706
   0.85322484  0.97759188  0.78710218
   0.21164643  0.79529478  0.01784699
   0.69155679  0.29595316  0.00545538
   0.80486319  0.79832340  0.98995607
   0.31390359  0.98847368  0.27774002
   0.19771071  0.04574869  0.82333686
   0.55406902  0.84752888  0.64852010
   0.66967899  0.03981147  0.32222939
   0.29648667  0.79998904  0.48506093
   0.28223431  0.21188238  0.51173891
   0.80716212  0.69768606  0.51682372
   0.81760860  0.32788126  0.45408865
   0.30538341  0.37291472  0.94293251
   0.15016905  0.54587537  0.32495078
   0.71492627  0.49243982  0.21099828
   0.77764097  0.51084796  0.73958308
   0.49039994  0.18581854  0.69500637
   0.45870954  0.67956573  0.19140042
   0.50450789  0.28894599  0.22791428
   0.53657522  0.66124904  0.84946670
   0.49705203  0.51083213  0.50716544
   0.50980596  0.99951367  0.99251508
   0.01630320  0.49851530  0.01231200
   0.99803657  0.01615160  0.49850040
   0.11811621  0.89670058  0.62842866
   0.11345680  0.12248631  0.35627472
   0.86074438  0.89526052  0.38956387
   0.89009242  0.15276634  0.61848066
   0.89942101  0.62818015  0.13560537
   0.89594239  0.36857431  0.89241387
   0.14896583  0.60006840  0.88247129
   0.13115298  0.37467162  0.13798841
   0.64640059  0.10213280  0.86590481
   0.61397442  0.87708437  0.13103196
   0.37547448  0.13270087  0.08851740
   0.39249069  0.87393668  0.86513513
   0.61472196  0.63855692  0.38235856
   0.62496495  0.37598892  0.61017811
   0.39245937  0.63510496  0.64259311
   0.36029360  0.40733887  0.38239844
   0.75923678  0.74777159  0.75523256
   0.74071923  0.25598415  0.23818881
   0.24418537  0.76110677  0.25408525
   0.27076353  0.25296665  0.74095037
   0.00582847  0.97055570  0.99631376
   0.97970423  0.51907747  0.52703610
   0.47105570  0.01558118  0.48355105
   0.52440713  0.49245251  0.02565459
Direct configuration=     2
   0.96096953  0.18505569  0.15257698
   0.00294771  0.69593255  0.71204194
   0.05756242  0.33906221  0.69803412
   0.02218664  0.83856727  0.21720732
   0.85322506  0.97759159  0.78710163
   0.21164607  0.79529539  0.01784667
   0.69155710  0.29595285  0.00545579
   0.80486332  0.79832387  0.98995613
   0.31390434  0.98847340  0.27773996
   0.19771020  0.04574960  0.82333662
   0.55406932  0.84752775  0.64851837
   0.66967953  0.03981114  0.32222920
   0.29648584  0.79998840  0.48506108
   0.28223426  0.21188240  0.51173855
   0.80716237  0.69768445  0.51682398
   0.81760981  0.32788175  0.45408860
   0.30538389  0.37291524  0.94293217
   0.15016878  0.54587551  0.32495065
   0.71492603  0.49243992  0.21099848
   0.77763673  0.51084782  0.73958749
   0.49040023  0.18581806  0.69500609
   0.45870908  0.67956506  0.19140040
   0.50450825  0.28894506  0.22791548
   0.53657413  0.66125128  0.84946781
   0.49704847  0.51082870  0.50716847
   0.50980861  0.99951349  0.99251630
   0.01630534  0.49851805  0.01231124
   0.99803353  0.01615157  0.49850053
   0.11811657  0.89669983  0.62842976
   0.11345739  0.12248610  0.35627357
   0.86074485  0.89526055  0.38956521
   0.89009337  0.15276609  0.61847991
   0.89942101  0.62818017  0.13560545
   0.89594204  0.36857260  0.89241317
   0.14896475  0.60006747  0.88247269
   0.13115369  0.37467139  0.13798870
   0.64640057  0.10213255  0.86590522
   0.61397321  0.87708472  0.13103097
   0.37547422  0.13270184  0.08851771
   0.39248939  0.87393711  0.86513360
   0.61472338  0.63855961  0.38235681
   0.62496452  0.37598917  0.61017699
   0.39246005  0.63510383  0.64259279
   0.36029433  0.40733990  0.38239938
   0.75923649  0.74777154  0.75523256
   0.74071997  0.25598399  0.23818918
   0.24418533  0.76110654  0.25408498
   0.27076388  0.25296722  0.74095036
   0.00582831  0.97055695  0.99631378
   0.97970630  0.51907702  0.52703392
   0.47105629  0.01558114  0.48355081
   0.52440758  0.49245298  0.02565336
Direct configuration=     3
   0.96096962  0.18505578  0.15257680
   0.00294756  0.69593209  0.71204174
   0.05756257  0.33906261  0.69803395
   0.02218660  0.83856747  0.21720742
   0.85322515  0.97759148  0.78710142
   0.21164592  0.79529563  0.01784654
   0.69155722  0.29595273  0.00545595
   0.80486338  0.79832405  0.98995615
   0.31390463  0.98847329  0.27773993
   0.19770999  0.04574996  0.82333652
   0.55406944  0.84752730  0.64851768
   0.66967974  0.03981101  0.32222913
   0.29648551  0.79998814  0.48506114
   0.28223424  0.21188241  0.51173841
   0.80716246  0.69768382  0.51682408
   0.81761029  0.32788195  0.45408858
   0.30538408  0.37291545  0.94293203
   0.15016867  0.54587556  0.32495060
   0.71492594  0.49243996  0.21099856
   0.77763506  0.51084776  0.73958923
   0.49040034  0.18581787  0.69500598
   0.45870889  0.67956480  0.19140039
   0.50450839  0.28894470  0.22791595
   0.53657370  0.66125216  0.84946825
   0.49704707  0.51082735  0.50716967
   0.50980965  0.99951342  0.99251678
   0.01630619  0.49851913  0.01231094
   0.99803233  0.01615156  0.49850058
   0.11811671  0.89669953  0.62843020
   0.11345762  0.12248601  0.35627312
   0.86074504  0.89526056  0.38956574
   0.89009374  0.15276599  0.61847962
   0.89942100  0.62818018  0.13560548
   0.89594190  0.36857192  0.89241289
   0.14896432  0.60006711  0.88247324
   0.13115396  0.37467130  0.13798881
   0.64640056  0.10213245  0.86590538
   0.61397273  0.87708486  0.13103058
   0.37547412  0.13270222  0.08851784
   0.39248887  0.87393728  0.86513300
   0.61472395  0.63856067  0.38235612
   0.62496436  0.37598926  0.61017655
   0.39246032  0.63510338  0.64259267
   0.36029462  0.40734031  0.38239974
   0.75923638  0.74777152  0.75523257
   0.74072026  0.25598393  0.23818933
   0.24418532  0.76110645  0.25408488
   0.27076402  0.25296744  0.74095035
   0.00582824  0.97055744  0.99631378
   0.97970712  0.51907684  0.52703306
   0.47105653  0.01558112  0.48355072
   0.52440776  0.49245317  0.02565288
Direct configuration=     4
   0.96096979  0.18505595  0.15257644
   0.00294724  0.69593116  0.71204134
   0.05756287  0.33906341  0.69803359
   0.02218652  0.83856786  0.21720762
   0.85322533  0.97759125  0.78710098
   0.21164564  0.79529611  0.01784628
   0.69155746  0.29595249  0.00545627
   0.80486348  0.79832442  0.98995620
   0.31390522  0.98847307  0.27773989
   0.19770959  0.04575069  0.82333633
   0.55406968  0.84752641  0.64851632
   0.66968017  0.03981076  0.32222897
   0.29648485  0.79998763  0.48506126
   0.28223420  0.21188242  0.51173812
   0.80716265  0.69768255  0.51682429
   0.81761125  0.32788235  0.45408855
   0.30538446  0.37291586  0.94293176
   0.15016846  0.54587567  0.32495050
   0.71492575  0.49244004  0.21099872
   0.77763172  0.51084765  0.73959271
   0.49040056  0.18581748  0.69500576
   0.45870852  0.67956427  0.19140037
   0.50450867  0.28894397  0.22791690
   0.53657283  0.66125393  0.84946913
   0.49704426  0.51082464  0.50717206
   0.50981174  0.99951329  0.99251773
   0.01630788  0.49852130  0.01231034
   0.99802994  0.01615154  0.49850068
   0.11811700  0.89669894  0.62843107
   0.11345808  0.12248584  0.35627222
   0.86074541  0.89526058  0.38956680
   0.89009449  0.15276580  0.61847902
   0.89942100  0.62818019  0.13560555
   0.89594162  0.36857057  0.89241234
   0.14896346  0.60006638  0.88247434
   0.13115452  0.37467111  0.13798904
   0.64640055  0.10213225  0.86590570
   0.61397177  0.87708513  0.13102981
   0.37547391  0.13270298  0.08851809
   0.39248784  0.87393762  0.86513179
   0.61472507  0.63856280  0.38235473
   0.62496402  0.37598946  0.61017567
   0.39246085  0.63510248  0.64259242
   0.36029519  0.40734112  0.38240048
   0.75923615  0.74777147  0.75523257
   0.74072085  0.25598380  0.23818962
   0.24418529  0.76110627  0.25408467
   0.27076430  0.25296789  0.74095034
   0.00582812  0.97055843  0.99631380
   0.97970875  0.51907649  0.52703134
   0.47105699  0.01558108  0.48355053
   0.52440811  0.49245354  0.02565191
Direct configuration=     5
   0.96097027  0.18505635  0.15257569
   0.00294673  0.69592961  0.71204040
   0.05756342  0.33906493  0.69803287
   0.02218653  0.83856871  0.21720794
   0.85322583  0.97759078  0.78710020
   0.21164524  0.79529727  0.01784586
   0.69155809  0.29595210  0.00545675
   0.80486385  0.79832505  0.98995616
   0.31390624  0.98847272  0.27773976
   0.19770887  0.04575196  0.82333598
   0.55407038  0.84752485  0.64851360
   0.66968095  0.03981040  0.32222874
   0.29648365  0.79998677  0.48506129
   0.28223399  0.21188223  0.51173763
   0.80716277  0.69768015  0.51682435
   0.81761322  0.32788328  0.45408815
   0.30538526  0.37291646  0.94293135
   0.15016794  0.54587587  0.32495026
   0.71492548  0.49244050  0.21099915
   0.77762540  0.51084736  0.73959935
   0.49040086  0.18581666  0.69500535
   0.45870802  0.67956317  0.19140049
   0.50450927  0.28894260  0.22791853
   0.53657128  0.66125729  0.84947078
   0.49704452  0.51082468  0.50717201
   0.50981152  0.99951381  0.99251753
   0.01630789  0.49852119  0.01231080
   0.99803033  0.01615122  0.49850042
   0.11811636  0.89669888  0.62843154
   0.11345792  0.12248456  0.35627200
   0.86074479  0.89525925  0.38956762
   0.89009468  0.15276665  0.61847929
   0.89942086  0.62818039  0.13560547
   0.89594260  0.36857001  0.89241250
   0.14896408  0.60006730  0.88247374
   0.13115498  0.37467150  0.13798871
   0.64640134  0.10213249  0.86590569
   0.61397154  0.87708408  0.13103001
   0.37547452  0.13270328  0.08851805
   0.39248725  0.87393952  0.86513091
   0.61472384  0.63856283  0.38235590
   0.62496459  0.37598861  0.61017510
   0.39246043  0.63510208  0.64259346
   0.36029459  0.40734097  0.38240012
   0.75923582  0.74777131  0.75523263
   0.74072165  0.25598386  0.23818997
   0.24418515  0.76110627  0.25408421
   0.27076484  0.25296869  0.74094992
   0.00582793  0.97055851  0.99631380
   0.97971001  0.51907631  0.52702960
   0.47105669  0.01558109  0.48355021
   0.52440982  0.49245395  0.02565114
Direct configuration=     6
   0.96097082  0.18505682  0.15257482
   0.00294613  0.69592781  0.71203932
   0.05756406  0.33906670  0.69803203
   0.02218653  0.83856971  0.21720831
   0.85322642  0.97759024  0.78709929
   0.21164478  0.79529861  0.01784537
   0.69155882  0.29595166  0.00545731
   0.80486427  0.79832578  0.98995611
   0.31390742  0.98847232  0.27773961
   0.19770804  0.04575343  0.82333556
   0.55407120  0.84752304  0.64851045
   0.66968187  0.03980999  0.32222846
   0.29648225  0.79998577  0.48506132
   0.28223374  0.21188201  0.51173707
   0.80716290  0.69767737  0.51682441
   0.81761550  0.32788436  0.45408768
   0.30538618  0.37291715  0.94293088
   0.15016733  0.54587610  0.32494999
   0.71492516  0.49244103  0.21099964
   0.77761805  0.51084701  0.73960706
   0.49040122  0.18581570  0.69500488
   0.45870743  0.67956189  0.19140062
   0.50450997  0.28894102  0.22792043
   0.53656947  0.66126120  0.84947270
   0.49704482  0.51082473  0.50717194
   0.50981128  0.99951443  0.99251729
   0.01630790  0.49852106  0.01231133
   0.99803079  0.01615085  0.49850013
   0.11811562  0.89669882  0.62843209
   0.11345774  0.12248308  0.35627174
   0.86074407  0.89525771  0.38956858
   0.89009491  0.15276764  0.61847960
   0.89942069  0.62818061  0.13560538
   0.89594373  0.36856937  0.89241268
   0.14896480  0.60006837  0.88247304
   0.13115553  0.37467194  0.13798832
   0.64640225  0.10213277  0.86590567
   0.61397128  0.87708286  0.13103023
   0.37547523  0.13270363  0.08851800
   0.39248657  0.87394173  0.86512989
   0.61472242  0.63856286  0.38235726
   0.62496524  0.37598764  0.61017443
   0.39245994  0.63510161  0.64259468
   0.36029390  0.40734079  0.38239970
   0.75923544  0.74777113  0.75523269
   0.74072258  0.25598392  0.23819038
   0.24418500  0.76110627  0.25408367
   0.27076546  0.25296962  0.74094942
   0.00582771  0.97055860  0.99631380
   0.97971148  0.51907610  0.52702758
   0.47105634  0.01558109  0.48354984
   0.52441181  0.49245442  0.02565025
Direct configuration=     7
   0.96097194  0.18505776  0.15257308
   0.00294494  0.69592420  0.71203714
   0.05756533  0.33907023  0.69803035
   0.02218655  0.83857170  0.21720905
   0.85322758  0.97758915  0.78709747
   0.21164387  0.79530130  0.01784438
   0.69156027  0.29595077  0.00545842
   0.80486511  0.79832725  0.98995602
   0.31390979  0.98847150  0.27773931
   0.19770637  0.04575638  0.82333474
   0.55407283  0.84751941  0.64850414
   0.66968370  0.03980916  0.32222791
   0.29647946  0.79998377  0.48506139
   0.28223325  0.21188157  0.51173593
   0.80716316  0.69767181  0.51682454
   0.81762007  0.32788652  0.45408675
   0.30538804  0.37291854  0.94292993
   0.15016612  0.54587657  0.32494944
   0.71492452  0.49244209  0.21100062
   0.77760336  0.51084633  0.73962249
   0.49040193  0.18581378  0.69500394
   0.45870625  0.67955933  0.19140088
   0.50451136  0.28893785  0.22792422
   0.53656586  0.66126900  0.84947654
   0.49704543  0.51082483  0.50717182
   0.50981078  0.99951566  0.99251682
   0.01630792  0.49852080  0.01231240
   0.99803171  0.01615011  0.49849954
   0.11811413  0.89669869  0.62843320
   0.11345737  0.12248012  0.35627124
   0.86074262  0.89525462  0.38957050
   0.89009536  0.15276962  0.61848022
   0.89942036  0.62818106  0.13560520
   0.89594601  0.36856808  0.89241304
   0.14896625  0.60007050  0.88247164
   0.13115661  0.37467284  0.13798755
   0.64640409  0.10213333  0.86590564
   0.61397075  0.87708042  0.13103069
   0.37547664  0.13270433  0.08851791
   0.39248519  0.87394615  0.86512784
   0.61471957  0.63856293  0.38235998
   0.62496656  0.37598568  0.61017310
   0.39245897  0.63510068  0.64259711
   0.36029252  0.40734043  0.38239887
   0.75923469  0.74777076  0.75523283
   0.74072443  0.25598404  0.23819120
   0.24418469  0.76110627  0.25408260
   0.27076671  0.25297147  0.74094843
   0.00582727  0.97055879  0.99631380
   0.97971442  0.51907568  0.52702353
   0.47105564  0.01558110  0.48354911
   0.52441577  0.49245538  0.02564846
