  52  52   0   4
  0.1738411E+02  0.9669083E-09  0.9669083E-09  0.9669083E-09  0.2000000E-15
  1.000000000000000E-004
  CAR 
 unknown system                          
     12.57823031    -45.26923996  301      2.02106698      1.00000000
    -45.269  0.0000E+00  0.0000E+00  0.0000E+00  0.0000E+00
    -45.076  0.0000E+00  0.0000E+00  0.0000E+00  0.0000E+00
    -44.884  0.0000E+00  0.0000E+00  0.0000E+00  0.0000E+00
    -44.691  0.0000E+00  0.0000E+00  0.0000E+00  0.0000E+00
    -44.498  0.0000E+00  0.0000E+00  0.0000E+00  0.0000E+00
    -44.305  0.0000E+00  0.0000E+00  0.0000E+00  0.0000E+00
    -44.112  0.0000E+00  0.0000E+00  0.0000E+00  0.0000E+00
    -43.919  0.0000E+00  0.0000E+00  0.0000E+00  0.0000E+00
    -43.727  0.0000E+00  0.0000E+00  0.0000E+00  0.0000E+00
    -43.534  0.0000E+00  0.0000E+00  0.0000E+00  0.0000E+00
    -43.341  0.0000E+00  0.0000E+00  0.0000E+00  0.0000E+00
    -43.148  0.0000E+00  0.0000E+00  0.0000E+00  0.0000E+00
    -42.955  0.0000E+00  0.0000E+00  0.0000E+00  0.0000E+00
    -42.763  0.1886E-10  0.1886E-10  0.3637E-11  0.3637E-11
    -42.570  0.9983E-02  0.9983E-02  0.1925E-02  0.1925E-02
    -42.377  0.7514E-01  0.7514E-01  0.1641E-01  0.1641E-01
    -42.184  0.3872E-01  0.3872E-01  0.2389E-01  0.2389E-01
    -41.991  0.5549E-03  0.5549E-03  0.2400E-01  0.2400E-01
    -41.798  0.0000E+00  0.0000E+00  0.2400E-01  0.2400E-01
    -41.606  0.0000E+00  0.0000E+00  0.2400E-01  0.2400E-01
    -41.413  0.0000E+00  0.0000E+00  0.2400E-01  0.2400E-01
    -41.220  0.0000E+00  0.0000E+00  0.2400E-01  0.2400E-01
    -41.027  0.0000E+00  0.0000E+00  0.2400E-01  0.2400E-01
    -40.834  0.0000E+00  0.0000E+00  0.2400E-01  0.2400E-01
    -40.641  0.0000E+00  0.0000E+00  0.2400E-01  0.2400E-01
    -40.449  0.0000E+00  0.0000E+00  0.2400E-01  0.2400E-01
    -40.256  0.0000E+00  0.0000E+00  0.2400E-01  0.2400E-01
    -40.063  0.0000E+00  0.0000E+00  0.2400E-01  0.2400E-01
    -39.870  0.0000E+00  0.0000E+00  0.2400E-01  0.2400E-01
    -39.677  0.0000E+00  0.0000E+00  0.2400E-01  0.2400E-01
    -39.484  0.0000E+00  0.0000E+00  0.2400E-01  0.2400E-01
    -39.292  0.0000E+00  0.0000E+00  0.2400E-01  0.2400E-01
    -39.099  0.0000E+00  0.0000E+00  0.2400E-01  0.2400E-01
    -38.906  0.0000E+00  0.0000E+00  0.2400E-01  0.2400E-01
    -38.713  0.0000E+00  0.0000E+00  0.2400E-01  0.2400E-01
    -38.520  0.0000E+00  0.0000E+00  0.2400E-01  0.2400E-01
    -38.328  0.0000E+00  0.0000E+00  0.2400E-01  0.2400E-01
    -38.135  0.0000E+00  0.0000E+00  0.2400E-01  0.2400E-01
    -37.942  0.0000E+00  0.0000E+00  0.2400E-01  0.2400E-01
    -37.749  0.0000E+00  0.0000E+00  0.2400E-01  0.2400E-01
    -37.556  0.0000E+00  0.0000E+00  0.2400E-01  0.2400E-01
    -37.363  0.0000E+00  0.0000E+00  0.2400E-01  0.2400E-01
    -37.171  0.0000E+00  0.0000E+00  0.2400E-01  0.2400E-01
    -36.978  0.0000E+00  0.0000E+00  0.2400E-01  0.2400E-01
    -36.785  0.0000E+00  0.0000E+00  0.2400E-01  0.2400E-01
    -36.592  0.0000E+00  0.0000E+00  0.2400E-01  0.2400E-01
    -36.399  0.0000E+00  0.0000E+00  0.2400E-01  0.2400E-01
    -36.206  0.0000E+00  0.0000E+00  0.2400E-01  0.2400E-01
    -36.014  0.0000E+00  0.0000E+00  0.2400E-01  0.2400E-01
    -35.821  0.0000E+00  0.0000E+00  0.2400E-01  0.2400E-01
    -35.628  0.0000E+00  0.0000E+00  0.2400E-01  0.2400E-01
    -35.435  0.0000E+00  0.0000E+00  0.2400E-01  0.2400E-01
    -35.242  0.0000E+00  0.0000E+00  0.2400E-01  0.2400E-01
    -35.050  0.0000E+00  0.0000E+00  0.2400E-01  0.2400E-01
    -34.857  0.0000E+00  0.0000E+00  0.2400E-01  0.2400E-01
    -34.664  0.0000E+00  0.0000E+00  0.2400E-01  0.2400E-01
    -34.471  0.0000E+00  0.0000E+00  0.2400E-01  0.2400E-01
    -34.278  0.0000E+00  0.0000E+00  0.2400E-01  0.2400E-01
    -34.085  0.0000E+00  0.0000E+00  0.2400E-01  0.2400E-01
    -33.893  0.0000E+00  0.0000E+00  0.2400E-01  0.2400E-01
    -33.700  0.0000E+00  0.0000E+00  0.2400E-01  0.2400E-01
    -33.507  0.0000E+00  0.0000E+00  0.2400E-01  0.2400E-01
    -33.314  0.0000E+00  0.0000E+00  0.2400E-01  0.2400E-01
    -33.121  0.0000E+00  0.0000E+00  0.2400E-01  0.2400E-01
    -32.928  0.0000E+00  0.0000E+00  0.2400E-01  0.2400E-01
    -32.736  0.0000E+00  0.0000E+00  0.2400E-01  0.2400E-01
    -32.543  0.0000E+00  0.0000E+00  0.2400E-01  0.2400E-01
    -32.350  0.0000E+00  0.0000E+00  0.2400E-01  0.2400E-01
    -32.157  0.0000E+00  0.0000E+00  0.2400E-01  0.2400E-01
    -31.964  0.0000E+00  0.0000E+00  0.2400E-01  0.2400E-01
    -31.771  0.0000E+00  0.0000E+00  0.2400E-01  0.2400E-01
    -31.579  0.0000E+00  0.0000E+00  0.2400E-01  0.2400E-01
    -31.386  0.0000E+00  0.0000E+00  0.2400E-01  0.2400E-01
    -31.193  0.0000E+00  0.0000E+00  0.2400E-01  0.2400E-01
    -31.000  0.0000E+00  0.0000E+00  0.2400E-01  0.2400E-01
    -30.807  0.0000E+00  0.0000E+00  0.2400E-01  0.2400E-01
    -30.615  0.0000E+00  0.0000E+00  0.2400E-01  0.2400E-01
    -30.422  0.0000E+00  0.0000E+00  0.2400E-01  0.2400E-01
    -30.229  0.0000E+00  0.0000E+00  0.2400E-01  0.2400E-01
    -30.036  0.0000E+00  0.0000E+00  0.2400E-01  0.2400E-01
    -29.843  0.0000E+00  0.0000E+00  0.2400E-01  0.2400E-01
    -29.650  0.0000E+00  0.0000E+00  0.2400E-01  0.2400E-01
    -29.458  0.0000E+00  0.0000E+00  0.2400E-01  0.2400E-01
    -29.265  0.0000E+00  0.0000E+00  0.2400E-01  0.2400E-01
    -29.072  0.0000E+00  0.0000E+00  0.2400E-01  0.2400E-01
    -28.879  0.0000E+00  0.0000E+00  0.2400E-01  0.2400E-01
    -28.686  0.0000E+00  0.0000E+00  0.2400E-01  0.2400E-01
    -28.493  0.0000E+00  0.0000E+00  0.2400E-01  0.2400E-01
    -28.301  0.0000E+00  0.0000E+00  0.2400E-01  0.2400E-01
    -28.108  0.0000E+00  0.0000E+00  0.2400E-01  0.2400E-01
    -27.915  0.0000E+00  0.0000E+00  0.2400E-01  0.2400E-01
    -27.722  0.0000E+00  0.0000E+00  0.2400E-01  0.2400E-01
    -27.529  0.0000E+00  0.0000E+00  0.2400E-01  0.2400E-01
    -27.337  0.0000E+00  0.0000E+00  0.2400E-01  0.2400E-01
    -27.144  0.0000E+00  0.0000E+00  0.2400E-01  0.2400E-01
    -26.951  0.0000E+00  0.0000E+00  0.2400E-01  0.2400E-01
    -26.758  0.0000E+00  0.0000E+00  0.2400E-01  0.2400E-01
    -26.565  0.0000E+00  0.0000E+00  0.2400E-01  0.2400E-01
    -26.372  0.0000E+00  0.0000E+00  0.2400E-01  0.2400E-01
    -26.180  0.0000E+00  0.0000E+00  0.2400E-01  0.2400E-01
    -25.987  0.0000E+00  0.0000E+00  0.2400E-01  0.2400E-01
    -25.794  0.0000E+00  0.0000E+00  0.2400E-01  0.2400E-01
    -25.601  0.0000E+00  0.0000E+00  0.2400E-01  0.2400E-01
    -25.408  0.0000E+00  0.0000E+00  0.2400E-01  0.2400E-01
    -25.215  0.0000E+00  0.0000E+00  0.2400E-01  0.2400E-01
    -25.023  0.0000E+00  0.0000E+00  0.2400E-01  0.2400E-01
    -24.830  0.0000E+00  0.0000E+00  0.2400E-01  0.2400E-01
    -24.637  0.0000E+00  0.0000E+00  0.2400E-01  0.2400E-01
    -24.444  0.0000E+00  0.0000E+00  0.2400E-01  0.2400E-01
    -24.251  0.0000E+00  0.0000E+00  0.2400E-01  0.2400E-01
    -24.059  0.0000E+00  0.0000E+00  0.2400E-01  0.2400E-01
    -23.866  0.0000E+00  0.0000E+00  0.2400E-01  0.2400E-01
    -23.673  0.0000E+00  0.0000E+00  0.2400E-01  0.2400E-01
    -23.480  0.0000E+00  0.0000E+00  0.2400E-01  0.2400E-01
    -23.287  0.0000E+00  0.0000E+00  0.2400E-01  0.2400E-01
    -23.094  0.0000E+00  0.0000E+00  0.2400E-01  0.2400E-01
    -22.902  0.0000E+00  0.0000E+00  0.2400E-01  0.2400E-01
    -22.709  0.0000E+00  0.0000E+00  0.2400E-01  0.2400E-01
    -22.516  0.0000E+00  0.0000E+00  0.2400E-01  0.2400E-01
    -22.323  0.0000E+00  0.0000E+00  0.2400E-01  0.2400E-01
    -22.130  0.0000E+00  0.0000E+00  0.2400E-01  0.2400E-01
    -21.937  0.0000E+00  0.0000E+00  0.2400E-01  0.2400E-01
    -21.745  0.0000E+00  0.0000E+00  0.2400E-01  0.2400E-01
    -21.552  0.0000E+00  0.0000E+00  0.2400E-01  0.2400E-01
    -21.359  0.0000E+00  0.0000E+00  0.2400E-01  0.2400E-01
    -21.166  0.0000E+00  0.0000E+00  0.2400E-01  0.2400E-01
    -20.973  0.0000E+00  0.0000E+00  0.2400E-01  0.2400E-01
    -20.780  0.0000E+00  0.0000E+00  0.2400E-01  0.2400E-01
    -20.588  0.0000E+00  0.0000E+00  0.2400E-01  0.2400E-01
    -20.395  0.0000E+00  0.0000E+00  0.2400E-01  0.2400E-01
    -20.202  0.0000E+00  0.0000E+00  0.2400E-01  0.2400E-01
    -20.009  0.0000E+00  0.0000E+00  0.2400E-01  0.2400E-01
    -19.816  0.0000E+00  0.0000E+00  0.2400E-01  0.2400E-01
    -19.624  0.0000E+00  0.0000E+00  0.2400E-01  0.2400E-01
    -19.431  0.0000E+00  0.0000E+00  0.2400E-01  0.2400E-01
    -19.238  0.0000E+00  0.0000E+00  0.2400E-01  0.2400E-01
    -19.045  0.0000E+00  0.0000E+00  0.2400E-01  0.2400E-01
    -18.852  0.0000E+00  0.0000E+00  0.2400E-01  0.2400E-01
    -18.659  0.0000E+00  0.0000E+00  0.2400E-01  0.2400E-01
    -18.467  0.0000E+00  0.0000E+00  0.2400E-01  0.2400E-01
    -18.274  0.0000E+00  0.0000E+00  0.2400E-01  0.2400E-01
    -18.081  0.0000E+00  0.0000E+00  0.2400E-01  0.2400E-01
    -17.888  0.0000E+00  0.0000E+00  0.2400E-01  0.2400E-01
    -17.695  0.0000E+00  0.0000E+00  0.2400E-01  0.2400E-01
    -17.502  0.0000E+00  0.0000E+00  0.2400E-01  0.2400E-01
    -17.310  0.0000E+00  0.0000E+00  0.2400E-01  0.2400E-01
    -17.117  0.0000E+00  0.0000E+00  0.2400E-01  0.2400E-01
    -16.924  0.0000E+00  0.0000E+00  0.2400E-01  0.2400E-01
    -16.731  0.0000E+00  0.0000E+00  0.2400E-01  0.2400E-01
    -16.538  0.0000E+00  0.0000E+00  0.2400E-01  0.2400E-01
    -16.346  0.0000E+00  0.0000E+00  0.2400E-01  0.2400E-01
    -16.153  0.0000E+00  0.0000E+00  0.2400E-01  0.2400E-01
    -15.960  0.0000E+00  0.0000E+00  0.2400E-01  0.2400E-01
    -15.767  0.0000E+00  0.0000E+00  0.2400E-01  0.2400E-01
    -15.574  0.0000E+00  0.0000E+00  0.2400E-01  0.2400E-01
    -15.381  0.0000E+00  0.0000E+00  0.2400E-01  0.2400E-01
    -15.189  0.0000E+00  0.0000E+00  0.2400E-01  0.2400E-01
    -14.996  0.0000E+00  0.0000E+00  0.2400E-01  0.2400E-01
    -14.803  0.0000E+00  0.0000E+00  0.2400E-01  0.2400E-01
    -14.610  0.0000E+00  0.0000E+00  0.2400E-01  0.2400E-01
    -14.417  0.0000E+00  0.0000E+00  0.2400E-01  0.2400E-01
    -14.224  0.0000E+00  0.0000E+00  0.2400E-01  0.2400E-01
    -14.032  0.0000E+00  0.0000E+00  0.2400E-01  0.2400E-01
    -13.839  0.0000E+00  0.0000E+00  0.2400E-01  0.2400E-01
    -13.646  0.0000E+00  0.0000E+00  0.2400E-01  0.2400E-01
    -13.453  0.0000E+00  0.0000E+00  0.2400E-01  0.2400E-01
    -13.260  0.0000E+00  0.0000E+00  0.2400E-01  0.2400E-01
    -13.067  0.2880E-02  0.2880E-02  0.2456E-01  0.2456E-01
    -12.875  0.1786E-01  0.1786E-01  0.2800E-01  0.2800E-01
    -12.682  0.4961E-02  0.4961E-02  0.2896E-01  0.2896E-01
    -12.489  0.1080E-01  0.1080E-01  0.3104E-01  0.3104E-01
    -12.296  0.4972E-02  0.4972E-02  0.3200E-01  0.3200E-01
    -12.103  0.0000E+00  0.0000E+00  0.3200E-01  0.3200E-01
    -11.911  0.0000E+00  0.0000E+00  0.3200E-01  0.3200E-01
    -11.718  0.0000E+00  0.0000E+00  0.3200E-01  0.3200E-01
    -11.525  0.0000E+00  0.0000E+00  0.3200E-01  0.3200E-01
    -11.332  0.0000E+00  0.0000E+00  0.3200E-01  0.3200E-01
    -11.139  0.0000E+00  0.0000E+00  0.3200E-01  0.3200E-01
    -10.946  0.0000E+00  0.0000E+00  0.3200E-01  0.3200E-01
    -10.754  0.0000E+00  0.0000E+00  0.3200E-01  0.3200E-01
    -10.561  0.0000E+00  0.0000E+00  0.3200E-01  0.3200E-01
    -10.368  0.4526E-06  0.4526E-06  0.3200E-01  0.3200E-01
    -10.175  0.1569E-01  0.1569E-01  0.3503E-01  0.3503E-01
     -9.982  0.2469E-01  0.2469E-01  0.3979E-01  0.3979E-01
     -9.789  0.2182E-01  0.2182E-01  0.4400E-01  0.4400E-01
     -9.597  0.0000E+00  0.0000E+00  0.4400E-01  0.4400E-01
     -9.404  0.0000E+00  0.0000E+00  0.4400E-01  0.4400E-01
     -9.211  0.0000E+00  0.0000E+00  0.4400E-01  0.4400E-01
     -9.018  0.0000E+00  0.0000E+00  0.4400E-01  0.4400E-01
     -8.825  0.0000E+00  0.0000E+00  0.4400E-01  0.4400E-01
     -8.633  0.0000E+00  0.0000E+00  0.4400E-01  0.4400E-01
     -8.440  0.6304E-03  0.6304E-03  0.4412E-01  0.4412E-01
     -8.247  0.1999E-01  0.1999E-01  0.4798E-01  0.4798E-01
     -8.054  0.1207E-03  0.1207E-03  0.4800E-01  0.4800E-01
     -7.861  0.0000E+00  0.0000E+00  0.4800E-01  0.4800E-01
     -7.668  0.0000E+00  0.0000E+00  0.4800E-01  0.4800E-01
     -7.476  0.0000E+00  0.0000E+00  0.4800E-01  0.4800E-01
     -7.283  0.0000E+00  0.0000E+00  0.4800E-01  0.4800E-01
     -7.090  0.0000E+00  0.0000E+00  0.4800E-01  0.4800E-01
     -6.897  0.0000E+00  0.0000E+00  0.4800E-01  0.4800E-01
     -6.704  0.0000E+00  0.0000E+00  0.4800E-01  0.4800E-01
     -6.511  0.0000E+00  0.0000E+00  0.4800E-01  0.4800E-01
     -6.319  0.0000E+00  0.0000E+00  0.4800E-01  0.4800E-01
     -6.126  0.2610E-02  0.2610E-02  0.4850E-01  0.4850E-01
     -5.933  0.2576E-02  0.2576E-02  0.4900E-01  0.4900E-01
     -5.740  0.1949E-02  0.1949E-02  0.4938E-01  0.4938E-01
     -5.547  0.1360E-01  0.1360E-01  0.5200E-01  0.5200E-01
     -5.354  0.0000E+00  0.0000E+00  0.5200E-01  0.5200E-01
     -5.162  0.0000E+00  0.0000E+00  0.5200E-01  0.5200E-01
     -4.969  0.0000E+00  0.0000E+00  0.5200E-01  0.5200E-01
     -4.776  0.0000E+00  0.0000E+00  0.5200E-01  0.5200E-01
     -4.583  0.0000E+00  0.0000E+00  0.5200E-01  0.5200E-01
     -4.390  0.0000E+00  0.0000E+00  0.5200E-01  0.5200E-01
     -4.198  0.0000E+00  0.0000E+00  0.5200E-01  0.5200E-01
     -4.005  0.0000E+00  0.0000E+00  0.5200E-01  0.5200E-01
     -3.812  0.0000E+00  0.0000E+00  0.5200E-01  0.5200E-01
     -3.619  0.0000E+00  0.0000E+00  0.5200E-01  0.5200E-01
     -3.426  0.0000E+00  0.0000E+00  0.5200E-01  0.5200E-01
     -3.233  0.3148E-02  0.3148E-02  0.5261E-01  0.5261E-01
     -3.041  0.1241E-01  0.1241E-01  0.5500E-01  0.5500E-01
     -2.848  0.3110E-02  0.3110E-02  0.5560E-01  0.5560E-01
     -2.655  0.1154E-01  0.1154E-01  0.5783E-01  0.5783E-01
     -2.462  0.1258E-01  0.1258E-01  0.6025E-01  0.6025E-01
     -2.269  0.1921E-01  0.1921E-01  0.6396E-01  0.6396E-01
     -2.076  0.1996E-03  0.1996E-03  0.6400E-01  0.6400E-01
     -1.884  0.0000E+00  0.0000E+00  0.6400E-01  0.6400E-01
     -1.691  0.1158E-10  0.1158E-10  0.6400E-01  0.6400E-01
     -1.498  0.1280E-01  0.1280E-01  0.6647E-01  0.6647E-01
     -1.305  0.1956E-01  0.1956E-01  0.7024E-01  0.7024E-01
     -1.112  0.1914E-01  0.1914E-01  0.7394E-01  0.7394E-01
     -0.920  0.6368E-02  0.6368E-02  0.7516E-01  0.7516E-01
     -0.727  0.4338E-02  0.4338E-02  0.7600E-01  0.7600E-01
     -0.534  0.6511E-02  0.6511E-02  0.7726E-01  0.7726E-01
     -0.341  0.1314E-01  0.1314E-01  0.7979E-01  0.7979E-01
     -0.148  0.1136E-01  0.1136E-01  0.8198E-01  0.8198E-01
      0.045  0.2745E-01  0.2745E-01  0.8727E-01  0.8727E-01
      0.237  0.2484E-01  0.2484E-01  0.9206E-01  0.9206E-01
      0.430  0.2012E-01  0.2012E-01  0.9595E-01  0.9595E-01
      0.623  0.2754E-03  0.2754E-03  0.9600E-01  0.9600E-01
      0.816  0.1263E-01  0.1263E-01  0.9844E-01  0.9844E-01
      1.009  0.2244E-01  0.2244E-01  0.1028E+00  0.1028E+00
      1.202  0.2252E-01  0.2252E-01  0.1071E+00  0.1071E+00
      1.394  0.2534E-01  0.2534E-01  0.1120E+00  0.1120E+00
      1.587  0.2787E-01  0.2787E-01  0.1174E+00  0.1174E+00
      1.780  0.1272E-01  0.1272E-01  0.1198E+00  0.1198E+00
      1.973  0.9006E-03  0.9006E-03  0.1200E+00  0.1200E+00
      2.166  0.0000E+00  0.0000E+00  0.1200E+00  0.1200E+00
      2.359  0.0000E+00  0.0000E+00  0.1200E+00  0.1200E+00
      2.551  0.0000E+00  0.0000E+00  0.1200E+00  0.1200E+00
      2.744  0.0000E+00  0.0000E+00  0.1200E+00  0.1200E+00
      2.937  0.0000E+00  0.0000E+00  0.1200E+00  0.1200E+00
      3.130  0.0000E+00  0.0000E+00  0.1200E+00  0.1200E+00
      3.323  0.0000E+00  0.0000E+00  0.1200E+00  0.1200E+00
      3.515  0.0000E+00  0.0000E+00  0.1200E+00  0.1200E+00
      3.708  0.0000E+00  0.0000E+00  0.1200E+00  0.1200E+00
      3.901  0.0000E+00  0.0000E+00  0.1200E+00  0.1200E+00
      4.094  0.0000E+00  0.0000E+00  0.1200E+00  0.1200E+00
      4.287  0.3845E-10  0.3845E-10  0.1200E+00  0.1200E+00
      4.480  0.5158E-02  0.5158E-02  0.1210E+00  0.1210E+00
      4.672  0.0000E+00  0.0000E+00  0.1210E+00  0.1210E+00
      4.865  0.0000E+00  0.0000E+00  0.1210E+00  0.1210E+00
      5.058  0.1294E-13  0.1294E-13  0.1210E+00  0.1210E+00
      5.251  0.5966E-02  0.5966E-02  0.1222E+00  0.1222E+00
      5.444  0.9581E-02  0.9581E-02  0.1240E+00  0.1240E+00
      5.637  0.0000E+00  0.0000E+00  0.1240E+00  0.1240E+00
      5.829  0.1034E-04  0.1034E-04  0.1240E+00  0.1240E+00
      6.022  0.1367E-01  0.1367E-01  0.1266E+00  0.1266E+00
      6.215  0.1553E-01  0.1553E-01  0.1296E+00  0.1296E+00
      6.408  0.2007E-02  0.2007E-02  0.1300E+00  0.1300E+00
      6.601  0.1337E-01  0.1337E-01  0.1326E+00  0.1326E+00
      6.793  0.7033E-02  0.7033E-02  0.1340E+00  0.1340E+00
      6.986  0.1055E-01  0.1055E-01  0.1360E+00  0.1360E+00
      7.179  0.5185E-02  0.5185E-02  0.1370E+00  0.1370E+00
      7.372  0.5066E-02  0.5066E-02  0.1380E+00  0.1380E+00
      7.565  0.9324E-02  0.9324E-02  0.1398E+00  0.1398E+00
      7.758  0.1177E-01  0.1177E-01  0.1420E+00  0.1420E+00
      7.950  0.1152E-01  0.1152E-01  0.1443E+00  0.1443E+00
      8.143  0.1446E-01  0.1446E-01  0.1471E+00  0.1471E+00
      8.336  0.1440E-01  0.1440E-01  0.1498E+00  0.1498E+00
      8.529  0.1350E-01  0.1350E-01  0.1524E+00  0.1524E+00
      8.722  0.1640E-01  0.1640E-01  0.1556E+00  0.1556E+00
      8.915  0.1663E-01  0.1663E-01  0.1588E+00  0.1588E+00
      9.107  0.1658E-01  0.1658E-01  0.1620E+00  0.1620E+00
      9.300  0.1853E-01  0.1853E-01  0.1656E+00  0.1656E+00
      9.493  0.1784E-01  0.1783E-01  0.1690E+00  0.1690E+00
      9.686  0.1533E-01  0.1516E-01  0.1720E+00  0.1719E+00
      9.879  0.1548E-01  0.1652E-01  0.1750E+00  0.1751E+00
     10.072  0.5338E-02  0.4452E-02  0.1760E+00  0.1760E+00
     10.264  0.0000E+00  0.0000E+00  0.1760E+00  0.1760E+00
     10.457  0.0000E+00  0.0000E+00  0.1760E+00  0.1760E+00
     10.650  0.0000E+00  0.0000E+00  0.1760E+00  0.1760E+00
     10.843  0.0000E+00  0.0000E+00  0.1760E+00  0.1760E+00
     11.036  0.0000E+00  0.0000E+00  0.1760E+00  0.1760E+00
     11.228  0.0000E+00  0.0000E+00  0.1760E+00  0.1760E+00
     11.421  0.0000E+00  0.0000E+00  0.1760E+00  0.1760E+00
     11.614  0.0000E+00  0.0000E+00  0.1760E+00  0.1760E+00
     11.807  0.0000E+00  0.0000E+00  0.1760E+00  0.1760E+00
     12.000  0.0000E+00  0.0000E+00  0.1760E+00  0.1760E+00
     12.193  0.0000E+00  0.0000E+00  0.1760E+00  0.1760E+00
     12.385  0.0000E+00  0.0000E+00  0.1760E+00  0.1760E+00
     12.578  0.0000E+00  0.0000E+00  0.1760E+00  0.1760E+00
