 vasp.6.4.1 05Apr23 (build Jun 07 2023 15:38:11) complex                        
  
 executed on             LinuxIFC date 2023.10.23  15:02:46
 running  128 mpi-ranks, with    1 threads/rank, on    1 nodes
 distrk:  each k-point on  128 cores,    1 groups
 distr:  one band on NCORE=  32 cores,    4 groups


--------------------------------------------------------------------------------------------------------


 INCAR:
   GGA = PE
   PREC = Accu
   EDIFF = 1.e-6
   EDIFFG = -1.e-3
   ENCUT = 520.
   NELM = 100
   NELMDL = -10
   LASPH = .TRUE.
   LREAL = Auto
   LMAXMIX = 4
   ISPIN = 2
   LDIAG = .TRUE.
   LPLANE = .TRUE.
   IVDW = 12
   SIGMA = 0.03
   ISMEAR = 0
   NSW = 1000    number of steps for IOM
   IBRION = 2    ionic relax: 0-MD 1-quasi-New 2-CG
   ISIF = 2    ionic relaxation + stress tensor calcn.
   LCHARG = .FALSE.
   LWAVE = .FALSE.
   ALGO = F
   KPAR = 1
   NPAR = 4
   POTIM = 0.2

 POTCAR:    PAW_PBE Li_sv_GW 25Mar2010            
 POTCAR:    PAW_PBE P_GW 19Mar2012                
 POTCAR:    PAW_PBE S_GW 19Mar2012                
 POTCAR:    PAW_PBE Cl_GW 19Mar2012               
 -----------------------------------------------------------------------------
|                                                                             |
|           W    W    AA    RRRRR   N    N  II  N    N   GGGG   !!!           |
|           W    W   A  A   R    R  NN   N  II  NN   N  G    G  !!!           |
|           W    W  A    A  R    R  N N  N  II  N N  N  G       !!!           |
|           W WW W  AAAAAA  RRRRR   N  N N  II  N  N N  G  GGG   !            |
|           WW  WW  A    A  R   R   N   NN  II  N   NN  G    G                |
|           W    W  A    A  R    R  N    N  II  N    N   GGGG   !!!           |
|                                                                             |
|     You use a magnetic or noncollinear calculation, but did not specify     |
|     the initial magnetic moment with the MAGMOM tag. Note that a            |
|     default of 1 will be used for all atoms. This ferromagnetic setup       |
|     may break the symmetry of the crystal, in particular it may rule        |
|     out finding an antiferromagnetic solution. Thence, we recommend         |
|     setting the initial magnetic moment manually or verifying carefully     |
|     that this magnetic setup is desired.                                    |
|                                                                             |
 -----------------------------------------------------------------------------

 POTCAR:    PAW_PBE Li_sv_GW 25Mar2010            
   SHA256 =  24a6ace15a582615486b36ce4dc781b048409f4015b7684ed1273ae395fa2fdc Li_sv_GW/POTCAR       
   COPYR  = (c) Copyright 25Mar2010 Georg Kresse                                                    
   COPYR  = This file is part of the software VASP. Any use, copying, and all other rights are regul
   COPYR  = If you do not have a valid VASP license, you may not use, copy or distribute this file. 
   VRHFIN =Li: 1s2s                                                                                 
   LEXCH  = PE                                                                                      
   EATOM  =   200.9989 eV,   14.7730 Ry                                                             
                                                                                                    
   TITEL  = PAW_PBE Li_sv_GW 25Mar2010                                                              
   LULTRA =        F    use ultrasoft PP ?                                                          
   IUNSCR =        0    unscreen: 0-lin 1-nonlin 2-no                                               
   RPACOR =    0.000    partial core radius                                                         
   POMASS =    7.010; ZVAL   =    3.000    mass and valenz                                          
   RCORE  =    1.500    outmost cutoff radius                                                       
   RWIGS  =    1.600; RWIGS  =    0.847    wigner-seitz radius (au A)                               
   ENMAX  =  433.699; ENMIN  =  325.274 eV                                                          
   RCLOC  =    1.003    cutoff for local pot                                                        
   LCOR   =        T    correct aug charges                                                         
   LPAW   =        T    paw PP                                                                      
   EAUG   = 1041.699                                                                                
   RMAX   =    1.536    core radius for proj-oper                                                   
   RAUG   =    1.300    factor for augmentation sphere                                              
   RDEP   =    1.520    radius for radial grids                                                     
   RDEPT  =    1.300    core radius for aug-charge                                                  
                                                                                                    
   Atomic configuration                                                                             
    4 entries                                                                                       
     n  l   j            E        occ.                                                              
     1  0  0.50       -53.3604   2.0000                                                             
     1  0  0.50       -52.0001   0.0000                                                             
     2  1  0.50        -1.5636   1.0000                                                             
     3  2  1.50        -1.3606   0.0000                                                             
   Description                                                                                      
     l       E           TYP  RCUT    TYP  RCUT                                                     
     0    -53.3603633     23  1.200                                                                 
     0    -52.0001064     23  1.200                                                                 
     0    176.8757380     23  1.300                                                                 
     1     -1.5635925     23  1.500                                                                 
     1    108.8466080     23  1.500                                                                 
     2     81.6349560     23  1.500                                                                 
  local pseudopotential read in
  kinetic energy density of atom read in
  atomic valenz-charges read in
  non local Contribution for L=           0  read in
    real space projection operators read in
  non local Contribution for L=           0  read in
    real space projection operators read in
  non local Contribution for L=           0  read in
    real space projection operators read in
  non local Contribution for L=           1  read in
    real space projection operators read in
  non local Contribution for L=           1  read in
    real space projection operators read in
  non local Contribution for L=           2  read in
    real space projection operators read in
    PAW grid and wavefunctions read in
 
   number of l-projection  operators is LMAX  =           6
   number of lm-projection operators is LMMAX =          14
 
 POTCAR:    PAW_PBE P_GW 19Mar2012                
   SHA256 =  715c28f2291d37b61637ce89646c59f66f71c8b8d8bfba631e5feb9f7b42defe P_GW/POTCAR           
   COPYR  = (c) Copyright 19Mar2012 Georg Kresse                                                    
   COPYR  = This file is part of the software VASP. Any use, copying, and all other rights are regul
   COPYR  = If you do not have a valid VASP license, you may not use, copy or distribute this file. 
   VRHFIN =P : s2p3                                                                                 
   LEXCH  = PE                                                                                      
   EATOM  =   176.0430 eV,   12.9388 Ry                                                             
                                                                                                    
   TITEL  = PAW_PBE P_GW 19Mar2012                                                                  
   LULTRA =        F    use ultrasoft PP ?                                                          
   IUNSCR =        1    unscreen: 0-lin 1-nonlin 2-no                                               
   RPACOR =    1.400    partial core radius                                                         
   POMASS =   30.974; ZVAL   =    5.000    mass and valenz                                          
   RCORE  =    2.000    outmost cutoff radius                                                       
   RWIGS  =    1.900; RWIGS  =    1.005    wigner-seitz radius (au A)                               
   ENMAX  =  255.040; ENMIN  =  191.280 eV                                                          
   ICORE  =        3    local potential                                                             
   LCOR   =        T    correct aug charges                                                         
   LPAW   =        T    paw PP                                                                      
   EAUG   =  499.732                                                                                
   DEXC   =    0.000                                                                                
   RMAX   =    2.047    core radius for proj-oper                                                   
   RAUG   =    1.300    factor for augmentation sphere                                              
   RDEP   =    2.059    radius for radial grids                                                     
   RDEPT  =    1.900    core radius for aug-charge                                                  
                                                                                                    
   Atomic configuration                                                                             
    7 entries                                                                                       
     n  l   j            E        occ.                                                              
     1  0  0.50     -2084.0982   2.0000                                                             
     2  0  0.50      -173.9859   2.0000                                                             
     2  1  1.50      -124.4865   6.0000                                                             
     3  0  0.50       -13.9692   2.0000                                                             
     3  1  0.50        -5.5067   3.0000                                                             
     3  2  1.50        -6.8029   0.0000                                                             
     4  3  2.50        -1.3606   0.0000                                                             
   Description                                                                                      
     l       E           TYP  RCUT    TYP  RCUT                                                     
     0    -13.9691528     23  1.900                                                                 
     0    102.0436950     23  1.900                                                                 
     1     -5.5066939     23  1.900                                                                 
     1    102.0436950     23  1.900                                                                 
     2     -8.1634956     23  2.000                                                                 
     2     81.6349560     23  2.000                                                                 
     3     27.2116520     23  2.000                                                                 
  local pseudopotential read in
  partial core-charges read in
  partial kinetic energy density read in
  kinetic energy density of atom read in
  atomic valenz-charges read in
  non local Contribution for L=           0  read in
    real space projection operators read in
  non local Contribution for L=           0  read in
    real space projection operators read in
  non local Contribution for L=           1  read in
    real space projection operators read in
  non local Contribution for L=           1  read in
    real space projection operators read in
  non local Contribution for L=           2  read in
    real space projection operators read in
  non local Contribution for L=           2  read in
    real space projection operators read in
    PAW grid and wavefunctions read in
 
   number of l-projection  operators is LMAX  =           6
   number of lm-projection operators is LMMAX =          18
 
 POTCAR:    PAW_PBE S_GW 19Mar2012                
   SHA256 =  357db9cfb0783579b2eebe03197c2d807131fea8ea663b1fcfb6ce2fa75af011 S_GW/POTCAR           
   COPYR  = (c) Copyright 19Mar2012 Georg Kresse                                                    
   COPYR  = This file is part of the software VASP. Any use, copying, and all other rights are regul
   COPYR  = If you do not have a valid VASP license, you may not use, copy or distribute this file. 
   VRHFIN =S : s2p4                                                                                 
   LEXCH  = PE                                                                                      
   EATOM  =   276.8230 eV,   20.3459 Ry                                                             
                                                                                                    
   TITEL  = PAW_PBE S_GW 19Mar2012                                                                  
   LULTRA =        F    use ultrasoft PP ?                                                          
   IUNSCR =        1    unscreen: 0-lin 1-nonlin 2-no                                               
   RPACOR =    1.400    partial core radius                                                         
   POMASS =   32.066; ZVAL   =    6.000    mass and valenz                                          
   RCORE  =    1.900    outmost cutoff radius                                                       
   RWIGS  =    1.900; RWIGS  =    1.005    wigner-seitz radius (au A)                               
   ENMAX  =  258.689; ENMIN  =  194.016 eV                                                          
   ICORE  =        3    local potential                                                             
   LCOR   =        T    correct aug charges                                                         
   LPAW   =        T    paw PP                                                                      
   EAUG   =  488.319                                                                                
   DEXC   =    0.000                                                                                
   RMAX   =    1.942    core radius for proj-oper                                                   
   RAUG   =    1.300    factor for augmentation sphere                                              
   RDEP   =    1.954    radius for radial grids                                                     
   RDEPT  =    1.900    core radius for aug-charge                                                  
                                                                                                    
   Atomic configuration                                                                             
    7 entries                                                                                       
     n  l   j            E        occ.                                                              
     1  0  0.50     -2405.8406   2.0000                                                             
     2  0  0.50      -211.7007   2.0000                                                             
     2  1  1.50      -156.4958   6.0000                                                             
     3  0  0.50       -17.2562   2.0000                                                             
     3  1  0.50        -7.0085   4.0000                                                             
     3  2  1.50        -8.1635   0.0000                                                             
     4  3  2.50        -1.3606   0.0000                                                             
   Description                                                                                      
     l       E           TYP  RCUT    TYP  RCUT                                                     
     0    -17.2561639     23  1.700                                                                 
     0     88.4378690     23  1.900                                                                 
     1     -7.0085399     23  1.900                                                                 
     1     88.4378690     23  1.900                                                                 
     2    -10.8846608     23  1.900                                                                 
     2     54.4233040     23  1.900                                                                 
     3     27.2116520     23  1.800                                                                 
  local pseudopotential read in
  partial core-charges read in
  partial kinetic energy density read in
  kinetic energy density of atom read in
  atomic valenz-charges read in
  non local Contribution for L=           0  read in
    real space projection operators read in
  non local Contribution for L=           0  read in
    real space projection operators read in
  non local Contribution for L=           1  read in
    real space projection operators read in
  non local Contribution for L=           1  read in
    real space projection operators read in
  non local Contribution for L=           2  read in
    real space projection operators read in
  non local Contribution for L=           2  read in
    real space projection operators read in
    PAW grid and wavefunctions read in
 
   number of l-projection  operators is LMAX  =           6
   number of lm-projection operators is LMMAX =          18
 
 POTCAR:    PAW_PBE Cl_GW 19Mar2012               
   SHA256 =  3ef3b3169d6a9a89979f58b4cf17d927a58518fc660d8883d88cacaee8175441 Cl_GW/POTCAR          
   COPYR  = (c) Copyright 19Mar2012 Georg Kresse                                                    
   COPYR  = This file is part of the software VASP. Any use, copying, and all other rights are regul
   COPYR  = If you do not have a valid VASP license, you may not use, copy or distribute this file. 
   VRHFIN =Cl: s2p5                                                                                 
   LEXCH  = PE                                                                                      
   EATOM  =   409.7259 eV,   30.1140 Ry                                                             
                                                                                                    
   TITEL  = PAW_PBE Cl_GW 19Mar2012                                                                 
   LULTRA =        F    use ultrasoft PP ?                                                          
   IUNSCR =        1    unscreen: 0-lin 1-nonlin 2-no                                               
   RPACOR =    1.400    partial core radius                                                         
   POMASS =   35.453; ZVAL   =    7.000    mass and valenz                                          
   RCORE  =    1.900    outmost cutoff radius                                                       
   RWIGS  =    1.900; RWIGS  =    1.005    wigner-seitz radius (au A)                               
   ENMAX  =  262.472; ENMIN  =  196.854 eV                                                          
   ICORE  =        3    local potential                                                             
   LCOR   =        T    correct aug charges                                                         
   LPAW   =        T    paw PP                                                                      
   EAUG   =  456.703                                                                                
   DEXC   =    0.000                                                                                
   RMAX   =    1.945    core radius for proj-oper                                                   
   RAUG   =    1.300    factor for augmentation sphere                                              
   RDEP   =    2.020    radius for radial grids                                                     
   RDEPT  =    1.900    core radius for aug-charge                                                  
                                                                                                    
   Atomic configuration                                                                             
    7 entries                                                                                       
     n  l   j            E        occ.                                                              
     1  0  0.50     -2751.1850   2.0000                                                             
     2  0  0.50      -252.6861   2.0000                                                             
     2  1  1.50      -191.6157   6.0000                                                             
     3  0  0.50       -20.6916   2.0000                                                             
     3  1  0.50        -8.5949   5.0000                                                             
     3  2  1.50        -9.5241   0.0000                                                             
     4  3  2.50        -9.5241   0.0000                                                             
   Description                                                                                      
     l       E           TYP  RCUT    TYP  RCUT                                                     
     0    -20.6915657     23  1.700                                                                 
     0     95.2407820     23  1.800                                                                 
     1     -8.5948577     23  1.900                                                                 
     1     95.2407820     23  1.900                                                                 
     2    -10.8846608     23  1.900                                                                 
     2     54.4233040     23  1.900                                                                 
     3     27.2116520     23  1.900                                                                 
  local pseudopotential read in
  partial core-charges read in
  partial kinetic energy density read in
  kinetic energy density of atom read in
  atomic valenz-charges read in
  non local Contribution for L=           0  read in
    real space projection operators read in
  non local Contribution for L=           0  read in
    real space projection operators read in
  non local Contribution for L=           1  read in
    real space projection operators read in
  non local Contribution for L=           1  read in
    real space projection operators read in
  non local Contribution for L=           2  read in
    real space projection operators read in
  non local Contribution for L=           2  read in
    real space projection operators read in
    PAW grid and wavefunctions read in
 
   number of l-projection  operators is LMAX  =           6
   number of lm-projection operators is LMMAX =          18
 
 Optimization of the real space projectors (new method)

 maximal supplied QI-value         = 25.13
 optimisation between [QCUT,QGAM] = [ 11.56, 23.12] = [ 37.43,149.72] Ry 
 Optimized for a Real-space Cutoff    1.28 Angstroem

   l    n(q)    QCUT    max X(q) W(low)/X(q) W(high)/X(q)  e(spline) 
   0      9    11.561    87.733    0.11E-03    0.32E-04    0.56E-06
   0      9    11.561    82.800    0.11E-03    0.35E-04    0.56E-06
   0      9    11.561     2.509    0.22E-03    0.42E-04    0.79E-06
   1      8    11.561    12.580    0.94E-04    0.26E-03    0.21E-06
   1      8    11.561     1.319    0.33E-04    0.15E-03    0.19E-06
   2      8    11.561     1.993    0.36E-04    0.89E-04    0.26E-06
 Optimization of the real space projectors (new method)

 maximal supplied QI-value         = 18.90
 optimisation between [QCUT,QGAM] = [ 11.53, 23.24] = [ 37.21,151.29] Ry 
 Optimized for a Real-space Cutoff    1.21 Angstroem

   l    n(q)    QCUT    max X(q) W(low)/X(q) W(high)/X(q)  e(spline) 
   0      8    11.527     8.355    0.73E-04    0.70E-04    0.26E-07
   0      8    11.527     1.401    0.17E-03    0.17E-03    0.63E-07
   1      8    11.527     4.747    0.13E-03    0.17E-03    0.11E-06
   1      8    11.527     2.025    0.16E-03    0.18E-03    0.12E-06
   2      7    11.527     3.169    0.51E-04    0.25E-03    0.60E-07
   2      7    11.527     3.441    0.82E-04    0.22E-03    0.14E-06
 Optimization of the real space projectors (new method)

 maximal supplied QI-value         = 19.84
 optimisation between [QCUT,QGAM] = [ 11.51, 23.22] = [ 37.09,150.92] Ry 
 Optimized for a Real-space Cutoff    1.49 Angstroem

   l    n(q)    QCUT    max X(q) W(low)/X(q) W(high)/X(q)  e(spline) 
   0     10    11.508     7.541    0.34E-04    0.13E-04    0.69E-07
   0     10    11.508     1.809    0.49E-04    0.27E-04    0.14E-06
   1     10    11.508     4.107    0.27E-05    0.41E-05    0.14E-06
   1     10    11.508     2.196    0.26E-05    0.25E-05    0.22E-06
   2      9    11.508     4.265    0.18E-03    0.11E-03    0.81E-06
   2      9    11.508     1.925    0.97E-04    0.76E-04    0.47E-06
 Optimization of the real space projectors (new method)

 maximal supplied QI-value         = 19.84
 optimisation between [QCUT,QGAM] = [ 11.51, 23.22] = [ 37.09,150.92] Ry 
 Optimized for a Real-space Cutoff    1.21 Angstroem

   l    n(q)    QCUT    max X(q) W(low)/X(q) W(high)/X(q)  e(spline) 
   0      8    11.508     6.761    0.57E-04    0.57E-04    0.35E-07
   0      8    11.508     1.642    0.14E-03    0.14E-03    0.91E-07
   1      8    11.508     3.519    0.20E-04    0.72E-04    0.47E-07
   1      8    11.508     2.150    0.27E-04    0.11E-03    0.89E-07
   2      7    11.508     2.976    0.19E-03    0.33E-03    0.16E-06
   2      7    11.508     1.494    0.14E-03    0.29E-03    0.14E-06
  PAW_PBE Li_sv_GW 25Mar2010            :
 energy of atom  1       EATOM= -200.9989
 kinetic energy error for atom=    0.0127 (will be added to EATOM!!)
  PAW_PBE P_GW 19Mar2012                :
 energy of atom  2       EATOM= -176.0430
 kinetic energy error for atom=    0.0011 (will be added to EATOM!!)
  PAW_PBE S_GW 19Mar2012                :
 energy of atom  3       EATOM= -276.8230
 kinetic energy error for atom=    0.0024 (will be added to EATOM!!)
  PAW_PBE Cl_GW 19Mar2012               :
 energy of atom  4       EATOM= -409.7259
 kinetic energy error for atom=    0.0030 (will be added to EATOM!!)
 
 
 POSCAR: Li24 P4 S20 Cl4
  positions in direct lattice
  velocities in cartesian coordinates
 exchange correlation table for  LEXCH =        8
   RHO(1)=    0.500       N(1)  =     2000
   RHO(2)=  100.500       N(2)  =     4000

 VTST: version 4.1, (05/19/21)

 CHAIN: initializing optimizer
 
 OPT: Using VASP Conjugate-Gradient optimizer
 CHAIN: Read ICHAIN            0
 
 POSCAR: Li24 P4 S20 Cl4
  positions in direct lattice
  velocities in cartesian coordinates
 


--------------------------------------------------------------------------------------------------------


 ion  position               nearest neighbor table
   1  0.991  0.180  0.206-
   2  0.968  0.680  0.682-
   3  0.047  0.329  0.641-
   4  0.021  0.699  0.288-
   5  0.214  0.227  0.976-
   6  0.182  0.835  0.036-
   7  0.795  0.212  0.010-
   8  0.831  0.802  0.987-
   9  0.309  0.986  0.302-
  10  0.176  0.041  0.776-
  11  0.822  0.980  0.786-
  12  0.693  0.020  0.266-
  13  0.220  0.678  0.476-
  14  0.347  0.200  0.531-
  15  0.690  0.818  0.539-
  16  0.693  0.195  0.472-
  17  0.293  0.497  0.796-
  18  0.317  0.543  0.167-
  19  0.836  0.458  0.330-
  20  0.717  0.521  0.812-
  21  0.484  0.298  0.810-
  22  0.486  0.777  0.292-
  23  0.549  0.334  0.180-
  24  0.529  0.724  0.840-
  25  0.516  0.508  0.503-  41 2.05  42 2.05  43 2.06  44 2.06
  26  0.498  0.005  0.990-  40 2.04  39 2.05  37 2.05  38 2.06
  27  0.003  0.501  1.000-  34 2.05  33 2.05  36 2.06  35 2.06
  28  0.008  0.002  0.492-  29 2.05  31 2.05  32 2.06  30 2.06
  29  0.121  0.871  0.614-  28 2.05
  30  0.140  0.134  0.389-  28 2.06
  31  0.881  0.889  0.366-  28 2.05
  32  0.889  0.132  0.613-  28 2.06
  33  0.863  0.603  0.121-  27 2.05
  34  0.905  0.374  0.861-  27 2.05
  35  0.118  0.641  0.889-  27 2.06
  36  0.125  0.387  0.132-  27 2.06
  37  0.628  0.114  0.864-  26 2.05
  38  0.613  0.862  0.099-  26 2.06
  39  0.394  0.137  0.120-  26 2.05
  40  0.359  0.899  0.871-  26 2.04
  41  0.649  0.623  0.384-  25 2.05
  42  0.630  0.376  0.624-  25 2.05
  43  0.406  0.641  0.626-  25 2.06
  44  0.390  0.396  0.373-  25 2.06
  45  0.756  0.753  0.762-
  46  0.763  0.246  0.243-
  47  0.252  0.759  0.251-
  48  0.257  0.265  0.745-
  49  0.000  0.018  0.987-
  50  0.017  0.529  0.491-
  51  0.521  0.002  0.455-
  52  0.494  0.495  0.973-
 
  LATTYP: Found a simple cubic cell.
 ALAT       =     9.6690831603
  
  Lattice vectors:
  
 A1 = (   9.6690831603,   0.0000000000,   0.0000000000)
 A2 = (   0.0000000000,   9.6690831603,   0.0000000000)
 A3 = (   0.0000000000,   0.0000000000,   9.6690831603)


Analysis of symmetry for initial positions (statically):
=====================================================================
 Subroutine PRICEL returns:
 Original cell was already a primitive cell.
 

 Routine SETGRP: Setting up the symmetry group for a 
 simple cubic supercell.


 Subroutine GETGRP returns: Found  1 space group operations
 (whereof  1 operations were pure point group operations)
 out of a pool of 48 trial point group operations.


The static configuration has the point symmetry C_1 .


Analysis of symmetry for dynamics (positions and initial velocities):
=====================================================================
 Subroutine PRICEL returns:
 Original cell was already a primitive cell.
 

 Routine SETGRP: Setting up the symmetry group for a 
 simple cubic supercell.


 Subroutine GETGRP returns: Found  1 space group operations
 (whereof  1 operations were pure point group operations)
 out of a pool of 48 trial point group operations.


The dynamic configuration has the point symmetry C_1 .


Analysis of structural, dynamic, and magnetic symmetry:
=====================================================================
 Subroutine PRICEL returns:
 Original cell was already a primitive cell.
 

 Routine SETGRP: Setting up the symmetry group for a 
 simple cubic supercell.


 Subroutine GETGRP returns: Found  1 space group operations
 (whereof  1 operations were pure point group operations)
 out of a pool of 48 trial point group operations.


The overall configuration has the point symmetry C_1 .


 Subroutine INISYM returns: Found  1 space group operations
 (whereof  1 operations are pure point group operations),
 and found     1 'primitive' translations


----------------------------------------------------------------------------------------

                                     Primitive cell                                     

  volume of cell :     903.9739

  direct lattice vectors                    reciprocal lattice vectors
     9.669083160  0.000000000  0.000000000     0.103422422  0.000000000  0.000000000
     0.000000000  9.669083160  0.000000000     0.000000000  0.103422422  0.000000000
     0.000000000  0.000000000  9.669083160     0.000000000  0.000000000  0.103422422

  length of vectors
     9.669083160  9.669083160  9.669083160     0.103422422  0.103422422  0.103422422

  position of ions in fractional coordinates (direct lattice)
     0.990509547  0.180056983  0.205532136
     0.968230872  0.680384510  0.682198786
     0.047178709  0.329101616  0.641315152
     0.020879087  0.698579921  0.288481545
     0.214123700  0.226766661  0.975696318
     0.182498271  0.835008386  0.035932630
     0.795045797  0.212290023  0.009717461
     0.831395656  0.802130244  0.987360539
     0.309338969  0.985999364  0.302497607
     0.176331667  0.041034434  0.776291826
     0.822060525  0.980145291  0.785697713
     0.693309862  0.020160395  0.266284563
     0.219576766  0.677939237  0.476031729
     0.346971980  0.199563226  0.530728378
     0.689852181  0.817685611  0.539147504
     0.693221046  0.195256191  0.471619513
     0.292572390  0.497146825  0.796222373
     0.316794994  0.543185980  0.166552744
     0.836333640  0.458149333  0.329880223
     0.716952478  0.520876796  0.811719656
     0.483504978  0.298436987  0.809857987
     0.485730309  0.776948954  0.291671851
     0.548881511  0.333891428  0.180051755
     0.528654061  0.724195461  0.840077422
     0.516125989  0.508236942  0.502501451
     0.497795930  0.004805729  0.990342372
     0.003076814  0.500757885  0.999898289
     0.007671884  0.002471625  0.492166665
     0.120997527  0.871451156  0.613581438
     0.139685400  0.134188171  0.389019723
     0.881482299  0.888627582  0.365508574
     0.889062555  0.131582992  0.612765713
     0.862539866  0.603162931  0.121318747
     0.904700031  0.374213693  0.861079465
     0.117836126  0.641383824  0.888886612
     0.124814454  0.386837882  0.132008435
     0.628282717  0.114397004  0.863564493
     0.613301564  0.862234003  0.099073210
     0.394215595  0.137094393  0.120132900
     0.359185051  0.898815653  0.871208927
     0.648828919  0.622924336  0.383599109
     0.629944923  0.376248603  0.623839277
     0.405518505  0.641153190  0.626195395
     0.390061976  0.395958597  0.373120890
     0.755972768  0.753072174  0.762096121
     0.762554072  0.245903931  0.243306067
     0.252191574  0.758773850  0.251286887
     0.257002418  0.264868457  0.745276757
     0.000178747  0.017522525  0.987170590
     0.016907805  0.528755557  0.491089743
     0.520868823  0.001534117  0.455060094
     0.494028566  0.494937239  0.972757832

  ion indices of the primitive-cell ions
   primitive index   ion index
                 1           1
                 2           2
                 3           3
                 4           4
                 5           5
                 6           6
                 7           7
                 8           8
                 9           9
                10          10
                11          11
                12          12
                13          13
                14          14
                15          15
                16          16
                17          17
                18          18
                19          19
                20          20
                21          21
                22          22
                23          23
                24          24
                25          25
                26          26
                27          27
                28          28
                29          29
                30          30
                31          31
                32          32
                33          33
                34          34
                35          35
                36          36
                37          37
                38          38
                39          39
                40          40
                41          41
                42          42
                43          43
                44          44
                45          45
                46          46
                47          47
                48          48
                49          49
                50          50
                51          51
                52          52

----------------------------------------------------------------------------------------

 
 
 KPOINTS: Automatic mesh                          

Automatic generation of k-mesh.
 Grid dimensions read from file:
 generate k-points for:    2    2    2

 Generating k-lattice:

  Cartesian coordinates                     Fractional coordinates (reciprocal lattice)
     0.051711211  0.000000000  0.000000000     0.500000000  0.000000000  0.000000000
     0.000000000  0.051711211  0.000000000     0.000000000  0.500000000  0.000000000
     0.000000000  0.000000000  0.051711211     0.000000000  0.000000000  0.500000000

  Length of vectors
     0.051711211  0.051711211  0.051711211

  Shift w.r.t. Gamma in fractional coordinates (k-lattice)
     0.500000000  0.500000000  0.500000000

 
 Subroutine IBZKPT returns following result:
 ===========================================
 
 Found      4 irreducible k-points:
 
 Following reciprocal coordinates:
            Coordinates               Weight
  0.250000  0.250000  0.250000      2.000000
 -0.250000  0.250000  0.250000      2.000000
 -0.250000 -0.250000  0.250000      2.000000
  0.250000 -0.250000  0.250000      2.000000
 
 Following cartesian coordinates:
            Coordinates               Weight
  0.025856  0.025856  0.025856      2.000000
 -0.025856  0.025856  0.025856      2.000000
 -0.025856 -0.025856  0.025856      2.000000
  0.025856 -0.025856  0.025856      2.000000
 


--------------------------------------------------------------------------------------------------------




 Dimension of arrays:
   k-points           NKPTS =      4   k-points in BZ     NKDIM =      4   number of bands    NBANDS=    176
   number of dos      NEDOS =    301   number of ions     NIONS =     52
   non local maximal  LDIM  =      6   non local SUM 2l+1 LMDIM =     18
   total plane-waves  NPLWV = 373248
   max r-space proj   IRMAX =   5761   max aug-charges    IRDMAX=  17624
   dimension x,y,z NGX =    72 NGY =   72 NGZ =   72
   dimension x,y,z NGXF=   144 NGYF=  144 NGZF=  144
   support grid    NGXF=   144 NGYF=  144 NGZF=  144
   ions per type =              24   4  20   4
   NGX,Y,Z   is equivalent  to a cutoff of  12.38, 12.38, 12.38 a.u.
   NGXF,Y,Z  is equivalent  to a cutoff of  24.76, 24.76, 24.76 a.u.

 SYSTEM =  unknown system                          
 POSCAR =  Li24 P4 S20 Cl4                         

 Startparameter for this run:
   NWRITE =      2    write-flag & timer
   PREC   = accu      normal or accurate (medium, high low for compatibility)
   ISTART =      0    job   : 0-new  1-cont  2-samecut
   ICHARG =      2    charge: 1-file 2-atom 10-const
   ISPIN  =      2    spin polarized calculation?
   LNONCOLLINEAR =      F non collinear calculations
   LSORBIT =      F    spin-orbit coupling
   INIWAV =      1    electr: 0-lowe 1-rand  2-diag
   LASPH  =      T    aspherical Exc in radial PAW
 Electronic Relaxation 1
   ENCUT  =  520.0 eV  38.22 Ry    6.18 a.u.  17.98 17.98 17.98*2*pi/ulx,y,z
   ENINI  =  520.0     initial cutoff
   ENAUG  = 1041.7 eV  augmentation charge cutoff
   NELM   =    100;   NELMIN=  2; NELMDL=-10     # of ELM steps 
   EDIFF  = 0.1E-05   stopping-criterion for ELM
   LREAL  =      T    real-space projection
   NLSPLINE    = F    spline interpolate recip. space projectors
   LCOMPAT=      F    compatible to vasp.4.4
   GGA_COMPAT  = T    GGA compatible to vasp.4.4-vasp.4.6
   LMAXPAW     = -100 max onsite density
   LMAXMIX     =    4 max onsite mixed and CHGCAR
   VOSKOWN=      0    Vosko Wilk Nusair interpolation
   ROPT   =   -0.00025  -0.00025  -0.00025  -0.00025
 Ionic relaxation
   EDIFFG = -.1E-02   stopping-criterion for IOM
   NSW    =   1000    number of steps for IOM
   NBLOCK =      1;   KBLOCK =   1000    inner block; outer block 
   IBRION =      2    ionic relax: 0-MD 1-quasi-New 2-CG
   NFREE  =      1    steps in history (QN), initial steepest desc. (CG)
   ISIF   =      2    stress and relaxation
   IWAVPR =     11    prediction:  0-non 1-charg 2-wave 3-comb
   ISYM   =      2    0-nonsym 1-usesym 2-fastsym
   LCORR  =      T    Harris-Foulkes like correction to forces

   POTIM  = 0.2000    time-step for ionic-motion
   TEIN   =    0.0    initial temperature
   TEBEG  =    0.0;   TEEND  =   0.0 temperature during run
   SMASS  =  -3.00    Nose mass-parameter (am)
   estimated Nose-frequenzy (Omega)   =  0.10E-29 period in steps = 0.31E+47 mass=  -0.214E-26a.u.
   SCALEE = 1.0000    scale energy and forces
   NPACO  =    256;   APACO  = 10.0  distance and # of slots for P.C.
   PSTRESS=    0.0 pullay stress

  Mass of Ions in am
   POMASS =   7.01 30.97 32.07 35.45
  Ionic Valenz
   ZVAL   =   3.00  5.00  6.00  7.00
  Atomic Wigner-Seitz radii
   RWIGS  =  -1.00 -1.00 -1.00 -1.00
  virtual crystal weights 
   VCA    =   1.00  1.00  1.00  1.00
   NELECT =     240.0000    total number of electrons
   NUPDOWN=      -1.0000    fix difference up-down

 DOS related values:
   EMIN   =  10.00;   EMAX   =-10.00  energy-range for DOS
   EFERMI =   0.00;   METHOD = LEGACY      
   ISMEAR =     0;   SIGMA  =   0.03  broadening in eV -4-tet -1-fermi 0-gaus

 Electronic relaxation 2 (details)
   IALGO  =     68    algorithm
   LDIAG  =      T    sub-space diagonalisation (order eigenvalues)
   LSUBROT=      F    optimize rotation matrix (better conditioning)
   TURBO    =      0    0=normal 1=particle mesh
   IRESTART =      0    0=no restart 2=restart with 2 vectors
   NREBOOT  =      0    no. of reboots
   NMIN     =      0    reboot dimension
   EREF     =   0.00    reference energy to select bands
   IMIX   =      4    mixing-type and parameters
     AMIX     =   0.40;   BMIX     =  1.00
     AMIX_MAG =   1.60;   BMIX_MAG =  1.00
     AMIN     =   0.10
     WC   =   100.;   INIMIX=   1;  MIXPRE=   1;  MAXMIX= -45

 Intra band minimization:
   WEIMIN = 0.0010     energy-eigenvalue tresh-hold
   EBREAK =  0.14E-08  absolut break condition
   DEPER  =   0.30     relativ break condition  

   TIME   =   0.40     timestep for ELM

  volume/ion in A,a.u.               =      17.38       117.31
  Fermi-wavevector in a.u.,A,eV,Ry     =   1.052188  1.988347 15.063000  1.107099
  Thomas-Fermi vector in A             =   2.187261
 
 Write flags
   LWAVE        =      F    write WAVECAR
   LDOWNSAMPLE  =      F    k-point downsampling of WAVECAR
   LCHARG       =      F    write CHGCAR
   LVTOT        =      F    write LOCPOT, total local potential
   LVHAR        =      F    write LOCPOT, Hartree potential only
   LELF         =      F    write electronic localiz. function (ELF)
   LORBIT       =      0    0 simple, 1 ext, 2 COOP (PROOUT), +10 PAW based schemes


 Dipole corrections
   LMONO  =      F    monopole corrections only (constant potential shift)
   LDIPOL =      F    correct potential (dipole corrections)
   IDIPOL =      0    1-x, 2-y, 3-z, 4-all directions 
   EPSILON=  1.0000000 bulk dielectric constant

 Exchange correlation treatment:
   GGA     =    PE    GGA type
   LEXCH   =     8    internal setting for exchange type
   LIBXC   =     F    Libxc                    
   VOSKOWN =     0    Vosko Wilk Nusair interpolation
   LHFCALC =     F    Hartree Fock is set to
   LHFONE  =     F    Hartree Fock one center treatment
   AEXX    =    0.0000 exact exchange contribution

 Linear response parameters
   LEPSILON=     F    determine dielectric tensor
   LRPA    =     F    only Hartree local field effects (RPA)
   LNABLA  =     F    use nabla operator in PAW spheres
   LVEL    =     F    velocity operator in full k-point grid
   CSHIFT  =0.1000    complex shift for real part using Kramers Kronig
   OMEGAMAX=  -1.0    maximum frequency
   DEG_THRESHOLD= 0.2000000E-02 threshold for treating states as degnerate
   RTIME   =   -0.100 relaxation time in fs
  (WPLASMAI=    0.000 imaginary part of plasma frequency in eV, 0.658/RTIME)
   DFIELD  = 0.0000000 0.0000000 0.0000000 field for delta impulse in time
 
  Optional k-point grid parameters
   LKPOINTS_OPT  =     F    use optional k-point grid
   KPOINTS_OPT_MODE=     1    mode for optional k-point grid
 
 Orbital magnetization related:
   ORBITALMAG=     F  switch on orbital magnetization
   LCHIMAG   =     F  perturbation theory with respect to B field
   DQ        =  0.001000  dq finite difference perturbation B field
   LLRAUG    =     F  two centre corrections for induced B field
   LBONE     =     F  B-component reconstruction in AE one-centre
   LVGVCALC  =     T  calculate vGv susceptibility
   LVGVAPPL  =     F  apply vGv susceptibility instead of pGv for G=0

 Random number generation:
   RANDOM_GENERATOR = DEFAULT
   PCG_SEED         = not used


--------------------------------------------------------------------------------------------------------


 conjugate gradient relaxation of ions
 charge density and potential will be updated during run
 spin polarized calculation
 RMM-DIIS sequential band-by-band and
  variant of blocked Davidson during initial phase
 perform sub-space diagonalisation
    before iterative eigenvector-optimisation
 modified Broyden-mixing scheme, WC =      100.0
 initial mixing is a Kerker type mixing with AMIX =  0.4000 and BMIX =      1.0000
 Hartree-type preconditioning will be used
 using additional bands           56
 real space projection scheme for non local part
 use partial core corrections
 calculate Harris-corrections to forces 
   (improved forces if not selfconsistent)
 use gradient corrections 
 use of overlap-Matrix (Vanderbilt PP)
 Gauss-broadening in eV      SIGMA  =   0.03


--------------------------------------------------------------------------------------------------------


  energy-cutoff  :      520.00
  volume of cell :      903.97
      direct lattice vectors                 reciprocal lattice vectors
     9.669083160  0.000000000  0.000000000     0.103422422  0.000000000  0.000000000
     0.000000000  9.669083160  0.000000000     0.000000000  0.103422422  0.000000000
     0.000000000  0.000000000  9.669083160     0.000000000  0.000000000  0.103422422

  length of vectors
     9.669083160  9.669083160  9.669083160     0.103422422  0.103422422  0.103422422


 
 k-points in units of 2pi/SCALE and weight: Automatic mesh                          
   0.02585561  0.02585561  0.02585561       0.250
  -0.02585561  0.02585561  0.02585561       0.250
  -0.02585561 -0.02585561  0.02585561       0.250
   0.02585561 -0.02585561  0.02585561       0.250
 
 k-points in reciprocal lattice and weights: Automatic mesh                          
   0.25000000  0.25000000  0.25000000       0.250
  -0.25000000  0.25000000  0.25000000       0.250
  -0.25000000 -0.25000000  0.25000000       0.250
   0.25000000 -0.25000000  0.25000000       0.250
 
 position of ions in fractional coordinates (direct lattice) 
   0.99050955  0.18005698  0.20553214
   0.96823087  0.68038451  0.68219879
   0.04717871  0.32910162  0.64131515
   0.02087909  0.69857992  0.28848154
   0.21412370  0.22676666  0.97569632
   0.18249827  0.83500839  0.03593263
   0.79504580  0.21229002  0.00971746
   0.83139566  0.80213024  0.98736054
   0.30933897  0.98599936  0.30249761
   0.17633167  0.04103443  0.77629183
   0.82206052  0.98014529  0.78569771
   0.69330986  0.02016040  0.26628456
   0.21957677  0.67793924  0.47603173
   0.34697198  0.19956323  0.53072838
   0.68985218  0.81768561  0.53914750
   0.69322105  0.19525619  0.47161951
   0.29257239  0.49714682  0.79622237
   0.31679499  0.54318598  0.16655274
   0.83633364  0.45814933  0.32988022
   0.71695248  0.52087680  0.81171966
   0.48350498  0.29843699  0.80985799
   0.48573031  0.77694895  0.29167185
   0.54888151  0.33389143  0.18005176
   0.52865406  0.72419546  0.84007742
   0.51612599  0.50823694  0.50250145
   0.49779593  0.00480573  0.99034237
   0.00307681  0.50075788  0.99989829
   0.00767188  0.00247162  0.49216666
   0.12099753  0.87145116  0.61358144
   0.13968540  0.13418817  0.38901972
   0.88148230  0.88862758  0.36550857
   0.88906255  0.13158299  0.61276571
   0.86253987  0.60316293  0.12131875
   0.90470003  0.37421369  0.86107946
   0.11783613  0.64138382  0.88888661
   0.12481445  0.38683788  0.13200844
   0.62828272  0.11439700  0.86356449
   0.61330156  0.86223400  0.09907321
   0.39421560  0.13709439  0.12013290
   0.35918505  0.89881565  0.87120893
   0.64882892  0.62292434  0.38359911
   0.62994492  0.37624860  0.62383928
   0.40551850  0.64115319  0.62619540
   0.39006198  0.39595860  0.37312089
   0.75597277  0.75307217  0.76209612
   0.76255407  0.24590393  0.24330607
   0.25219157  0.75877385  0.25128689
   0.25700242  0.26486846  0.74527676
   0.00017875  0.01752252  0.98717059
   0.01690781  0.52875556  0.49108974
   0.52086882  0.00153412  0.45506009
   0.49402857  0.49493724  0.97275783
 
 position of ions in cartesian coordinates  (Angst):
   9.57731918  1.74098595  1.98730731
   9.36190482  6.57869441  6.59623679
   0.45617486  3.18211090  6.20092953
   0.20188163  6.75462735  2.78935205
   2.07037986  2.19262570  9.43408884
   1.76459096  8.07376553  0.34743558
   7.68736393  2.05264989  0.09395894
   8.03883374  7.75586403  9.54687116
   2.99102422  9.53370985  2.92487452
   1.70496556  0.39676535  7.50603022
   7.94857158  9.47710633  7.59697653
   6.70367071  0.19493254  2.57472758
   2.12310601  6.55505086  4.60279037
   3.35490093  1.92959343  5.13165682
   6.67023811  7.90627017  5.21306205
   6.70281194  1.88794835  4.56012829
   2.82890677  4.80695399  7.69874034
   3.06311714  5.25211041  1.61041233
   8.08657952  4.42988400  3.18963931
   6.93227313  5.03640105  7.84858486
   4.67504985  2.88561204  7.83058422
   4.69656675  7.51238404  2.82019938
   5.30718098  3.22842398  1.74093539
   5.11160007  7.00230614  8.12277845
   4.99046511  4.91418525  4.85872832
   4.81323025  0.04646699  9.57570275
   0.02974997  4.84186963  9.66809970
   0.07418008  0.02389835  4.75880041
   1.16993515  8.42613369  5.93276995
   1.35062975  1.29747658  3.76146405
   8.52312566  8.59221399  3.53413280
   8.59641978  1.27228689  5.92488263
   8.33996969  5.83203254  1.17304105
   8.74761983  3.61830331  8.32584895
   1.13936730  6.20159353  8.59471857
   1.20684134  3.74036765  1.27640054
   6.07491784  1.10611415  8.34987690
   5.93006382  8.33701227  0.95794711
   3.81170337  1.32557709  1.16157500
   3.47299012  8.69072329  8.42379156
   6.27358077  6.02310721  3.70905169
   6.09098985  3.63797903  6.03195385
   3.92099215  6.19936351  6.05473535
   3.77154169  3.82855660  3.60773692
   7.30956356  7.28151747  7.36877077
   7.37319873  2.37766556  2.35254660
   2.43846130  7.33664745  2.42971380
   2.48497775  2.56103513  7.20614294
   0.00172832  0.16942675  9.54503453
   0.16348297  5.11258145  4.74838757
   5.03632396  0.01483351  4.40001389
   4.77680329  4.78558932  9.40567637
 


--------------------------------------------------------------------------------------------------------


 k-point   1 :   0.2500 0.2500 0.2500  plane waves:   24387
 k-point   2 :  -0.2500 0.2500 0.2500  plane waves:   24387
 k-point   3 :  -0.2500-0.2500 0.2500  plane waves:   24387
 k-point   4 :   0.2500-0.2500 0.2500  plane waves:   24387

 maximum and minimum number of plane-waves per node :       779      742

 maximum number of plane-waves:     24387
 maximum index in each direction: 
   IXMAX=   18   IYMAX=   18   IZMAX=   17
   IXMIN=  -18   IYMIN=  -18   IZMIN=  -18


 real space projection operators:
  total allocation   :      28261.73 KBytes
  max/ min on nodes  :       1193.78        754.12


 parallel 3D FFT for wavefunctions:
    minimum data exchange during FFTs selected (reduces bandwidth)
 parallel 3D FFT for charge:
    minimum data exchange during FFTs selected (reduces bandwidth)


 total amount of memory used by VASP MPI-rank0    48105. kBytes
=======================================================================

   base      :      30000. kBytes
   nonlr-proj:       6513. kBytes
   fftplans  :       1747. kBytes
   grid      :       5278. kBytes
   one-center:         62. kBytes
   wavefun   :       4505. kBytes
 
     INWAV:  cpu time      0.0001: real time      0.0001
 Broyden mixing: mesh for mixing (old mesh)
   NGX = 35   NGY = 35   NGZ = 35
  (NGX  =144   NGY  =144   NGZ  =144)
  gives a total of  42875 points

 initial charge density was supplied:
 charge density of overlapping atoms calculated
 number of electron     240.0000000 magnetization      52.0000000
 keeping initial charge density in first step


--------------------------------------------------------------------------------------------------------


 Maximum index for non-local projection operator          607
 Maximum index for augmentation-charges          881 (set IRDMAX)


--------------------------------------------------------------------------------------------------------


 First call to EWALD:  gamma=   0.183
 Maximum number of real-space cells 3x 3x 3
 Maximum number of reciprocal cells 3x 3x 3

    FEWALD:  cpu time      0.0032: real time      0.0035


--------------------------------------- Ionic step        1  -------------------------------------------




--------------------------------------- Iteration      1(   1)  ---------------------------------------


    POTLOK:  cpu time      0.0537: real time      0.0666
    SETDIJ:  cpu time      0.4023: real time      0.4145
     EDDAV:  cpu time      2.2211: real time      2.2490
       DOS:  cpu time      0.0029: real time      0.0043
    --------------------------------------------
      LOOP:  cpu time      2.6799: real time      2.7344

 eigenvalue-minimisations  :  3104
 total energy-change (2. order) : 0.1588551E+04  (-0.1138529E+05)
 number of electron     240.0000000 magnetization      52.0000000
 augmentation part      240.0000000 magnetization      52.0000000

 Free energy of the ion-electron system (eV)
  ---------------------------------------------------
  alpha Z        PSCENC =       300.29352271
  Ewald energy   TEWEN  =     -8800.24507726
  -Hartree energ DENC   =     -2119.95519903
  -exchange      EXHF   =         0.00000000
  -V(xc)+E(xc)   XCENC  =       534.13752848
  PAW double counting   =      8141.38806575    -8271.61346273
  entropy T*S    EENTRO =        -0.00913405
  eigenvalues    EBANDS =      -898.58532645
  atomic energy  EATOM  =     12703.13999606
  Solvation  Ediel_sol  =         0.00000000
  ---------------------------------------------------
  free energy    TOTEN  =      1588.55091349 eV

  energy without entropy =     1588.56004754  energy(sigma->0) =     1588.55548051


--------------------------------------------------------------------------------------------------------




--------------------------------------- Iteration      1(   2)  ---------------------------------------


     EDDAV:  cpu time      2.6390: real time      2.6616
       DOS:  cpu time      0.0006: real time      0.0006
    --------------------------------------------
      LOOP:  cpu time      2.6395: real time      2.6621

 eigenvalue-minimisations  :  3840
 total energy-change (2. order) :-0.1644711E+04  (-0.1544633E+04)
 number of electron     240.0000000 magnetization      52.0000000
 augmentation part      240.0000000 magnetization      52.0000000

 Free energy of the ion-electron system (eV)
  ---------------------------------------------------
  alpha Z        PSCENC =       300.29352271
  Ewald energy   TEWEN  =     -8800.24507726
  -Hartree energ DENC   =     -2119.95519903
  -exchange      EXHF   =         0.00000000
  -V(xc)+E(xc)   XCENC  =       534.13752848
  PAW double counting   =      8141.38806575    -8271.61346273
  entropy T*S    EENTRO =        -0.00000000
  eigenvalues    EBANDS =     -2543.30506925
  atomic energy  EATOM  =     12703.13999606
  Solvation  Ediel_sol  =         0.00000000
  ---------------------------------------------------
  free energy    TOTEN  =       -56.15969527 eV

  energy without entropy =      -56.15969527  energy(sigma->0) =      -56.15969527


--------------------------------------------------------------------------------------------------------




--------------------------------------- Iteration      1(   3)  ---------------------------------------


     EDDAV:  cpu time      2.6617: real time      2.6835
       DOS:  cpu time      0.0008: real time      0.0008
    --------------------------------------------
      LOOP:  cpu time      2.6625: real time      2.6843

 eigenvalue-minimisations  :  3768
 total energy-change (2. order) :-0.1718382E+03  (-0.1697159E+03)
 number of electron     240.0000000 magnetization      52.0000000
 augmentation part      240.0000000 magnetization      52.0000000

 Free energy of the ion-electron system (eV)
  ---------------------------------------------------
  alpha Z        PSCENC =       300.29352271
  Ewald energy   TEWEN  =     -8800.24507726
  -Hartree energ DENC   =     -2119.95519903
  -exchange      EXHF   =         0.00000000
  -V(xc)+E(xc)   XCENC  =       534.13752848
  PAW double counting   =      8141.38806575    -8271.61346273
  entropy T*S    EENTRO =        -0.00000000
  eigenvalues    EBANDS =     -2715.14327805
  atomic energy  EATOM  =     12703.13999606
  Solvation  Ediel_sol  =         0.00000000
  ---------------------------------------------------
  free energy    TOTEN  =      -227.99790406 eV

  energy without entropy =     -227.99790406  energy(sigma->0) =     -227.99790406


--------------------------------------------------------------------------------------------------------




--------------------------------------- Iteration      1(   4)  ---------------------------------------


     EDDAV:  cpu time      3.4600: real time      3.4977
       DOS:  cpu time      0.0008: real time      0.0008
    --------------------------------------------
      LOOP:  cpu time      3.4607: real time      3.4984

 eigenvalue-minimisations  :  4760
 total energy-change (2. order) :-0.1378771E+02  (-0.1376242E+02)
 number of electron     240.0000000 magnetization      52.0000000
 augmentation part      240.0000000 magnetization      52.0000000

 Free energy of the ion-electron system (eV)
  ---------------------------------------------------
  alpha Z        PSCENC =       300.29352271
  Ewald energy   TEWEN  =     -8800.24507726
  -Hartree energ DENC   =     -2119.95519903
  -exchange      EXHF   =         0.00000000
  -V(xc)+E(xc)   XCENC  =       534.13752848
  PAW double counting   =      8141.38806575    -8271.61346273
  entropy T*S    EENTRO =        -0.00000000
  eigenvalues    EBANDS =     -2728.93098862
  atomic energy  EATOM  =     12703.13999606
  Solvation  Ediel_sol  =         0.00000000
  ---------------------------------------------------
  free energy    TOTEN  =      -241.78561464 eV

  energy without entropy =     -241.78561464  energy(sigma->0) =     -241.78561464


--------------------------------------------------------------------------------------------------------




--------------------------------------- Iteration      1(   5)  ---------------------------------------


     EDDAV:  cpu time      2.9204: real time      2.9449
       DOS:  cpu time      0.0006: real time      0.0006
    --------------------------------------------
      LOOP:  cpu time      2.9210: real time      2.9455

 eigenvalue-minimisations  :  4416
 total energy-change (2. order) :-0.2225955E+00  (-0.2224953E+00)
 number of electron     240.0000000 magnetization      52.0000000
 augmentation part      240.0000000 magnetization      52.0000000

 Free energy of the ion-electron system (eV)
  ---------------------------------------------------
  alpha Z        PSCENC =       300.29352271
  Ewald energy   TEWEN  =     -8800.24507726
  -Hartree energ DENC   =     -2119.95519903
  -exchange      EXHF   =         0.00000000
  -V(xc)+E(xc)   XCENC  =       534.13752848
  PAW double counting   =      8141.38806575    -8271.61346273
  entropy T*S    EENTRO =        -0.00000000
  eigenvalues    EBANDS =     -2729.15358413
  atomic energy  EATOM  =     12703.13999606
  Solvation  Ediel_sol  =         0.00000000
  ---------------------------------------------------
  free energy    TOTEN  =      -242.00821014 eV

  energy without entropy =     -242.00821014  energy(sigma->0) =     -242.00821014


--------------------------------------------------------------------------------------------------------




--------------------------------------- Iteration      1(   6)  ---------------------------------------


     EDDAV:  cpu time      3.0530: real time      3.0767
       DOS:  cpu time      0.0008: real time      0.0008
    --------------------------------------------
      LOOP:  cpu time      3.0538: real time      3.0775

 eigenvalue-minimisations  :  4656
 total energy-change (2. order) :-0.1212623E-01  (-0.1212509E-01)
 number of electron     240.0000000 magnetization      52.0000000
 augmentation part      240.0000000 magnetization      52.0000000

 Free energy of the ion-electron system (eV)
  ---------------------------------------------------
  alpha Z        PSCENC =       300.29352271
  Ewald energy   TEWEN  =     -8800.24507726
  -Hartree energ DENC   =     -2119.95519903
  -exchange      EXHF   =         0.00000000
  -V(xc)+E(xc)   XCENC  =       534.13752848
  PAW double counting   =      8141.38806575    -8271.61346273
  entropy T*S    EENTRO =        -0.00000000
  eigenvalues    EBANDS =     -2729.16571036
  atomic energy  EATOM  =     12703.13999606
  Solvation  Ediel_sol  =         0.00000000
  ---------------------------------------------------
  free energy    TOTEN  =      -242.02033637 eV

  energy without entropy =     -242.02033637  energy(sigma->0) =     -242.02033637


--------------------------------------------------------------------------------------------------------




--------------------------------------- Iteration      1(   7)  ---------------------------------------


     EDDAV:  cpu time      3.0986: real time      3.1324
       DOS:  cpu time      0.0007: real time      0.0006
    --------------------------------------------
      LOOP:  cpu time      3.0993: real time      3.1330

 eigenvalue-minimisations  :  4552
 total energy-change (2. order) :-0.3844906E-03  (-0.3844697E-03)
 number of electron     240.0000000 magnetization      52.0000000
 augmentation part      240.0000000 magnetization      52.0000000

 Free energy of the ion-electron system (eV)
  ---------------------------------------------------
  alpha Z        PSCENC =       300.29352271
  Ewald energy   TEWEN  =     -8800.24507726
  -Hartree energ DENC   =     -2119.95519903
  -exchange      EXHF   =         0.00000000
  -V(xc)+E(xc)   XCENC  =       534.13752848
  PAW double counting   =      8141.38806575    -8271.61346273
  entropy T*S    EENTRO =        -0.00000000
  eigenvalues    EBANDS =     -2729.16609485
  atomic energy  EATOM  =     12703.13999606
  Solvation  Ediel_sol  =         0.00000000
  ---------------------------------------------------
  free energy    TOTEN  =      -242.02072086 eV

  energy without entropy =     -242.02072086  energy(sigma->0) =     -242.02072086


--------------------------------------------------------------------------------------------------------




--------------------------------------- Iteration      1(   8)  ---------------------------------------


     EDDAV:  cpu time      3.0135: real time      3.0388
       DOS:  cpu time      0.0006: real time      0.0006
    --------------------------------------------
      LOOP:  cpu time      3.0141: real time      3.0395

 eigenvalue-minimisations  :  4568
 total energy-change (2. order) :-0.2231647E-04  (-0.2231584E-04)
 number of electron     240.0000000 magnetization      52.0000000
 augmentation part      240.0000000 magnetization      52.0000000

 Free energy of the ion-electron system (eV)
  ---------------------------------------------------
  alpha Z        PSCENC =       300.29352271
  Ewald energy   TEWEN  =     -8800.24507726
  -Hartree energ DENC   =     -2119.95519903
  -exchange      EXHF   =         0.00000000
  -V(xc)+E(xc)   XCENC  =       534.13752848
  PAW double counting   =      8141.38806575    -8271.61346273
  entropy T*S    EENTRO =        -0.00000000
  eigenvalues    EBANDS =     -2729.16611717
  atomic energy  EATOM  =     12703.13999606
  Solvation  Ediel_sol  =         0.00000000
  ---------------------------------------------------
  free energy    TOTEN  =      -242.02074318 eV

  energy without entropy =     -242.02074318  energy(sigma->0) =     -242.02074318


--------------------------------------------------------------------------------------------------------




--------------------------------------- Iteration      1(   9)  ---------------------------------------


     EDDAV:  cpu time      2.9455: real time      2.9672
       DOS:  cpu time      0.0006: real time      0.0006
    --------------------------------------------
      LOOP:  cpu time      2.9462: real time      2.9678

 eigenvalue-minimisations  :  4464
 total energy-change (2. order) :-0.1440783E-05  (-0.1440683E-05)
 number of electron     240.0000000 magnetization      52.0000000
 augmentation part      240.0000000 magnetization      52.0000000

 Free energy of the ion-electron system (eV)
  ---------------------------------------------------
  alpha Z        PSCENC =       300.29352271
  Ewald energy   TEWEN  =     -8800.24507726
  -Hartree energ DENC   =     -2119.95519903
  -exchange      EXHF   =         0.00000000
  -V(xc)+E(xc)   XCENC  =       534.13752848
  PAW double counting   =      8141.38806575    -8271.61346273
  entropy T*S    EENTRO =        -0.00000000
  eigenvalues    EBANDS =     -2729.16611861
  atomic energy  EATOM  =     12703.13999606
  Solvation  Ediel_sol  =         0.00000000
  ---------------------------------------------------
  free energy    TOTEN  =      -242.02074462 eV

  energy without entropy =     -242.02074462  energy(sigma->0) =     -242.02074462


--------------------------------------------------------------------------------------------------------




--------------------------------------- Iteration      1(  10)  ---------------------------------------


     EDDAV:  cpu time      1.9720: real time      1.9883
       DOS:  cpu time      0.0008: real time      0.0008
    CHARGE:  cpu time      0.0676: real time      0.0742
    MIXING:  cpu time      0.0015: real time      0.0035
    --------------------------------------------
      LOOP:  cpu time      2.0419: real time      2.0668

 eigenvalue-minimisations  :  2640
 total energy-change (2. order) :-0.6162918E-07  (-0.6137542E-07)
 number of electron     240.0000003 magnetization      27.2980781
 augmentation part        1.4944014 magnetization      27.7401023

 Broyden mixing:
  rms(total) = 0.64395E+01    rms(broyden)= 0.64389E+01
  rms(prec ) = 0.66812E+01
  weight for this iteration     100.00

 Free energy of the ion-electron system (eV)
  ---------------------------------------------------
  alpha Z        PSCENC =       300.29352271
  Ewald energy   TEWEN  =     -8800.24507726
  -Hartree energ DENC   =     -2119.95519903
  -exchange      EXHF   =         0.00000000
  -V(xc)+E(xc)   XCENC  =       534.13752848
  PAW double counting   =      8141.38806575    -8271.61346273
  entropy T*S    EENTRO =        -0.00000000
  eigenvalues    EBANDS =     -2729.16611867
  atomic energy  EATOM  =     12703.13999606
  Solvation  Ediel_sol  =         0.00000000
  ---------------------------------------------------
  free energy    TOTEN  =      -242.02074468 eV

  energy without entropy =     -242.02074468  energy(sigma->0) =     -242.02074468


--------------------------------------------------------------------------------------------------------




--------------------------------------- Iteration      1(  11)  ---------------------------------------


    POTLOK:  cpu time      0.0542: real time      0.0551
    SETDIJ:  cpu time      0.3991: real time      0.4021
    EDDIAG:  cpu time      0.3672: real time      0.3702
  RMM-DIIS:  cpu time      1.1656: real time      1.1765
    ORTHCH:  cpu time      0.0675: real time      0.0682
       DOS:  cpu time      0.0005: real time      0.0005
    CHARGE:  cpu time      0.0653: real time      0.0674
    MIXING:  cpu time      0.0010: real time      0.0025
    --------------------------------------------
      LOOP:  cpu time      2.1204: real time      2.1426

 eigenvalue-minimisations  :  2816
 total energy-change (2. order) : 0.6109850E+01  (-0.4736284E+01)
 number of electron     240.0000003 magnetization      16.3481611
 augmentation part        1.7020292 magnetization      16.5342585

 Broyden mixing:
  rms(total) = 0.33131E+01    rms(broyden)= 0.33129E+01
  rms(prec ) = 0.34297E+01
  weight for this iteration     100.00

 eigenvalues of (default mixing * dielectric matrix)
  average eigenvalue GAMMA=   0.7257
  0.7257

 Free energy of the ion-electron system (eV)
  ---------------------------------------------------
  alpha Z        PSCENC =       300.29352271
  Ewald energy   TEWEN  =     -8800.24507726
  -Hartree energ DENC   =     -2168.64850298
  -exchange      EXHF   =         0.00000000
  -V(xc)+E(xc)   XCENC  =       542.47342554
  PAW double counting   =      8930.19732420    -9066.51837137
  entropy T*S    EENTRO =        -0.00000000
  eigenvalues    EBANDS =     -2676.60321155
  atomic energy  EATOM  =     12703.13999606
  Solvation  Ediel_sol  =         0.00000000
  ---------------------------------------------------
  free energy    TOTEN  =      -235.91089464 eV

  energy without entropy =     -235.91089464  energy(sigma->0) =     -235.91089464


--------------------------------------------------------------------------------------------------------




--------------------------------------- Iteration      1(  12)  ---------------------------------------


    POTLOK:  cpu time      0.0532: real time      0.0540
    SETDIJ:  cpu time      0.4040: real time      0.4059
    EDDIAG:  cpu time      0.3562: real time      0.3586
  RMM-DIIS:  cpu time      1.2234: real time      1.2349
    ORTHCH:  cpu time      0.0664: real time      0.0681
       DOS:  cpu time      0.0005: real time      0.0005
    CHARGE:  cpu time      0.0647: real time      0.0663
    MIXING:  cpu time      0.0012: real time      0.0012
    --------------------------------------------
      LOOP:  cpu time      2.1695: real time      2.1896

 eigenvalue-minimisations  :  2956
 total energy-change (2. order) :-0.1998706E+02  (-0.2183346E+01)
 number of electron     240.0000003 magnetization       0.5913309
 augmentation part        1.8052148 magnetization       0.9335699

 Broyden mixing:
  rms(total) = 0.20383E+01    rms(broyden)= 0.20383E+01
  rms(prec ) = 0.20996E+01
  weight for this iteration     100.00

 eigenvalues of (default mixing * dielectric matrix)
  average eigenvalue GAMMA=   1.1512
  1.6320  0.6704

 Free energy of the ion-electron system (eV)
  ---------------------------------------------------
  alpha Z        PSCENC =       300.29352271
  Ewald energy   TEWEN  =     -8800.24507726
  -Hartree energ DENC   =     -2193.44006048
  -exchange      EXHF   =         0.00000000
  -V(xc)+E(xc)   XCENC  =       536.15267293
  PAW double counting   =      9286.16318906    -9426.09680107
  entropy T*S    EENTRO =        -0.00000000
  eigenvalues    EBANDS =     -2661.86539799
  atomic energy  EATOM  =     12703.13999606
  Solvation  Ediel_sol  =         0.00000000
  ---------------------------------------------------
  free energy    TOTEN  =      -255.89795604 eV

  energy without entropy =     -255.89795604  energy(sigma->0) =     -255.89795604


--------------------------------------------------------------------------------------------------------




--------------------------------------- Iteration      1(  13)  ---------------------------------------


    POTLOK:  cpu time      0.0529: real time      0.0537
    SETDIJ:  cpu time      0.4045: real time      0.4060
    EDDIAG:  cpu time      0.3544: real time      0.3571
  RMM-DIIS:  cpu time      1.2020: real time      1.2128
    ORTHCH:  cpu time      0.0664: real time      0.0673
       DOS:  cpu time      0.0006: real time      0.0006
    CHARGE:  cpu time      0.0653: real time      0.0668
    MIXING:  cpu time      0.0011: real time      0.0011
    --------------------------------------------
      LOOP:  cpu time      2.1471: real time      2.1654

 eigenvalue-minimisations  :  2901
 total energy-change (2. order) :-0.2464492E+01  (-0.9025167E+00)
 number of electron     240.0000003 magnetization      -1.8622362
 augmentation part        1.9048860 magnetization      -1.7570043

 Broyden mixing:
  rms(total) = 0.67648E+00    rms(broyden)= 0.67648E+00
  rms(prec ) = 0.70917E+00
  weight for this iteration     100.00

 eigenvalues of (default mixing * dielectric matrix)
  average eigenvalue GAMMA=   1.3039
  2.5107  0.7480  0.6530

 Free energy of the ion-electron system (eV)
  ---------------------------------------------------
  alpha Z        PSCENC =       300.29352271
  Ewald energy   TEWEN  =     -8800.24507726
  -Hartree energ DENC   =     -2221.55585857
  -exchange      EXHF   =         0.00000000
  -V(xc)+E(xc)   XCENC  =       537.67550688
  PAW double counting   =      9786.99041483    -9930.87634737
  entropy T*S    EENTRO =        -0.00000000
  eigenvalues    EBANDS =     -2633.78460504
  atomic energy  EATOM  =     12703.13999606
  Solvation  Ediel_sol  =         0.00000000
  ---------------------------------------------------
  free energy    TOTEN  =      -258.36244776 eV

  energy without entropy =     -258.36244776  energy(sigma->0) =     -258.36244776


--------------------------------------------------------------------------------------------------------




--------------------------------------- Iteration      1(  14)  ---------------------------------------


    POTLOK:  cpu time      0.0518: real time      0.0527
    SETDIJ:  cpu time      0.4043: real time      0.4059
    EDDIAG:  cpu time      0.3558: real time      0.3582
  RMM-DIIS:  cpu time      1.5715: real time      1.5849
    ORTHCH:  cpu time      0.0670: real time      0.0676
       DOS:  cpu time      0.0006: real time      0.0006
    CHARGE:  cpu time      0.0648: real time      0.0661
    MIXING:  cpu time      0.0011: real time      0.0011
    --------------------------------------------
      LOOP:  cpu time      2.5170: real time      2.5371

 eigenvalue-minimisations  :  3773
 total energy-change (2. order) :-0.2028091E+00  (-0.2024827E+00)
 number of electron     240.0000003 magnetization      -0.8545322
 augmentation part        1.8761325 magnetization      -0.8273886

 Broyden mixing:
  rms(total) = 0.32346E+00    rms(broyden)= 0.32346E+00
  rms(prec ) = 0.35882E+00
  weight for this iteration     100.00

 eigenvalues of (default mixing * dielectric matrix)
  average eigenvalue GAMMA=   1.2673
  2.6156  1.1715  0.6900  0.5922

 Free energy of the ion-electron system (eV)
  ---------------------------------------------------
  alpha Z        PSCENC =       300.29352271
  Ewald energy   TEWEN  =     -8800.24507726
  -Hartree energ DENC   =     -2223.36860382
  -exchange      EXHF   =         0.00000000
  -V(xc)+E(xc)   XCENC  =       538.14530587
  PAW double counting   =      9865.74016067   -10010.43876882
  entropy T*S    EENTRO =        -0.00000000
  eigenvalues    EBANDS =     -2631.83179228
  atomic energy  EATOM  =     12703.13999606
  Solvation  Ediel_sol  =         0.00000000
  ---------------------------------------------------
  free energy    TOTEN  =      -258.56525687 eV

  energy without entropy =     -258.56525687  energy(sigma->0) =     -258.56525687


--------------------------------------------------------------------------------------------------------




--------------------------------------- Iteration      1(  15)  ---------------------------------------


    POTLOK:  cpu time      0.0520: real time      0.0529
    SETDIJ:  cpu time      0.4042: real time      0.4059
    EDDIAG:  cpu time      0.3553: real time      0.3578
  RMM-DIIS:  cpu time      1.2695: real time      1.2808
    ORTHCH:  cpu time      0.0673: real time      0.0679
       DOS:  cpu time      0.0005: real time      0.0005
    CHARGE:  cpu time      0.0650: real time      0.0659
    MIXING:  cpu time      0.0011: real time      0.0011
    --------------------------------------------
      LOOP:  cpu time      2.2150: real time      2.2328

 eigenvalue-minimisations  :  3058
 total energy-change (2. order) : 0.2764542E-01  (-0.3311983E-01)
 number of electron     240.0000003 magnetization      -0.2223575
 augmentation part        1.8279658 magnetization      -0.1960613

 Broyden mixing:
  rms(total) = 0.69511E-01    rms(broyden)= 0.69508E-01
  rms(prec ) = 0.82648E-01
  weight for this iteration     100.00

 eigenvalues of (default mixing * dielectric matrix)
  average eigenvalue GAMMA=   1.2706
  2.5349  1.5839  0.9474  0.6851  0.6018

 Free energy of the ion-electron system (eV)
  ---------------------------------------------------
  alpha Z        PSCENC =       300.29352271
  Ewald energy   TEWEN  =     -8800.24507726
  -Hartree energ DENC   =     -2218.95843480
  -exchange      EXHF   =         0.00000000
  -V(xc)+E(xc)   XCENC  =       537.79563087
  PAW double counting   =      9836.44942922    -9980.95521348
  entropy T*S    EENTRO =        -0.00000000
  eigenvalues    EBANDS =     -2636.05746476
  atomic energy  EATOM  =     12703.13999606
  Solvation  Ediel_sol  =         0.00000000
  ---------------------------------------------------
  free energy    TOTEN  =      -258.53761145 eV

  energy without entropy =     -258.53761145  energy(sigma->0) =     -258.53761145


--------------------------------------------------------------------------------------------------------




--------------------------------------- Iteration      1(  16)  ---------------------------------------


    POTLOK:  cpu time      0.0518: real time      0.0526
    SETDIJ:  cpu time      0.4035: real time      0.4047
    EDDIAG:  cpu time      0.3564: real time      0.3584
  RMM-DIIS:  cpu time      1.2837: real time      1.2952
    ORTHCH:  cpu time      0.0676: real time      0.0683
       DOS:  cpu time      0.0005: real time      0.0005
    CHARGE:  cpu time      0.0644: real time      0.0653
    MIXING:  cpu time      0.0012: real time      0.0012
    --------------------------------------------
      LOOP:  cpu time      2.2291: real time      2.2462

 eigenvalue-minimisations  :  3073
 total energy-change (2. order) :-0.1955244E-01  (-0.1063277E-01)
 number of electron     240.0000003 magnetization      -0.1014697
 augmentation part        1.8057419 magnetization      -0.0871848

 Broyden mixing:
  rms(total) = 0.31145E-01    rms(broyden)= 0.31143E-01
  rms(prec ) = 0.37725E-01
  weight for this iteration     100.00

 eigenvalues of (default mixing * dielectric matrix)
  average eigenvalue GAMMA=   1.2501
  2.4433  1.9548  1.0389  0.6206  0.6989  0.7437

 Free energy of the ion-electron system (eV)
  ---------------------------------------------------
  alpha Z        PSCENC =       300.29352271
  Ewald energy   TEWEN  =     -8800.24507726
  -Hartree energ DENC   =     -2218.38612074
  -exchange      EXHF   =         0.00000000
  -V(xc)+E(xc)   XCENC  =       537.71120219
  PAW double counting   =      9824.29996592    -9968.57276869
  entropy T*S    EENTRO =        -0.00000000
  eigenvalues    EBANDS =     -2636.79788408
  atomic energy  EATOM  =     12703.13999606
[...]
  0.005  -0.004  -0.000  -0.001   0.004   0.001  -0.000   0.000   0.000  -0.000  -0.000   0.000   0.000   0.000
 -0.002   0.002   0.000  -0.001   0.001   0.006  -0.000   0.000   0.000   0.000  -0.000   0.000   0.000  -0.000
 -0.010   0.010   0.000   0.002  -0.004   0.006   0.000  -0.000   0.000   0.000  -0.000   0.000  -0.000  -0.000
 -0.007   0.007   0.000  -0.002  -0.002  -0.004  -0.000  -0.000  -0.000  -0.000   0.000   0.000  -0.000  -0.000
 -0.006   0.006   0.000  -0.005   0.003   0.006  -0.000   0.000   0.000   0.000   0.000   0.000   0.000  -0.000
  0.014  -0.013  -0.000  -0.004   0.006   0.006  -0.000   0.000   0.000  -0.000  -0.000   0.000   0.000   0.000
  0.026  -0.026  -0.000  -0.001   0.005  -0.007  -0.000   0.000  -0.000  -0.000  -0.000  -0.000   0.000   0.000
 total augmentation occupancy for first ion, spin component:           2
  0.000  -0.000   0.000  -0.000  -0.000  -0.000  -0.000  -0.000  -0.000  -0.000   0.000  -0.000  -0.000   0.000
 -0.000   0.000  -0.000  -0.000   0.000   0.000   0.000   0.000   0.000   0.000  -0.000   0.000   0.000  -0.000
  0.000  -0.000  -0.000   0.000   0.000  -0.000   0.000   0.000  -0.000  -0.000  -0.000  -0.000  -0.000   0.000
 -0.000  -0.000   0.000  -0.000   0.000   0.000  -0.000  -0.000  -0.000   0.000  -0.000  -0.000  -0.000  -0.000
 -0.000   0.000   0.000   0.000  -0.000   0.000   0.000  -0.000   0.000  -0.000  -0.000   0.000  -0.000  -0.000
 -0.000   0.000  -0.000   0.000   0.000  -0.000   0.000   0.000   0.000   0.000  -0.000   0.000   0.000   0.000
 -0.000   0.000   0.000  -0.000   0.000   0.000  -0.000  -0.000   0.000   0.000  -0.000   0.000   0.000  -0.000
 -0.000   0.000   0.000  -0.000  -0.000   0.000  -0.000  -0.000   0.000   0.000  -0.000   0.000   0.000  -0.000
 -0.000   0.000  -0.000  -0.000   0.000   0.000   0.000   0.000   0.000   0.000  -0.000   0.000   0.000  -0.000
 -0.000   0.000  -0.000   0.000  -0.000   0.000   0.000   0.000   0.000   0.000  -0.000   0.000   0.000  -0.000
  0.000  -0.000  -0.000  -0.000  -0.000  -0.000  -0.000  -0.000  -0.000  -0.000   0.000  -0.000  -0.000  -0.000
 -0.000   0.000  -0.000  -0.000   0.000   0.000   0.000   0.000   0.000   0.000  -0.000   0.000   0.000   0.000
 -0.000   0.000  -0.000  -0.000  -0.000   0.000   0.000   0.000   0.000   0.000  -0.000   0.000   0.000  -0.000
  0.000  -0.000   0.000  -0.000  -0.000   0.000  -0.000  -0.000  -0.000  -0.000  -0.000   0.000  -0.000  -0.000


------------------------ aborting loop because EDIFF is reached ----------------------------------------


    CHARGE:  cpu time      0.0649: real time      0.0656
    FORLOC:  cpu time      0.0038: real time      0.0038
    FORNL :  cpu time      0.4013: real time      0.4039
    STRESS:  cpu time      1.2032: real time      1.2111
    FORCOR:  cpu time      0.0497: real time      0.0500
    FORHAR:  cpu time      0.0086: real time      0.0087
    MIXING:  cpu time      0.0007: real time      0.0007
    OFIELD:  cpu time      0.0000: real time      0.0000

 ---------------------------------------------------------------------------------------------

         DFTD3 V3.0 Rev 1        
 Edisp (eV)  -13.53084

 E6    (eV) :    -8.3394
 E8    (eV) :    -5.1914
 % E8        : 38.37
    FORVDW:  cpu time      0.2943: real time      0.2961

  FORCE on cell =-STRESS in cart. coord.  units (eV):
  Direction    XX          YY          ZZ          XY          YZ          ZX
  --------------------------------------------------------------------------------------
  Alpha Z   300.29352   300.29352   300.29352
  Ewald   -2939.27264 -2885.62427 -2975.43256   -27.79858    15.93606    45.68323
  Hartree   743.75976   762.50869   714.73436    -9.88515     4.68992    19.55320
  E(xc)    -947.80727  -947.65360  -947.78905    -0.04201     0.05357     0.08716
  Local   -1514.72026 -1579.65124 -1448.07093    36.83897   -18.92991   -61.80151
  n-local  1481.92495  1481.36700  1481.17072    -0.63119     0.10035     0.57084
  augment  -357.08689  -356.59943  -356.86053     0.17594     0.09105     0.07162
  Kinetic  3247.48598  3240.23157  3245.48635    -1.29849    -2.17534    -3.13582
  Fock        0.00000     0.00000     0.00000     0.00000     0.00000     0.00000
  vdW       -14.31444   -14.32177   -14.33011     0.01146     0.00140     0.00978
  -------------------------------------------------------------------------------------
  Total       0.26273     0.55048    -0.79823    -2.62905    -0.23290     1.03849
  in kB       0.46565     0.97565    -1.41476    -4.65965    -0.41279     1.84059
  external pressure =        0.01 kB  Pullay stress =        0.00 kB


 VOLUME and BASIS-vectors are now :
 -----------------------------------------------------------------------------
  energy-cutoff  :      520.00
  volume of cell :      903.97
      direct lattice vectors                 reciprocal lattice vectors
     9.669083160  0.000000000  0.000000000     0.103422422  0.000000000  0.000000000
     0.000000000  9.669083160  0.000000000     0.000000000  0.103422422  0.000000000
     0.000000000  0.000000000  9.669083160     0.000000000  0.000000000  0.103422422

  length of vectors
     9.669083160  9.669083160  9.669083160     0.103422422  0.103422422  0.103422422


 FORCES acting on ions
    electron-ion (+dipol)            ewald-force                    non-local-force                 convergence-correction
 -----------------------------------------------------------------------------------------------
   -.716E+01 0.713E+01 0.233E+01   0.632E+01 -.595E+01 -.794E+00   0.838E+00 -.118E+01 -.153E+01   0.116E-04 -.323E-04 -.839E-05
   0.166E+01 0.851E+01 0.383E+01   -.274E+01 -.742E+01 -.312E+01   0.109E+01 -.109E+01 -.716E+00   0.923E-05 0.250E-04 -.200E-04
   0.154E+01 -.894E+01 0.132E+02   -.579E+00 0.806E+01 -.121E+02   -.960E+00 0.885E+00 -.111E+01   0.481E-04 0.206E-04 0.634E-05
   0.171E+01 -.736E+00 0.378E+01   -.120E+01 0.171E+01 -.448E+01   -.508E+00 -.986E+00 0.704E+00   -.629E-04 0.297E-04 -.111E-04
   0.529E+01 0.814E+01 -.429E+01   -.422E+01 -.669E+01 0.360E+01   -.107E+01 -.145E+01 0.685E+00   0.127E-05 -.148E-03 -.225E-04
   0.764E+01 -.606E+01 -.564E+01   -.627E+01 0.478E+01 0.627E+01   -.137E+01 0.128E+01 -.633E+00   0.125E-04 -.141E-04 0.924E-05
   0.354E+00 -.181E+01 0.113E+01   -.135E+01 0.256E+01 -.555E+00   0.997E+00 -.752E+00 -.570E+00   0.207E-04 -.121E-04 0.752E-04
   -.110E+02 -.917E+01 -.111E+02   0.944E+01 0.745E+01 0.101E+02   0.153E+01 0.172E+01 0.982E+00   -.205E-04 -.594E-04 0.439E-04
   0.351E+01 -.167E+01 -.524E+01   -.482E+01 0.114E+01 0.464E+01   0.131E+01 0.525E+00 0.598E+00   0.215E-04 -.473E-04 -.236E-04
   -.356E+00 0.742E+00 0.117E+01   0.175E+01 -.311E+00 -.225E+01   -.139E+01 -.428E+00 0.107E+01   0.897E-04 0.238E-04 -.167E-04
   -.137E+01 -.163E+01 0.940E+00   0.223E+00 0.929E+00 -.222E+01   0.115E+01 0.695E+00 0.128E+01   -.101E-04 -.683E-04 0.412E-05
   -.428E+01 0.249E+01 0.369E+01   0.511E+01 -.158E+01 -.422E+01   -.833E+00 -.913E+00 0.534E+00   -.596E-04 -.942E-04 -.992E-05
   -.548E+01 0.474E+01 -.463E+01   0.630E+01 -.380E+01 0.394E+01   -.825E+00 -.936E+00 0.687E+00   0.195E-05 0.554E-04 -.121E-04
   -.909E+01 0.132E+02 -.265E+01   0.761E+01 -.118E+02 0.363E+01   0.148E+01 -.140E+01 -.979E+00   -.129E-04 -.408E-04 -.291E-05
   0.764E+01 -.873E+01 -.860E+01   -.676E+01 0.732E+01 0.955E+01   -.882E+00 0.141E+01 -.956E+00   0.341E-06 -.533E-04 -.519E-04
   0.639E+01 -.162E+01 -.876E+01   -.530E+01 0.260E+01 0.827E+01   -.109E+01 -.977E+00 0.486E+00   -.255E-04 -.419E-04 -.345E-04
   0.543E+01 -.668E+01 0.320E+01   -.618E+01 0.602E+01 -.393E+01   0.764E+00 0.658E+00 0.737E+00   0.345E-05 0.804E-04 0.980E-05
   -.132E+02 -.405E+00 0.481E+01   0.118E+02 0.149E+01 -.352E+01   0.144E+01 -.109E+01 -.128E+01   0.795E-05 0.353E-04 0.485E-05
   -.382E+01 0.755E+01 -.115E+02   0.283E+01 -.823E+01 0.103E+02   0.988E+00 0.679E+00 0.113E+01   -.328E-04 0.528E-04 -.765E-06
   0.283E+01 0.327E+01 -.518E+01   -.135E+01 -.257E+01 0.407E+01   -.148E+01 -.705E+00 0.111E+01   -.138E-04 0.105E-03 0.110E-04
   -.337E+01 0.609E+01 0.379E+00   0.264E+01 -.704E+01 -.146E+01   0.722E+00 0.960E+00 0.108E+01   -.502E-04 0.253E-04 0.203E-04
   0.591E+00 0.696E+01 -.152E+01   -.127E+01 -.785E+01 0.575E+00   0.675E+00 0.897E+00 0.951E+00   -.112E-04 0.324E-04 0.424E-04
   -.136E+01 -.158E+02 0.552E+01   0.240E+01 0.143E+02 -.429E+01   -.104E+01 0.151E+01 -.123E+01   -.137E-04 -.278E-04 0.353E-04
   0.588E+01 0.696E+00 -.238E+01   -.501E+01 0.326E+00 0.116E+01   -.866E+00 -.102E+01 0.122E+01   -.375E-04 0.252E-04 -.259E-04
   0.383E+01 0.273E+01 0.334E+01   -.363E+01 -.257E+01 -.346E+01   -.201E+00 -.161E+00 0.114E+00   0.756E-04 0.146E-03 -.710E-04
   0.274E+01 -.273E-02 0.646E+01   -.310E+01 -.340E-01 -.687E+01   0.359E+00 0.336E-01 0.403E+00   -.162E-03 0.142E-04 0.145E-03
   -.540E+00 0.524E+00 -.577E+00   0.266E+00 -.477E+00 0.632E+00   0.273E+00 -.437E-01 -.531E-01   0.108E-05 -.152E-04 -.743E-05
   -.479E+01 -.103E+00 0.779E+01   0.484E+01 -.521E-01 -.761E+01   -.441E-01 0.162E+00 -.183E+00   0.151E-04 -.198E-03 -.522E-04
   -.572E+02 0.354E+02 -.349E+02   0.606E+02 -.380E+02 0.380E+02   -.340E+01 0.265E+01 -.311E+01   0.595E-05 0.856E-05 -.633E-04
   -.392E+02 -.567E+02 0.256E+02   0.416E+02 0.609E+02 -.279E+02   -.238E+01 -.422E+01 0.230E+01   0.517E-04 -.935E-04 -.317E-04
   0.278E+02 0.352E+02 0.485E+02   -.307E+02 -.386E+02 -.517E+02   0.294E+01 0.343E+01 0.325E+01   0.583E-05 -.756E-04 0.608E-04
   0.379E+02 -.510E+02 -.323E+02   -.405E+02 0.544E+02 0.351E+02   0.259E+01 -.342E+01 -.281E+01   0.607E-05 -.107E-03 -.705E-04
   0.664E+02 -.245E+02 -.331E+02   -.709E+02 0.261E+02 0.356E+02   0.450E+01 -.162E+01 -.253E+01   -.179E-05 0.139E-03 0.949E-04
   0.263E+02 0.411E+02 0.521E+02   -.283E+02 -.445E+02 -.558E+02   0.195E+01 0.331E+01 0.375E+01   0.184E-03 0.143E-03 0.157E-03
   -.393E+02 -.476E+02 0.343E+02   0.420E+02 0.513E+02 -.370E+02   -.271E+01 -.372E+01 0.269E+01   0.769E-04 0.102E-03 -.579E-04
   -.376E+02 0.292E+02 -.645E+02   0.402E+02 -.312E+02 0.687E+02   -.260E+01 0.202E+01 -.422E+01   -.146E-03 0.331E-04 -.113E-03
   -.253E+02 -.226E+02 0.627E+02   0.278E+02 0.252E+02 -.669E+02   -.255E+01 -.266E+01 0.425E+01   -.103E-03 -.419E-04 0.885E-04
   -.320E+02 0.639E+02 -.230E+02   0.346E+02 -.683E+02 0.251E+02   -.264E+01 0.440E+01 -.215E+01   0.287E-04 0.905E-04 0.144E-03
   0.355E+02 -.447E+02 -.450E+02   -.380E+02 0.480E+02 0.485E+02   0.254E+01 -.327E+01 -.347E+01   0.799E-04 -.197E-03 -.296E-04
   0.332E+02 0.316E+02 0.633E+02   -.358E+02 -.344E+02 -.669E+02   0.267E+01 0.276E+01 0.364E+01   -.292E-04 0.634E-04 -.453E-04
   -.451E+02 -.217E+02 0.445E+02   0.486E+02 0.239E+02 -.474E+02   -.350E+01 -.222E+01 0.283E+01   -.455E-04 0.418E-05 0.110E-03
   -.488E+02 0.414E+02 -.231E+02   0.522E+02 -.446E+02 0.257E+02   -.338E+01 0.321E+01 -.254E+01   -.318E-04 0.941E-04 -.111E-03
   0.324E+02 -.619E+02 -.301E+02   -.348E+02 0.664E+02 0.325E+02   0.238E+01 -.452E+01 -.235E+01   0.645E-04 0.607E-04 -.149E-04
   0.550E+02 0.344E+02 0.347E+02   -.588E+02 -.372E+02 -.371E+02   0.389E+01 0.283E+01 0.243E+01   0.570E-04 -.846E-04 -.372E-04
   0.841E+01 -.324E+00 0.163E+02   -.862E+01 0.257E+00 -.166E+02   0.201E+00 0.691E-01 0.311E+00   0.678E-05 -.779E-04 -.679E-04
   -.187E+01 -.193E+02 -.451E+01   0.191E+01 0.197E+02 0.460E+01   -.327E-01 -.378E+00 -.841E-01   -.794E-04 -.224E-04 -.232E-04
   0.173E+01 -.130E+01 0.756E+01   -.184E+01 0.130E+01 -.773E+01   0.118E+00 -.672E-02 0.180E+00   0.114E-04 0.108E-03 0.616E-04
   0.197E+01 0.545E+01 0.227E+02   -.218E+01 -.541E+01 -.231E+02   0.214E+00 -.421E-01 0.406E+00   -.152E-04 -.171E-03 0.408E-04
   -.507E+01 0.609E+01 -.175E+02   0.510E+01 -.604E+01 0.178E+02   -.313E-01 -.442E-01 -.227E+00   0.163E-03 0.188E-03 0.349E-04
   0.382E+00 0.366E+02 -.113E+01   -.325E+00 -.372E+02 0.108E+01   -.561E-01 0.632E+00 0.549E-01   -.101E-03 0.334E-03 0.521E-04
   0.271E+02 0.137E+01 -.601E+02   -.276E+02 -.161E+01 0.613E+02   0.446E+00 0.244E+00 -.120E+01   0.733E-04 -.937E-04 -.346E-03
   -.157E+02 -.168E+02 -.380E+02   0.161E+02 0.172E+02 0.385E+02   -.379E+00 -.387E+00 -.527E+00   -.868E-04 -.820E-04 -.156E-03
 -----------------------------------------------------------------------------------------------
   -.182E+01 0.269E+01 -.543E+01   0.426E-13 -.128E-12 -.711E-13   0.181E+01 -.268E+01 0.543E+01   -.157E-04 0.141E-03 -.286E-03
 
 
 POSITION                                       TOTAL-FORCE (eV/Angst)
 -----------------------------------------------------------------------------------
      9.57731      1.74091      1.98728        -0.000055     -0.000556     -0.000175
      9.36192      6.57871      6.59624         0.000075      0.000088     -0.000032
      0.45619      3.18211      6.20088         0.000100     -0.000003     -0.000288
      0.20187      6.75461      2.78933        -0.000037     -0.000154     -0.000115
      2.07050      2.19270      9.43410         0.000811      0.000499      0.000112
      1.76459      8.07376      0.34742        -0.000005     -0.000005     -0.000035
      7.68734      2.05268      0.09396        -0.000154      0.000155      0.000014
      8.03888      7.75588      9.54686         0.000304      0.000081     -0.000060
      2.99103      9.53370      2.92490        -0.000016     -0.000064      0.000220
      1.70484      0.39680      7.50608        -0.000881      0.000235      0.000366
      7.94852      9.47711      7.59698        -0.000349      0.000040      0.000033
      6.70365      0.19492      2.57472        -0.000110     -0.000070     -0.000015
      2.12312      6.55503      4.60278         0.000113     -0.000167     -0.000040
      3.35493      1.92956      5.13167         0.000196     -0.000209      0.000113
      6.67024      7.90625      5.21305        -0.000013     -0.000087     -0.000021
      6.70283      1.88793      4.56015         0.000117     -0.000126      0.000116
      2.82891      4.80698      7.69870         0.000011      0.000110     -0.000226
      3.06309      5.25210      1.61040        -0.000194     -0.000081     -0.000044
      8.08660      4.42987      3.18963         0.000171     -0.000150     -0.000033
      6.93226      5.03641      7.84858        -0.000052     -0.000011      0.000014
      4.67506      2.88564      7.83057         0.000062      0.000150     -0.000094
      4.69657      7.51237      2.82017        -0.000016     -0.000092     -0.000167
      5.30719      3.22846      1.74097         0.000081      0.000235      0.000257
      5.11161      7.00233      8.12286         0.000060      0.000157      0.000514
      4.99050      4.91424      4.85875         0.000013     -0.000042     -0.000403
      4.81319      0.04646      9.57568        -0.000179      0.000208      0.000567
      0.02973      4.84188      9.66803        -0.000125     -0.000379      0.000287
      0.07421      0.02395      4.75882        -0.000009     -0.000647     -0.000241
      1.17000      8.42612      5.93277         0.000143      0.000106     -0.000063
      1.35063      1.29749      3.76147        -0.000057      0.000024      0.000087
      8.52311      8.59218      3.53409         0.000086      0.000084      0.000060
      8.59645      1.27227      5.92489         0.000187     -0.000151      0.000024
      8.33992      5.83201      1.17302        -0.000112     -0.000112     -0.000224
      8.74760      3.61827      8.32580         0.000023      0.000028     -0.000089
      1.13934      6.20155      8.59473         0.000126      0.000097     -0.000157
      1.20684      3.74030      1.27646        -0.000389      0.000161     -0.000270
      6.07489      1.10612      8.34989        -0.000231     -0.000008      0.000137
      5.93007      8.33698      0.95793        -0.000112      0.000006     -0.000168
      3.81170      1.32562      1.16166         0.000069     -0.000032      0.000194
      3.47296      8.69077      8.42378        -0.000034      0.000226      0.000005
      6.27362      6.02312      3.70899         0.000035      0.000026     -0.000099
      6.09100      3.63798      6.03194        -0.000012      0.000152     -0.000073
      3.92103      6.19941      6.05474         0.000246      0.000164     -0.000014
      3.77150      3.82856      3.60774        -0.000006      0.000212      0.000235
      7.30956      7.28151      7.36876         0.000030      0.000004     -0.000006
      7.37321      2.37766      2.35256        -0.000013     -0.000134      0.000060
      2.43845      7.33665      2.42970        -0.000009      0.000012     -0.000029
      2.48498      2.56104      7.20614         0.000056      0.000049      0.000037
      0.00170      0.16940      9.54504        -0.000072     -0.000067     -0.000062
      0.16349      5.11257      4.74838        -0.000002      0.000027      0.000021
      5.03632      0.01482      4.40006         0.000028     -0.000020     -0.000034
      4.77680      4.78560      9.40572         0.000096      0.000028     -0.000197
 -----------------------------------------------------------------------------------
    total drift:                               -0.003840      0.008617     -0.007568


--------------------------------------------------------------------------------------------------------



  FREE ENERGIE OF THE ION-ELECTRON SYSTEM (eV)
  ---------------------------------------------------
  free  energy   TOTEN  =      -272.09599147 eV

  energy  without entropy=     -272.09599147  energy(sigma->0) =     -272.09599147
 
 d Force = 0.4074591E-06[ 0.282E-06, 0.533E-06]  d Energy = 0.6004345E-06-0.193E-06
 d Force = 0.6617443E-02[ 0.662E-02, 0.662E-02]  d Ewald  = 0.6617443E-02 0.364E-11


--------------------------------------------------------------------------------------------------------


    POTLOK:  cpu time      0.4510: real time      0.4527


--------------------------------------------------------------------------------------------------------


 stress matrix after NEB project (eV)
      0.26273     -2.62905      1.03849
     -2.62905      0.55048     -0.23290
      1.03849     -0.23290     -0.79823
  FORCES: max atom, RMS     0.000983    0.000336
  FORCE total and by dimension    0.002426    0.000881
  Stress total and by dimension    4.135026    2.629049
 Conjugate gradient step on ions:
 trial-energy change:   -0.000001  1 .order   -0.000000   -0.000001   -0.000000
  (g-gl).g = 0.413E-06      g.g   = 0.419E-06  gl.gl    = 0.899E-06
 g(Force)  = 0.419E-06   g(Stress)= 0.000E+00 ortho     = 0.604E-08
 gamma     =   0.45936
 trial     =   1.26341
 opt step  =   2.68007  (harmonic =   2.68007) maximal distance =0.00009752
 next E    =  -272.095991   (d E  =  -0.00000)


--------------------------------------------------------------------------------------------------------


  
 reached required accuracy - stopping structural energy minimisation
     LOOP+:  cpu time      7.4125: real time      7.5009
    4ORBIT:  cpu time      0.0000: real time      0.0000

 total amount of memory used by VASP MPI-rank0    48105. kBytes
=======================================================================

   base      :      30000. kBytes
   nonlr-proj:       6513. kBytes
   fftplans  :       1747. kBytes
   grid      :       5278. kBytes
   one-center:         62. kBytes
   wavefun   :       4505. kBytes
 
  
  
 General timing and accounting informations for this job:
 ========================================================
  
                  Total CPU time used (sec):       98.219
                            User time (sec):       97.096
                          System time (sec):        1.123
                         Elapsed time (sec):      101.772
  
                   Maximum memory used (kb):      379260.
                   Average memory used (kb):          N/A
  
                          Minor page faults:        56466
                          Major page faults:          137
                 Voluntary context switches:         4015
