<?xml version="1.0" encoding="ISO-8859-1"?>
<modeling>
 <generator>
  <i name="program" type="string">vasp </i>
  <i name="version" type="string">6.4.1  </i>
  <i name="subversion" type="string">05Apr23 (build Jun 07 2023 15:38:11) complex                          parallel </i>
  <i name="platform" type="string">LinuxIFC </i>
  <i name="date" type="string">2023 10 23 </i>
  <i name="time" type="string">15:02:46 </i>
 </generator>
 <incar>
  <i type="string" name="PREC">Accu</i>
  <i type="string" name="ALGO">F</i>
  <i type="logical" name="LDIAG"> T  </i>
  <i type="int" name="ISPIN">     2</i>
  <i type="int" name="NELM">   100</i>
  <i type="int" name="NELMDL">   -10</i>
  <i type="int" name="IBRION">     2</i>
  <i name="EDIFF">      0.00000100</i>
  <i name="EDIFFG">     -0.00100000</i>
  <i type="int" name="NSW">  1000</i>
  <i type="int" name="ISIF">     2</i>
  <i name="ENCUT">    520.00000000</i>
  <i name="POTIM">      0.20000000</i>
  <i type="string" name="LREAL">Auto</i>
  <i type="logical" name="LPLANE"> T  </i>
  <i type="int" name="ISMEAR">     0</i>
  <i name="SIGMA">      0.03000000</i>
  <i type="int" name="LMAXMIX">     4</i>
  <i type="logical" name="LWAVE"> F  </i>
  <i type="logical" name="LCHARG"> F  </i>
  <i type="logical" name="LASPH"> T  </i>
  <i type="string" name="GGA">PE</i>
  <i type="int" name="IVDW">    12</i>
 </incar>
 <primitive_cell>
  <structure name="primitive_cell" >
   <crystal>
    <varray name="basis" >
     <v>       9.66908316       0.00000000       0.00000000 </v>
     <v>       0.00000000       9.66908316       0.00000000 </v>
     <v>       0.00000000       0.00000000       9.66908316 </v>
    </varray>
    <i name="volume">    903.97388937 </i>
    <varray name="rec_basis" >
     <v>       0.10342242       0.00000000       0.00000000 </v>
     <v>       0.00000000       0.10342242       0.00000000 </v>
     <v>       0.00000000       0.00000000       0.10342242 </v>
    </varray>
   </crystal>
   <varray name="positions" >
    <v>       0.99050955       0.18005698       0.20553214 </v>
    <v>       0.96823087       0.68038451       0.68219879 </v>
    <v>       0.04717871       0.32910162       0.64131515 </v>
    <v>       0.02087909       0.69857992       0.28848154 </v>
    <v>       0.21412370       0.22676666       0.97569632 </v>
    <v>       0.18249827       0.83500839       0.03593263 </v>
    <v>       0.79504580       0.21229002       0.00971746 </v>
    <v>       0.83139566       0.80213024       0.98736054 </v>
    <v>       0.30933897       0.98599936       0.30249761 </v>
    <v>       0.17633167       0.04103443       0.77629183 </v>
    <v>       0.82206052       0.98014529       0.78569771 </v>
    <v>       0.69330986       0.02016040       0.26628456 </v>
    <v>       0.21957677       0.67793924       0.47603173 </v>
    <v>       0.34697198       0.19956323       0.53072838 </v>
    <v>       0.68985218       0.81768561       0.53914750 </v>
    <v>       0.69322105       0.19525619       0.47161951 </v>
    <v>       0.29257239       0.49714682       0.79622237 </v>
    <v>       0.31679499       0.54318598       0.16655274 </v>
    <v>       0.83633364       0.45814933       0.32988022 </v>
    <v>       0.71695248       0.52087680       0.81171966 </v>
    <v>       0.48350498       0.29843699       0.80985799 </v>
    <v>       0.48573031       0.77694895       0.29167185 </v>
    <v>       0.54888151       0.33389143       0.18005176 </v>
    <v>       0.52865406       0.72419546       0.84007742 </v>
    <v>       0.51612599       0.50823694       0.50250145 </v>
    <v>       0.49779593       0.00480573       0.99034237 </v>
    <v>       0.00307681       0.50075788       0.99989829 </v>
    <v>       0.00767188       0.00247162       0.49216666 </v>
    <v>       0.12099753       0.87145116       0.61358144 </v>
    <v>       0.13968540       0.13418817       0.38901972 </v>
    <v>       0.88148230       0.88862758       0.36550857 </v>
    <v>       0.88906255       0.13158299       0.61276571 </v>
    <v>       0.86253987       0.60316293       0.12131875 </v>
    <v>       0.90470003       0.37421369       0.86107946 </v>
    <v>       0.11783613       0.64138382       0.88888661 </v>
    <v>       0.12481445       0.38683788       0.13200844 </v>
    <v>       0.62828272       0.11439700       0.86356449 </v>
    <v>       0.61330156       0.86223400       0.09907321 </v>
    <v>       0.39421560       0.13709439       0.12013290 </v>
    <v>       0.35918505       0.89881565       0.87120893 </v>
    <v>       0.64882892       0.62292434       0.38359911 </v>
    <v>       0.62994492       0.37624860       0.62383928 </v>
    <v>       0.40551850       0.64115319       0.62619540 </v>
    <v>       0.39006198       0.39595860       0.37312089 </v>
    <v>       0.75597277       0.75307217       0.76209612 </v>
    <v>       0.76255407       0.24590393       0.24330607 </v>
    <v>       0.25219157       0.75877385       0.25128689 </v>
    <v>       0.25700242       0.26486846       0.74527676 </v>
    <v>       0.00017875       0.01752252       0.98717059 </v>
    <v>       0.01690781       0.52875556       0.49108974 </v>
    <v>       0.52086882       0.00153412       0.45506009 </v>
    <v>       0.49402857       0.49493724       0.97275783 </v>
   </varray>
  </structure>
  <varray name="primitive_index" >
   <v type="int" >        1 </v>
   <v type="int" >        2 </v>
   <v type="int" >        3 </v>
   <v type="int" >        4 </v>
   <v type="int" >        5 </v>
   <v type="int" >        6 </v>
   <v type="int" >        7 </v>
   <v type="int" >        8 </v>
   <v type="int" >        9 </v>
   <v type="int" >       10 </v>
   <v type="int" >       11 </v>
   <v type="int" >       12 </v>
   <v type="int" >       13 </v>
   <v type="int" >       14 </v>
   <v type="int" >       15 </v>
   <v type="int" >       16 </v>
   <v type="int" >       17 </v>
   <v type="int" >       18 </v>
   <v type="int" >       19 </v>
   <v type="int" >       20 </v>
   <v type="int" >       21 </v>
   <v type="int" >       22 </v>
   <v type="int" >       23 </v>
   <v type="int" >       24 </v>
   <v type="int" >       25 </v>
   <v type="int" >       26 </v>
   <v type="int" >       27 </v>
   <v type="int" >       28 </v>
   <v type="int" >       29 </v>
   <v type="int" >       30 </v>
   <v type="int" >       31 </v>
   <v type="int" >       32 </v>
   <v type="int" >       33 </v>
   <v type="int" >       34 </v>
   <v type="int" >       35 </v>
   <v type="int" >       36 </v>
   <v type="int" >       37 </v>
   <v type="int" >       38 </v>
   <v type="int" >       39 </v>
   <v type="int" >       40 </v>
   <v type="int" >       41 </v>
   <v type="int" >       42 </v>
   <v type="int" >       43 </v>
   <v type="int" >       44 </v>
   <v type="int" >       45 </v>
   <v type="int" >       46 </v>
   <v type="int" >       47 </v>
   <v type="int" >       48 </v>
   <v type="int" >       49 </v>
   <v type="int" >       50 </v>
   <v type="int" >       51 </v>
   <v type="int" >       52 </v>
  </varray>
 </primitive_cell>
 <kpoints>
  <generation param="Monkhorst-Pack">
   <v type="int" name="divisions">       2        2        2 </v>
   <v name="usershift">      0.00000000       0.00000000       0.00000000 </v>
   <v name="genvec1">      0.50000000       0.00000000       0.00000000 </v>
   <v name="genvec2">      0.00000000       0.50000000       0.00000000 </v>
   <v name="genvec3">      0.00000000       0.00000000       0.50000000 </v>
   <v name="shift">      0.50000000       0.50000000       0.50000000 </v>
  </generation>
  <varray name="kpointlist" >
   <v>       0.25000000       0.25000000       0.25000000 </v>
   <v>      -0.25000000       0.25000000       0.25000000 </v>
   <v>      -0.25000000      -0.25000000       0.25000000 </v>
   <v>       0.25000000      -0.25000000       0.25000000 </v>
  </varray>
  <varray name="weights" >
   <v>       0.25000000 </v>
   <v>       0.25000000 </v>
   <v>       0.25000000 </v>
   <v>       0.25000000 </v>
  </varray>
 </kpoints>
 <parameters>
  <separator name="general" >
   <i type="string" name="SYSTEM">unknown system</i>
   <i type="logical" name="LCOMPAT"> F  </i>
  </separator>
  <separator name="electronic" >
   <i type="string" name="PREC">accu</i>
   <i name="ENMAX">    520.00000000</i>
   <i name="ENAUG">   1041.69900000</i>
   <i name="EDIFF">      0.00000100</i>
   <i type="int" name="IALGO">    68</i>
   <i type="int" name="IWAVPR">    11</i>
   <i type="int" name="NBANDS">   176</i>
   <i type="int" name="NBANDSLOW">    -1</i>
   <i type="int" name="NBANDSHIGH">    -1</i>
   <i name="NELECT">    240.00000000</i>
   <i type="int" name="TURBO">     0</i>
   <i type="int" name="IRESTART">     0</i>
   <i type="int" name="NREBOOT">     0</i>
   <i type="int" name="NMIN">     0</i>
   <i name="EREF">      0.00000000</i>
   <separator name="electronic smearing" >
    <i type="int" name="ISMEAR">     0</i>
    <i name="SIGMA">      0.03000000</i>
    <i name="KSPACING">      0.50000000</i>
    <i type="logical" name="KGAMMA"> T  </i>
    <i type="logical" name="KBLOWUP"> T  </i>
   </separator>
   <separator name="electronic projectors" >
    <i type="logical" name="LREAL"> T  </i>
    <v name="ROPT">     -0.00025000     -0.00025000     -0.00025000     -0.00025000</v>
    <i type="int" name="LMAXPAW">  -100</i>
    <i type="int" name="LMAXMIX">     4</i>
    <i type="logical" name="NLSPLINE"> F  </i>
   </separator>
   <separator name="electronic startup" >
    <i type="int" name="ISTART">     0</i>
    <i type="int" name="ICHARG">     2</i>
    <i type="int" name="INIWAV">     1</i>
   </separator>
   <separator name="electronic spin" >
    <i type="int" name="ISPIN">     2</i>
    <i type="logical" name="LNONCOLLINEAR"> F  </i>
    <v name="MAGMOM">      1.00000000      1.00000000      1.00000000      1.00000000      1.00000000      1.00000000      1.00000000      1.00000000      1.00000000      1.00000000      1.00000000      1.00000000      1.00000000      1.00000000      1.00000000      1.00000000      1.00000000      1.00000000      1.00000000      1.00000000
      1.00000000      1.00000000      1.00000000      1.00000000      1.00000000      1.00000000      1.00000000      1.00000000      1.00000000      1.00000000      1.00000000      1.00000000      1.00000000      1.00000000      1.00000000      1.00000000      1.00000000      1.00000000      1.00000000      1.00000000
      1.00000000      1.00000000      1.00000000      1.00000000      1.00000000      1.00000000      1.00000000      1.00000000      1.00000000      1.00000000      1.00000000      1.00000000</v>
    <i name="NUPDOWN">     -1.00000000</i>
    <i type="logical" name="LSORBIT"> F  </i>
    <v name="SAXIS">      0.00000000      0.00000000      1.00000000</v>
    <i type="logical" name="LSPIRAL"> F  </i>
    <v name="QSPIRAL">      0.00000000      0.00000000      0.00000000</v>
    <i type="logical" name="LZEROZ"> F  </i>
   </separator>
   <separator name="electronic exchange-correlation" >
    <i type="logical" name="LASPH"> T  </i>
    <i type="logical" name="LMETAGGA"> F  </i>
   </separator>
   <separator name="electronic convergence" >
    <i type="int" name="NELM">   100</i>
    <i type="int" name="NELMDL">   -10</i>
    <i type="int" name="NELMIN">     2</i>
    <i name="ENINI">    520.00000000</i>
    <separator name="electronic convergence detail" >
     <i type="logical" name="LDIAG"> T  </i>
     <i type="logical" name="LSUBROT"> F  </i>
     <i name="WEIMIN">      0.00100000</i>
     <i name="EBREAK">      0.00000000</i>
     <i name="DEPER">      0.30000000</i>
     <i type="int" name="NRMM">     4</i>
     <i name="TIME">      0.40000000</i>
    </separator>
   </separator>
   <separator name="electronic mixer" >
    <i name="AMIX">      0.40000000</i>
    <i name="BMIX">      1.00000000</i>
    <i name="AMIN">      0.10000000</i>
    <i name="AMIX_MAG">      1.60000000</i>
    <i name="BMIX_MAG">      1.00000000</i>
    <separator name="electronic mixer details" >
     <i type="int" name="IMIX">     4</i>
     <i type="logical" name="MIXFIRST"> F  </i>
     <i type="int" name="MAXMIX">   -45</i>
     <i name="WC">    100.00000000</i>
     <i type="int" name="INIMIX">     1</i>
     <i type="int" name="MIXPRE">     1</i>
     <i type="int" name="MREMOVE">     5</i>
    </separator>
   </separator>
   <separator name="electronic dipolcorrection" >
    <i type="logical" name="LDIPOL"> F  </i>
    <i type="logical" name="LMONO"> F  </i>
    <i type="int" name="IDIPOL">     0</i>
    <i name="EPSILON">      1.00000000</i>
    <v name="DIPOL">   -100.00000000   -100.00000000   -100.00000000</v>
    <i name="EFIELD">      0.00000000</i>
   </separator>
  </separator>
  <separator name="grids" >
   <i type="int" name="NGX">    72</i>
   <i type="int" name="NGY">    72</i>
   <i type="int" name="NGZ">    72</i>
   <i type="int" name="NGXF">   144</i>
   <i type="int" name="NGYF">   144</i>
   <i type="int" name="NGZF">   144</i>
   <i type="logical" name="ADDGRID"> F  </i>
  </separator>
  <separator name="ionic" >
   <i type="int" name="NSW">  1000</i>
   <i type="int" name="IBRION">     2</i>
   <i type="int" name="MDALGO">     0</i>
   <i type="int" name="ISIF">     2</i>
   <i name="PSTRESS">      0.00000000</i>
   <i name="EDIFFG">     -0.00100000</i>
   <i type="int" name="NFREE">     1</i>
   <i name="POTIM">      0.20000000</i>
   <i name="SMASS">     -3.00000000</i>
   <i name="SCALEE">      1.00000000</i>
  </separator>
  <separator name="ionic md" >
   <i name="TEBEG">      0.00010000</i>
   <i name="TEEND">      0.00010000</i>
   <i type="int" name="NBLOCK">     1</i>
   <i type="int" name="KBLOCK">  1000</i>
   <i type="int" name="NPACO">   256</i>
   <i name="APACO">     10.00000000</i>
  </separator>
  <separator name="symmetry" >
   <i type="int" name="ISYM">     2</i>
   <i name="SYMPREC">      0.00001000</i>
  </separator>
  <separator name="dos" >
   <i type="int" name="LORBIT">     0</i>
   <v name="RWIGS">     -1.00000000     -1.00000000     -1.00000000     -1.00000000</v>
   <i type="int" name="NEDOS">   301</i>
   <i name="EMIN">     10.00000000</i>
   <i name="EMAX">    -10.00000000</i>
   <i name="EFERMI">      0.00000000</i>
  </separator>
  <separator name="writing" >
   <i type="int" name="NWRITE">     2</i>
   <i type="logical" name="LWAVE"> F  </i>
   <i type="logical" name="LDOWNSAMPLE"> F  </i>
   <i type="logical" name="LCHARG"> F  </i>
   <i type="logical" name="LPARD"> F  </i>
   <i type="logical" name="LVTOT"> F  </i>
   <i type="logical" name="LVHAR"> F  </i>
   <i type="logical" name="LELF"> F  </i>
   <i type="logical" name="LOPTICS"> F  </i>
   <v name="STM">      0.00000000      0.00000000      0.00000000      0.00000000      0.00000000      0.00000000      0.00000000</v>
  </separator>
  <separator name="performance" >
   <i type="int" name="NPAR">     4</i>
   <i type="int" name="NSIM">     4</i>
   <i type="int" name="NBLK">    -1</i>
   <i type="logical" name="LPLANE"> T  </i>
   <i type="logical" name="LSCALAPACK"> T  </i>
   <i type="logical" name="LSCAAWARE"> F  </i>
   <i type="logical" name="LSCALU"> F  </i>
   <i type="logical" name="LASYNC"> F  </i>
   <i type="logical" name="LORBITALREAL"> F  </i>
  </separator>
  <separator name="miscellaneous" >
   <i type="int" name="IDIOT">     3</i>
   <i type="int" name="PHON_NSTRUCT">    -1</i>
   <i type="logical" name="LMUSIC"> F  </i>
   <v name="POMASS">      7.01000000     30.97400000     32.06600000     35.45300000</v>
   <v name="DARWINR">      0.00000000      0.00000000      0.00000000      0.00000000</v>
   <v name="DARWINV">      1.00000000      1.00000000      1.00000000      1.00000000</v>
   <i type="logical" name="LCORR"> T  </i>
  </separator>
  <i type="logical" name="GGA_COMPAT"> T  </i>
  <i type="logical" name="LBERRY"> F  </i>
  <i type="int" name="ICORELEVEL">     0</i>
  <i type="logical" name="LDAU"> F  </i>
  <i type="int" name="I_CONSTRAINED_M">     0</i>
  <separator name="electronic exchange-correlation" >
   <i type="string" name="GGA">PE</i>
   <i type="int" name="VOSKOWN">     0</i>
   <i type="logical" name="LHFCALC"> F  </i>
   <i type="string" name="PRECFOCK"></i>
   <i type="logical" name="LSYMGRAD"> F  </i>
   <i type="logical" name="LHFONE"> F  </i>
   <i type="logical" name="LRHFCALC"> F  </i>
   <i type="logical" name="LTHOMAS"> F  </i>
   <i type="logical" name="LMODELHF"> F  </i>
   <i type="logical" name="LFOCKACE"> F  </i>
   <i name="ENCUT4O">     -1.00000000</i>
   <i type="int" name="EXXOEP">     0</i>
   <i type="int" name="FOURORBIT">     0</i>
   <i name="AEXX">      0.00000000</i>
   <i name="HFALPHA">      0.00000000</i>
   <i name="MCALPHA">      0.00000000</i>
   <i name="ALDAX">      1.00000000</i>
   <i name="AGGAX">      1.00000000</i>
   <i name="ALDAC">      1.00000000</i>
   <i name="AGGAC">      1.00000000</i>
   <i type="int" name="NKREDX">     1</i>
   <i type="int" name="NKREDY">     1</i>
   <i type="int" name="NKREDZ">     1</i>
   <i type="logical" name="SHIFTRED"> F  </i>
   <i type="logical" name="ODDONLY"> F  </i>
   <i type="logical" name="EVENONLY"> F  </i>
   <i type="int" name="LMAXFOCK">     0</i>
   <i type="int" name="NMAXFOCKAE">     0</i>
   <i type="logical" name="LFOCKAEDFT"> F  </i>
   <i name="HFSCREEN">      0.00000000</i>
   <i name="HFSCREENC">      0.00000000</i>
   <i type="int" name="NBANDSGWLOW">     0</i>
  </separator>
  <separator name="vdW DFT" >
   <i type="logical" name="LUSE_VDW"> F  </i>
   <i type="int" name="IVDW_NL">     1</i>
   <i type="logical" name="LSPIN_VDW"> F  </i>
   <i name="Zab_VDW">     -0.84910000</i>
   <i name="PARAM1">      0.12340000</i>
   <i name="PARAM2">      1.00000000</i>
   <i name="PARAM3">      0.00000000</i>
  </separator>
  <separator name="model GW" >
   <i type="int" name="MODEL_GW">     0</i>
   <i name="MODEL_EPS0">     10.43046795</i>
   <i name="MODEL_ALPHA">      1.00000000</i>
  </separator>
  <separator name="linear response parameters" >
   <i type="logical" name="LEPSILON"> F  </i>
   <i type="logical" name="LRPA"> F  </i>
   <i type="logical" name="LNABLA"> F  </i>
   <i type="logical" name="LVEL"> F  </i>
   <i name="CSHIFT">      0.10000000</i>
   <i name="OMEGAMAX">     -1.00000000</i>
   <i name="DEG_THRESHOLD">      0.00200000</i>
   <i name="RTIME">     -0.10000000</i>
   <i name="WPLASMAI">      0.00000000</i>
   <v name="DFIELD">      0.00000000      0.00000000      0.00000000</v>
   <v name="WPLASMA">      0.00000000      0.00000000      0.00000000      0.00000000      0.00000000      0.00000000      0.00000000      0.00000000      0.00000000</v>
  </separator>
  <separator name="orbital magnetization" >
   <i type="logical" name="NUCIND"> F  </i>
   <v name="MAGPOS">      0.00000000      0.00000000      0.00000000</v>
   <i type="logical" name="LNICSALL"> T  </i>
   <i type="logical" name="ORBITALMAG"> F  </i>
   <i type="logical" name="LMAGBLOCH"> F  </i>
   <i type="logical" name="LCHIMAG"> F  </i>
   <i type="logical" name="LGAUGE"> T  </i>
   <i type="int" name="MAGATOM">     0</i>
   <v name="MAGDIPOL">      0.00000000      0.00000000      0.00000000</v>
   <v name="AVECCONST">      0.00000000      0.00000000      0.00000000</v>
  </separator>
  <separator name="response functions" >
   <i type="logical" name="LALL_IN_ONE"> F  </i>
   <i type="int" name="IALL_IN_ONE">    -1</i>
   <i type="int" name="NBANDS_WAVE">    -1</i>
   <i type="logical" name="LFINITE_TEMPERATURE"> F  </i>
   <i type="logical" name="LADDER"> F  </i>
   <i type="logical" name="LRPAFORCE"> F  </i>
   <i type="logical" name="LFXC"> F  </i>
   <i type="logical" name="LHARTREE"> T  </i>
   <i type="int" name="IBSE">     0</i>
   <v type="int" name="KPOINT">    -1     0     0     0</v>
   <i type="logical" name="LTCTC"> F  </i>
   <i type="logical" name="LTCTE"> F  </i>
   <i type="logical" name="LTETE"> F  </i>
   <i type="logical" name="LTRIPLET"> F  </i>
   <i type="logical" name="LFXCEPS"> F  </i>
   <i type="logical" name="LFXHEG"> F  </i>
   <i type="int" name="NATURALO">     2</i>
   <i type="logical" name="LHOLEGF"> F  </i>
   <i type="logical" name="L2ORDER"> F  </i>
   <i type="logical" name="LDMP1"> F  </i>
   <i type="logical" name="LMP2LT"> F  </i>
   <i type="logical" name="LSMP2LT"> F  </i>
   <i type="logical" name="LGWLF"> F  </i>
   <i name="ENCUTGW">     -1.60000002</i>
   <i name="ENCUTGWSOFT">     -1.60000002</i>
   <i name="ENCUTLF">     -1.00000000</i>
   <i type="logical" name="LESF_SPLINES"> F  </i>
   <i type="int" name="LMAXMP2">    -1</i>
   <i name="SCISSOR">      0.00000000</i>
   <i type="int" name="NOMEGA">     0</i>
   <i type="int" name="NOMEGAR">     0</i>
   <i type="int" name="NBANDSGW">    -1</i>
   <i type="int" name="NBANDSO">    -1</i>
   <i type="int" name="NBANDSV">    -1</i>
   <i type="int" name="NELMGW">     1</i>
   <i type="int" name="NELMHF">     1</i>
   <i type="int" name="DIM">     3</i>
   <i type="int" name="IESPILON">     4</i>
   <i type="int" name="ANTIRES">     0</i>
   <i name="OMEGAMAX">    -30.00000000</i>
   <i name="OMEGAMIN">    -30.00000000</i>
   <i name="OMEGATL">   -200.00000000</i>
   <i type="int" name="OMEGAGRID">     0</i>
   <i name="CSHIFT">     -0.10000000</i>
   <i type="logical" name="LSELFENERGY"> F  </i>
   <i type="logical" name="LSPECTRAL"> F  </i>
   <i type="logical" name="LSPECTRALGW"> F  </i>
   <i type="logical" name="LSINGLES"> F  </i>
   <i type="logical" name="LFERMIGW"> F  </i>
   <i type="logical" name="ODDONLYGW"> F  </i>
   <i type="logical" name="EVENONLYGW"> F  </i>
   <i type="int" name="NKREDLFX">     1</i>
   <i type="int" name="NKREDLFY">     1</i>
   <i type="int" name="NKREDLFZ">     1</i>
   <i type="int" name="MAXMEM">  2800</i>
   <i type="int" name="TELESCOPE">     0</i>
   <i type="int" name="NTAUPAR">    -1</i>
   <i type="int" name="NOMEGAPAR">    -1</i>
   <i name="DAMP_NEWTON">      0.80000001</i>
   <i name="LAMBDA">      1.00000000</i>
  </separator>
  <separator name="External order field" >
   <i name="OFIELD_KAPPA">      0.00000000</i>
   <v name="OFIELD_K">      0.00000000      0.00000000      0.00000000</v>
   <i name="OFIELD_Q6_NEAR">      0.00000000</i>
   <i name="OFIELD_Q6_FAR">      0.00000000</i>
   <i name="OFIELD_A">      0.00000000</i>
  </separator>
  <separator name="optional k-points parameters" >
   <i type="int" name="KPOINTS_OPT_MODE">     1</i>
   <i type="logical" name="LKPOINTS_OPT"> F  </i>
  </separator>
 </parameters>
 <atominfo>
  <atoms>      52 </atoms>
  <types>       4 </types>
  <array name="atoms" >
   <dimension dim="1">ion</dimension>
   <field type="string">element</field>
   <field type="int">atomtype</field>
   <set>
    <rc><c>Li</c><c>   1</c></rc>
    <rc><c>Li</c><c>   1</c></rc>
    <rc><c>Li</c><c>   1</c></rc>
    <rc><c>Li</c><c>   1</c></rc>
    <rc><c>Li</c><c>   1</c></rc>
    <rc><c>Li</c><c>   1</c></rc>
    <rc><c>Li</c><c>   1</c></rc>
    <rc><c>Li</c><c>   1</c></rc>
    <rc><c>Li</c><c>   1</c></rc>
    <rc><c>Li</c><c>   1</c></rc>
    <rc><c>Li</c><c>   1</c></rc>
    <rc><c>Li</c><c>   1</c></rc>
    <rc><c>Li</c><c>   1</c></rc>
    <rc><c>Li</c><c>   1</c></rc>
    <rc><c>Li</c><c>   1</c></rc>
    <rc><c>Li</c><c>   1</c></rc>
    <rc><c>Li</c><c>   1</c></rc>
    <rc><c>Li</c><c>   1</c></rc>
    <rc><c>Li</c><c>   1</c></rc>
    <rc><c>Li</c><c>   1</c></rc>
    <rc><c>Li</c><c>   1</c></rc>
    <rc><c>Li</c><c>   1</c></rc>
    <rc><c>Li</c><c>   1</c></rc>
    <rc><c>Li</c><c>   1</c></rc>
    <rc><c>P </c><c>   2</c></rc>
    <rc><c>P </c><c>   2</c></rc>
    <rc><c>P </c><c>   2</c></rc>
    <rc><c>P </c><c>   2</c></rc>
    <rc><c>S </c><c>   3</c></rc>
    <rc><c>S </c><c>   3</c></rc>
    <rc><c>S </c><c>   3</c></rc>
    <rc><c>S </c><c>   3</c></rc>
    <rc><c>S </c><c>   3</c></rc>
    <rc><c>S </c><c>   3</c></rc>
    <rc><c>S </c><c>   3</c></rc>
    <rc><c>S </c><c>   3</c></rc>
    <rc><c>S </c><c>   3</c></rc>
    <rc><c>S </c><c>   3</c></rc>
    <rc><c>S </c><c>   3</c></rc>
    <rc><c>S </c><c>   3</c></rc>
    <rc><c>S </c><c>   3</c></rc>
    <rc><c>S </c><c>   3</c></rc>
    <rc><c>S </c><c>   3</c></rc>
    <rc><c>S </c><c>   3</c></rc>
    <rc><c>S </c><c>   3</c></rc>
    <rc><c>S </c><c>   3</c></rc>
    <rc><c>S </c><c>   3</c></rc>
    <rc><c>S </c><c>   3</c></rc>
    <rc><c>Cl</c><c>   4</c></rc>
    <rc><c>Cl</c><c>   4</c></rc>
    <rc><c>Cl</c><c>   4</c></rc>
    <rc><c>Cl</c><c>   4</c></rc>
   </set>
  </array>
  <array name="atomtypes" >
   <dimension dim="1">type</dimension>
   <field type="int">atomspertype</field>
   <field type="string">element</field>
   <field>mass</field>
   <field>valence</field>
   <field type="string">pseudopotential</field>
   <set>
    <rc><c>  24</c><c>Li</c><c>      7.01000000</c><c>      3.00000000</c><c>  PAW_PBE Li_sv_GW 25Mar2010            </c></rc>
    <rc><c>   4</c><c>P </c><c>     30.97400000</c><c>      5.00000000</c><c>  PAW_PBE P_GW 19Mar2012                </c></rc>
    <rc><c>  20</c><c>S </c><c>     32.06600000</c><c>      6.00000000</c><c>  PAW_PBE S_GW 19Mar2012                </c></rc>
    <rc><c>   4</c><c>Cl</c><c>     35.45300000</c><c>      7.00000000</c><c>  PAW_PBE Cl_GW 19Mar2012               </c></rc>
   </set>
  </array>
 </atominfo>
 <structure name="initialpos" >
  <crystal>
   <varray name="basis" >
    <v>       9.66908316       0.00000000       0.00000000 </v>
    <v>       0.00000000       9.66908316       0.00000000 </v>
    <v>       0.00000000       0.00000000       9.66908316 </v>
   </varray>
   <i name="volume">    903.97388937 </i>
   <varray name="rec_basis" >
    <v>       0.10342242       0.00000000       0.00000000 </v>
    <v>       0.00000000       0.10342242       0.00000000 </v>
    <v>       0.00000000       0.00000000       0.10342242 </v>
   </varray>
  </crystal>
  <varray name="positions" >
   <v>       0.99050955       0.18005698       0.20553214 </v>
   <v>       0.96823087       0.68038451       0.68219879 </v>
   <v>       0.04717871       0.32910162       0.64131515 </v>
   <v>       0.02087909       0.69857992       0.28848154 </v>
   <v>       0.21412370       0.22676666       0.97569632 </v>
   <v>       0.18249827       0.83500839       0.03593263 </v>
   <v>       0.79504580       0.21229002       0.00971746 </v>
   <v>       0.83139566       0.80213024       0.98736054 </v>
   <v>       0.30933897       0.98599936       0.30249761 </v>
   <v>       0.17633167       0.04103443       0.77629183 </v>
   <v>       0.82206052       0.98014529       0.78569771 </v>
   <v>       0.69330986       0.02016040       0.26628456 </v>
   <v>       0.21957677       0.67793924       0.47603173 </v>
   <v>       0.34697198       0.19956323       0.53072838 </v>
   <v>       0.68985218       0.81768561       0.53914750 </v>
   <v>       0.69322105       0.19525619       0.47161951 </v>
   <v>       0.29257239       0.49714682       0.79622237 </v>
   <v>       0.31679499       0.54318598       0.16655274 </v>
   <v>       0.83633364       0.45814933       0.32988022 </v>
   <v>       0.71695248       0.52087680       0.81171966 </v>
   <v>       0.48350498       0.29843699       0.80985799 </v>
   <v>       0.48573031       0.77694895       0.29167185 </v>
   <v>       0.54888151       0.33389143       0.18005176 </v>
   <v>       0.52865406       0.72419546       0.84007742 </v>
   <v>       0.51612599       0.50823694       0.50250145 </v>
   <v>       0.49779593       0.00480573       0.99034237 </v>
   <v>       0.00307681       0.50075788       0.99989829 </v>
   <v>       0.00767188       0.00247162       0.49216666 </v>
   <v>       0.12099753       0.87145116       0.61358144 </v>
   <v>       0.13968540       0.13418817       0.38901972 </v>
   <v>       0.88148230       0.88862758       0.36550857 </v>
   <v>       0.88906255       0.13158299       0.61276571 </v>
   <v>       0.86253987       0.60316293       0.12131875 </v>
   <v>       0.90470003       0.37421369       0.86107946 </v>
   <v>       0.11783613       0.64138382       0.88888661 </v>
   <v>       0.12481445       0.38683788       0.13200844 </v>
   <v>       0.62828272       0.11439700       0.86356449 </v>
   <v>       0.61330156       0.86223400       0.09907321 </v>
   <v>       0.39421560       0.13709439       0.12013290 </v>
   <v>       0.35918505       0.89881565       0.87120893 </v>
   <v>       0.64882892       0.62292434       0.38359911 </v>
   <v>       0.62994492       0.37624860       0.62383928 </v>
   <v>       0.40551850       0.64115319       0.62619540 </v>
   <v>       0.39006198       0.39595860       0.37312089 </v>
   <v>       0.75597277       0.75307217       0.76209612 </v>
   <v>       0.76255407       0.24590393       0.24330607 </v>
   <v>       0.25219157       0.75877385       0.25128689 </v>
   <v>       0.25700242       0.26486846       0.74527676 </v>
   <v>       0.00017875       0.01752252       0.98717059 </v>
   <v>       0.01690781       0.52875556       0.49108974 </v>
   <v>       0.52086882       0.00153412       0.45506009 </v>
   <v>       0.49402857       0.49493724       0.97275783 </v>
  </varray>
 </structure>
 <calculation>
  <scstep>
   <time name="dav">    2.22    2.25</time>
   <time name="total">    2.68    2.73</time>
   <energy>
    <i name="alphaZ">    300.29352271 </i>
    <i name="ewald">  -8800.24507726 </i>
    <i name="hartreedc">  -2119.95519903 </i>
    <i name="XCdc">    534.13752848 </i>
    <i name="pawpsdc">   8141.38806575 </i>
    <i name="pawaedc">  -8271.61346273 </i>
    <i name="eentropy">     -0.00913405 </i>
    <i name="bandstr">   -898.58532645 </i>
    <i name="atom">  12703.13999606 </i>
    <i name="e_fr_energy">   1588.55091349 </i>
    <i name="e_wo_entrp">   1588.56004754 </i>
    <i name="e_0_energy">   1588.55548051 </i>
   </energy>
  </scstep>
  <scstep>
   <time name="dav">    2.64    2.66</time>
   <time name="total">    2.64    2.66</time>
   <energy>
    <i name="e_fr_energy">    -56.15969527 </i>
    <i name="e_wo_entrp">    -56.15969527 </i>
    <i name="e_0_energy">    -56.15969527 </i>
   </energy>
  </scstep>
  <scstep>
   <time name="dav">    2.66    2.68</time>
   <time name="total">    2.66    2.68</time>
   <energy>
    <i name="e_fr_energy">   -227.99790406 </i>
    <i name="e_wo_entrp">   -227.99790406 </i>
    <i name="e_0_energy">   -227.99790406 </i>
   </energy>
  </scstep>
  <scstep>
   <time name="dav">    3.46    3.50</time>
   <time name="total">    3.46    3.50</time>
   <energy>
    <i name="e_fr_energy">   -241.78561464 </i>
    <i name="e_wo_entrp">   -241.78561464 </i>
    <i name="e_0_energy">   -241.78561464 </i>
   </energy>
  </scstep>
  <scstep>
   <time name="dav">    2.92    2.94</time>
   <time name="total">    2.92    2.95</time>
   <energy>
    <i name="e_fr_energy">   -242.00821014 </i>
    <i name="e_wo_entrp">   -242.00821014 </i>
    <i name="e_0_energy">   -242.00821014 </i>
   </energy>
  </scstep>
  <scstep>
   <time name="dav">    3.05    3.08</time>
   <time name="total">    3.05    3.08</time>
   <energy>
    <i name="e_fr_energy">   -242.02033637 </i>
    <i name="e_wo_entrp">   -242.02033637 </i>
    <i name="e_0_energy">   -242.02033637 </i>
   </energy>
  </scstep>
  <scstep>
   <time name="dav">    3.10    3.13</time>
   <time name="total">    3.10    3.13</time>
   <energy>
    <i name="e_fr_energy">   -242.02072086 </i>
    <i name="e_wo_entrp">   -242.02072086 </i>
    <i name="e_0_energy">   -242.02072086 </i>
   </energy>
  </scstep>
  <scstep>
   <time name="dav">    3.01    3.04</time>
   <time name="total">    3.01    3.04</time>
   <energy>
    <i name="e_fr_energy">   -242.02074318 </i>
    <i name="e_wo_entrp">   -242.02074318 </i>
    <i name="e_0_energy">   -242.02074318 </i>
   </energy>
  </scstep>
  <scstep>
   <time name="dav">    2.95    2.97</time>
   <time name="total">    2.95    2.97</time>
   <energy>
    <i name="e_fr_energy">   -242.02074462 </i>
    <i name="e_wo_entrp">   -242.02074462 </i>
    <i name="e_0_energy">   -242.02074462 </i>
   </energy>
  </scstep>
  <scstep>
   <time name="dav">    1.97    1.99</time>
   <time name="total">    2.04    2.07</time>
   <energy>
    <i name="e_fr_energy">   -242.02074468 </i>
    <i name="e_wo_entrp">   -242.02074468 </i>
    <i name="e_0_energy">   -242.02074468 </i>
   </energy>
  </scstep>
  <scstep>
   <time name="diag">    0.37    0.37</time>
   <time name="diis">    1.17    1.18</time>
   <time name="orth">    0.07    0.07</time>
   <time name="total">    2.12    2.14</time>
   <energy>
    <i name="e_fr_energy">   -235.91089464 </i>
    <i name="e_wo_entrp">   -235.91089464 </i>
    <i name="e_0_energy">   -235.91089464 </i>
   </energy>
  </scstep>
  <scstep>
   <time name="diag">    0.36    0.36</time>
   <time name="diis">    1.22    1.23</time>
   <time name="orth">    0.07    0.07</time>
   <time name="total">    2.17    2.19</time>
   <energy>
    <i name="e_fr_energy">   -255.89795604 </i>
    <i name="e_wo_entrp">   -255.89795604 </i>
    <i name="e_0_energy">   -255.89795604 </i>
   </energy>
  </scstep>
  <scstep>
   <time name="diag">    0.35    0.36</time>
   <time name="diis">    1.20    1.21</time>
   <time name="orth">    0.07    0.07</time>
   <time name="total">    2.15    2.17</time>
   <energy>
    <i name="e_fr_energy">   -258.36244776 </i>
    <i name="e_wo_entrp">   -258.36244776 </i>
    <i name="e_0_energy">   -258.36244776 </i>
   </energy>
  </scstep>
  <scstep>
   <time name="diag">    0.36    0.36</time>
   <time name="diis">    1.57    1.58</time>
   <time name="orth">    0.07    0.07</time>
   <time name="total">    2.52    2.54</time>
   <energy>
    <i name="e_fr_energy">   -258.56525687 </i>
    <i name="e_wo_entrp">   -258.56525687 </i>
    <i name="e_0_energy">   -258.56525687 </i>
   </energy>
  </scstep>
  <scstep>
   <time name="diag">    0.36    0.36</time>
   <time name="diis">    1.27    1.28</time>
   <time name="orth">    0.07    0.07</time>
   <time name="total">    2.22    2.23</time>
   <energy>
    <i name="e_fr_energy">   -258.53761145 </i>
    <i name="e_wo_entrp">   -258.53761145 </i>
    <i name="e_0_energy">   -258.53761145 </i>
   </energy>
  </scstep>
  <scstep>
   <time name="diag">    0.36    0.36</time>
   <time name="diis">    1.28    1.30</time>
   <time name="orth">    0.07    0.07</time>
   <time name="total">    2.23    2.25</time>
   <energy>
    <i name="e_fr_energy">   -258.55716389 </i>
    <i name="e_wo_entrp">   -258.55716389 </i>
    <i name="e_0_energy">   -258.55716389 </i>
   </energy>
  </scstep>
  <scstep>
   <time name="diag">    0.36    0.36</time>
   <time name="diis">    1.46    1.47</time>
   <time name="orth">    0.07    0.07</time>
   <time name="total">    2.41    2.43</time>
   <energy>
    <i name="e_fr_energy">   -258.56332544 </i>
    <i name="e_wo_entrp">   -258.56332544 </i>
    <i name="e_0_energy">   -258.56332544 </i>
   </energy>
  </scstep>
  <scstep>
   <time name="diag">    0.36    0.36</time>
   <time name="diis">    1.43    1.44</time>
   <time name="orth">    0.07    0.07</time>
   <time name="total">    2.37    2.39</time>
   <energy>
    <i name="e_fr_energy">   -258.56453094 </i>
    <i name="e_wo_entrp">   -258.56453094 </i>
    <i name="e_0_energy">   -258.56453094 </i>
   </energy>
  </scstep>
  <scstep>
   <time name="diag">    0.36    0.36</time>
   <time name="diis">    1.61    1.62</time>
   <time name="orth">    0.07    0.07</time>
   <time name="total">    2.55    2.57</time>
   <energy>
    <i name="e_fr_energy">   -258.56502975 </i>
    <i name="e_wo_entrp">   -258.56502975 </i>
    <i name="e_0_energy">   -258.56502975 </i>
   </energy>
  </scstep>
  <scstep>
   <time name="diag">    0.36    0.36</time>
   <time name="diis">    1.61    1.62</time>
   <time name="orth">    0.07    0.07</time>
   <time name="total">    2.56    2.58</time>
   <energy>
    <i name="e_fr_energy">   -258.56512387 </i>
    <i name="e_wo_entrp">   -258.56512387 </i>
    <i name="e_0_energy">   -258.56512387 </i>
   </energy>
  </scstep>
  <scstep>
   <time name="diag">    0.36    0.36</time>
   <time name="diis">    1.44    1.46</time>
   <time name="orth">    0.07    0.07</time>
   <time name="total">    2.39    2.41</time>
   <energy>
    <i name="e_fr_energy">   -258.56514163 </i>
    <i name="e_wo_entrp">   -258.56514163 </i>
    <i name="e_0_energy">   -258.56514163 </i>
   </energy>
  </scstep>
  <scstep>
   <time name="diag">    0.36    0.36</time>
   <time name="diis">    1.59    1.61</time>
   <time name="orth">    0.07    0.07</time>
   <time name="total">    2.54    2.56</time>
   <energy>
    <i name="e_fr_energy">   -258.56514817 </i>
    <i name="e_wo_entrp">   -258.56514817 </i>
    <i name="e_0_energy">   -258.56514817 </i>
   </energy>
  </scstep>
  <scstep>
   <time name="diag">    0.36    0.36</time>
   <time name="diis">    1.26    1.27</time>
   <time name="orth">    0.07    0.07</time>
   <time name="total">    2.21    2.22</time>
   <energy>
    <i name="e_fr_energy">   -258.56514812 </i>
    <i name="e_wo_entrp">   -258.56514812 </i>
    <i name="e_0_energy">   -258.56514812 </i>
   </energy>
  </scstep>
  <scstep>
   <time name="diag">    0.36    0.36</time>
   <time name="diis">    0.96    0.97</time>
   <time name="orth">    0.07    0.07</time>
   <time name="total">    1.84    1.85</time>
   <energy>
    <i name="alphaZ">    300.29352271 </i>
    <i name="ewald">  -8800.24507726 </i>
    <i name="hartreedc">  -2221.03312805 </i>
    <i name="XCdc">    537.81281577 </i>
    <i name="pawpsdc">   9821.87292329 </i>
    <i name="pawaedc">  -9965.90768505 </i>
    <i name="eentropy">     -0.00000000 </i>
    <i name="bandstr">  -2634.49851500 </i>
    <i name="atom">  12703.13999606 </i>
    <i name="e_fr_energy">   -258.56514752 </i>
    <i name="e_wo_entrp">   -258.56514752 </i>
    <i name="e_0_energy">   -258.56514752 </i>
   </energy>
  </scstep>
  <structure>
   <crystal>
    <varray name="basis" >
     <v>       9.66908316       0.00000000       0.00000000 </v>
     <v>       0.00000000       9.66908316       0.00000000 </v>
     <v>       0.00000000       0.00000000       9.66908316 </v>
    </varray>
    <i name="volume">    903.97388937 </i>
    <varray name="rec_basis" >
     <v>       0.10342242       0.00000000       0.00000000 </v>
     <v>       0.00000000       0.10342242       0.00000000 </v>
     <v>       0.00000000       0.00000000       0.10342242 </v>
    </varray>
   </crystal>
   <varray name="positions" >
    <v>       0.99050955       0.18005698       0.20553214 </v>
    <v>       0.96823087       0.68038451       0.68219879 </v>
    <v>       0.04717871       0.32910162       0.64131515 </v>
    <v>       0.02087909       0.69857992       0.28848154 </v>
    <v>       0.21412370       0.22676666       0.97569632 </v>
    <v>       0.18249827       0.83500839       0.03593263 </v>
    <v>       0.79504580       0.21229002       0.00971746 </v>
    <v>       0.83139566       0.80213024       0.98736054 </v>
    <v>       0.30933897       0.98599936       0.30249761 </v>
    <v>       0.17633167       0.04103443       0.77629183 </v>
    <v>       0.82206052       0.98014529       0.78569771 </v>
    <v>       0.69330986       0.02016040       0.26628456 </v>
    <v>       0.21957677       0.67793924       0.47603173 </v>
    <v>       0.34697198       0.19956323       0.53072838 </v>
    <v>       0.68985218       0.81768561       0.53914750 </v>
    <v>       0.69322105       0.19525619       0.47161951 </v>
    <v>       0.29257239       0.49714682       0.79622237 </v>
    <v>       0.31679499       0.54318598       0.16655274 </v>
    <v>       0.83633364       0.45814933       0.32988022 </v>
    <v>       0.71695248       0.52087680       0.81171966 </v>
    <v>       0.48350498       0.29843699       0.80985799 </v>
    <v>       0.48573031       0.77694895       0.29167185 </v>
    <v>       0.54888151       0.33389143       0.18005176 </v>
    <v>       0.52865406       0.72419546       0.84007742 </v>
    <v>       0.51612599       0.50823694       0.50250145 </v>
    <v>       0.49779593       0.00480573       0.99034237 </v>
    <v>       0.00307681       0.50075788       0.99989829 </v>
    <v>       0.00767188       0.00247162       0.49216666 </v>
    <v>       0.12099753       0.87145116       0.61358144 </v>
    <v>       0.13968540       0.13418817       0.38901972 </v>
    <v>       0.88148230       0.88862758       0.36550857 </v>
    <v>       0.88906255       0.13158299       0.61276571 </v>
    <v>       0.86253987       0.60316293       0.12131875 </v>
    <v>       0.90470003       0.37421369       0.86107946 </v>
    <v>       0.11783613       0.64138382       0.88888661 </v>
    <v>       0.12481445       0.38683788       0.13200844 </v>
    <v>       0.62828272       0.11439700       0.86356449 </v>
    <v>       0.61330156       0.86223400       0.09907321 </v>
    <v>       0.39421560       0.13709439       0.12013290 </v>
    <v>       0.35918505       0.89881565       0.87120893 </v>
    <v>       0.64882892       0.62292434       0.38359911 </v>
    <v>       0.62994492       0.37624860       0.62383928 </v>
    <v>       0.40551850       0.64115319       0.62619540 </v>
    <v>       0.39006198       0.39595860       0.37312089 </v>
    <v>       0.75597277       0.75307217       0.76209612 </v>
    <v>       0.76255407       0.24590393       0.24330607 </v>
    <v>       0.25219157       0.75877385       0.25128689 </v>
    <v>       0.25700242       0.26486846       0.74527676 </v>
    <v>       0.00017875       0.01752252       0.98717059 </v>
    <v>       0.01690781       0.52875556       0.49108974 </v>
    <v>       0.52086882       0.00153412       0.45506009 </v>
    <v>       0.49402857       0.49493724       0.97275783 </v>
   </varray>
  </structure>
  <varray name="forces" >
   <v>      -0.00005401      -0.00109164      -0.00043967 </v>
   <v>       0.00026836       0.00023640       0.00003131 </v>
   <v>       0.00024702      -0.00004098      -0.00067023 </v>
   <v>      -0.00012004      -0.00029405      -0.00029841 </v>
   <v>       0.00165426       0.00100303       0.00012211 </v>
   <v>      -0.00004052      -0.00002581      -0.00023690 </v>
   <v>      -0.00032104       0.00038821      -0.00008224 </v>
   <v>       0.00072054       0.00018555      -0.00018493 </v>
   <v>       0.00000381      -0.00009203       0.00040335 </v>
   <v>      -0.00177602       0.00053961       0.00073355 </v>
   <v>      -0.00073555       0.00012071       0.00003635 </v>
   <v>      -0.00023984      -0.00016025      -0.00007094 </v>
   <v>       0.00028485      -0.00030918      -0.00005858 </v>
   <v>       0.00037758      -0.00046540       0.00020743 </v>
   <v>      -0.00005569      -0.00023284      -0.00007995 </v>
   <v>       0.00034173      -0.00027602       0.00029063 </v>
   <v>      -0.00000877       0.00039003      -0.00056649 </v>
   <v>      -0.00041767      -0.00010420      -0.00022877 </v>
   <v>       0.00031625      -0.00020183      -0.00016721 </v>
   <v>      -0.00015354       0.00006418      -0.00004233 </v>
   <v>       0.00012433       0.00041247      -0.00027025 </v>
   <v>      -0.00002183      -0.00015653      -0.00039858 </v>
   <v>       0.00013567       0.00052624       0.00047712 </v>
   <v>       0.00008836       0.00036739       0.00103175 </v>
   <v>       0.00061003       0.00110796       0.00088387 </v>
   <v>      -0.00049926      -0.00034167      -0.00105627 </v>
   <v>      -0.00019447       0.00022194      -0.00148459 </v>
   <v>       0.00059727       0.00163606       0.00060405 </v>
   <v>       0.00104593      -0.00038613       0.00013231 </v>
   <v>      -0.00014696       0.00014916       0.00016579 </v>
   <v>      -0.00057726      -0.00078991      -0.00107371 </v>
   <v>       0.00063986      -0.00035466      -0.00007790 </v>
   <v>      -0.00094238      -0.00029748      -0.00010521 </v>
   <v>      -0.00017279      -0.00045149      -0.00072300 </v>
   <v>      -0.00065888      -0.00087855       0.00039543 </v>
   <v>       0.00026533      -0.00125871       0.00115043 </v>
   <v>      -0.00044965       0.00004777       0.00026636 </v>
   <v>       0.00029363      -0.00062499      -0.00020617 </v>
   <v>      -0.00034255       0.00095282       0.00153811 </v>
   <v>      -0.00017243       0.00075441      -0.00004005 </v>
   <v>       0.00075798       0.00020181      -0.00103039 </v>
   <v>       0.00012881       0.00008079      -0.00032228 </v>
   <v>       0.00057660       0.00050604      -0.00001637 </v>
   <v>      -0.00085604      -0.00018697      -0.00023401 </v>
   <v>      -0.00003083      -0.00004543      -0.00012674 </v>
   <v>       0.00014614      -0.00001972       0.00016450 </v>
   <v>      -0.00014057      -0.00002613      -0.00017169 </v>
   <v>      -0.00008399       0.00010326      -0.00018304 </v>
   <v>      -0.00033085      -0.00048820       0.00020646 </v>
   <v>       0.00005745      -0.00053074      -0.00024312 </v>
   <v>      -0.00024777      -0.00024993       0.00109891 </v>
   <v>       0.00010942       0.00038563       0.00095019 </v>
  </varray>
  <varray name="stress" >
   <v>       0.48388803      -4.66234253       1.84625100 </v>
   <v>      -4.66234165       0.99619729      -0.41159291 </v>
   <v>       1.84625056      -0.41159393      -1.39390345 </v>
  </varray>
  <energy>
   <i name="e_fr_energy">   -272.09598908 </i>
   <i name="e_wo_entrp">   -272.09598908 </i>
   <i name="e_0_energy">   -272.09598908 </i>
  </energy>
  <time name="totalsc">   63.86   64.47</time>
 </calculation>
 <calculation>
  <scstep>
   <time name="dav">    2.42    2.46</time>
   <time name="total">    2.94    2.99</time>
   <energy>
    <i name="alphaZ">    300.29352271 </i>
    <i name="ewald">  -8800.25987487 </i>
    <i name="hartreedc">  -2221.02429007 </i>
    <i name="XCdc">    537.81254699 </i>
    <i name="pawpsdc">   9821.86279397 </i>
    <i name="pawaedc">  -9965.89751904 </i>
    <i name="eentropy">     -0.00000000 </i>
    <i name="bandstr">  -2634.49232384 </i>
    <i name="atom">  12703.13999606 </i>
    <i name="e_fr_energy">   -258.56514810 </i>
    <i name="e_wo_entrp">   -258.56514810 </i>
    <i name="e_0_energy">   -258.56514810 </i>
   </energy>
  </scstep>
  <scstep>
   <time name="diag">    0.36    0.37</time>
   <time name="diis">    0.82    0.83</time>
   <time name="orth">    0.07    0.07</time>
   <time name="total">    1.70    1.72</time>
   <energy>
    <i name="alphaZ">    300.29352271 </i>
    <i name="ewald">  -8800.25987487 </i>
    <i name="hartreedc">  -2221.02571611 </i>
    <i name="XCdc">    537.81236538 </i>
    <i name="pawpsdc">   9821.83183964 </i>
    <i name="pawaedc">  -9965.86612070 </i>
    <i name="eentropy">     -0.00000000 </i>
    <i name="bandstr">  -2634.49116038 </i>
    <i name="atom">  12703.13999606 </i>
    <i name="e_fr_energy">   -258.56514827 </i>
    <i name="e_wo_entrp">   -258.56514827 </i>
    <i name="e_0_energy">   -258.56514827 </i>
   </energy>
  </scstep>
  <structure>
   <crystal>
    <varray name="basis" >
     <v>       9.66908316       0.00000000       0.00000000 </v>
     <v>       0.00000000       9.66908316       0.00000000 </v>
     <v>       0.00000000       0.00000000       9.66908316 </v>
    </varray>
    <i name="volume">    903.97388937 </i>
    <varray name="rec_basis" >
     <v>       0.10342242       0.00000000       0.00000000 </v>
     <v>       0.00000000       0.10342242       0.00000000 </v>
     <v>       0.00000000       0.00000000       0.10342242 </v>
    </varray>
   </crystal>
   <varray name="positions" >
    <v>       0.99050944       0.18005480       0.20553126 </v>
    <v>       0.96823141       0.68038498       0.68219885 </v>
    <v>       0.04717920       0.32910153       0.64131381 </v>
    <v>       0.02087885       0.69857933       0.28848095 </v>
    <v>       0.21412700       0.22676866       0.97569656 </v>
    <v>       0.18249819       0.83500833       0.03593216 </v>
    <v>       0.79504516       0.21229080       0.00971730 </v>
    <v>       0.83139709       0.80213061       0.98736017 </v>
    <v>       0.30933898       0.98599918       0.30249841 </v>
    <v>       0.17632812       0.04103551       0.77629329 </v>
    <v>       0.82205906       0.98014553       0.78569779 </v>
    <v>       0.69330938       0.02016008       0.26628442 </v>
    <v>       0.21957733       0.67793862       0.47603161 </v>
    <v>       0.34697273       0.19956230       0.53072879 </v>
    <v>       0.68985207       0.81768515       0.53914734 </v>
    <v>       0.69322173       0.19525564       0.47162009 </v>
    <v>       0.29257237       0.49714760       0.79622124 </v>
    <v>       0.31679416       0.54318577       0.16655229 </v>
    <v>       0.83633427       0.45814893       0.32987989 </v>
    <v>       0.71695217       0.52087692       0.81171957 </v>
    <v>       0.48350523       0.29843781       0.80985745 </v>
    <v>       0.48573027       0.77694864       0.29167106 </v>
    <v>       0.54888178       0.33389248       0.18005271 </v>
    <v>       0.52865424       0.72419619       0.84007948 </v>
    <v>       0.51612721       0.50823915       0.50250321 </v>
    <v>       0.49779493       0.00480505       0.99034026 </v>
    <v>       0.00307643       0.50075833       0.99989533 </v>
    <v>       0.00767308       0.00247489       0.49216787 </v>
    <v>       0.12099961       0.87145039       0.61358170 </v>
    <v>       0.13968511       0.13418847       0.38902005 </v>
    <v>       0.88148115       0.88862601       0.36550643 </v>
    <v>       0.88906383       0.13158228       0.61276556 </v>
    <v>       0.86253798       0.60316234       0.12131854 </v>
    <v>       0.90469969       0.37421279       0.86107802 </v>
    <v>       0.11783481       0.64138207       0.88888740 </v>
    <v>       0.12481498       0.38683537       0.13201073 </v>
    <v>       0.62828182       0.11439710       0.86356502 </v>
    <v>       0.61330215       0.86223276       0.09907280 </v>
    <v>       0.39421491       0.13709629       0.12013597 </v>
    <v>       0.35918471       0.89881716       0.87120885 </v>
    <v>       0.64883043       0.62292474       0.38359705 </v>
    <v>       0.62994518       0.37624876       0.62383863 </v>
    <v>       0.40551966       0.64115420       0.62619536 </v>
    <v>       0.39006027       0.39595822       0.37312042 </v>
    <v>       0.75597271       0.75307208       0.76209587 </v>
    <v>       0.76255436       0.24590389       0.24330640 </v>
    <v>       0.25219129       0.75877380       0.25128654 </v>
    <v>       0.25700225       0.26486866       0.74527639 </v>
    <v>       0.00017809       0.01752155       0.98717100 </v>
    <v>       0.01690792       0.52875450       0.49108926 </v>
    <v>       0.52086833       0.00153362       0.45506229 </v>
    <v>       0.49402878       0.49493801       0.97275973 </v>
   </varray>
  </structure>
  <varray name="forces" >
   <v>      -0.00007643      -0.00071013      -0.00023396 </v>
   <v>       0.00012210       0.00012358      -0.00002793 </v>
   <v>       0.00017037      -0.00000858      -0.00037618 </v>
   <v>      -0.00010772      -0.00018553      -0.00011430 </v>
   <v>       0.00102143       0.00060460       0.00016870 </v>
   <v>      -0.00003859      -0.00000972      -0.00003420 </v>
   <v>      -0.00020221       0.00018875       0.00005176 </v>
   <v>       0.00042460       0.00009770      -0.00004646 </v>
   <v>       0.00002501      -0.00006799       0.00025718 </v>
   <v>      -0.00109851       0.00030711       0.00046943 </v>
   <v>      -0.00041972       0.00000253       0.00007398 </v>
   <v>      -0.00012481      -0.00014831       0.00001431 </v>
   <v>       0.00011340      -0.00023087      -0.00004038 </v>
   <v>       0.00028186      -0.00030384       0.00015529 </v>
   <v>       0.00000281      -0.00015560      -0.00005900 </v>
   <v>       0.00013074      -0.00020873       0.00013647 </v>
   <v>       0.00000503       0.00013811      -0.00024175 </v>
   <v>      -0.00026631      -0.00012203      -0.00006209 </v>
   <v>       0.00020500      -0.00015552      -0.00005386 </v>
   <v>      -0.00012100       0.00003347       0.00003913 </v>
   <v>       0.00004775       0.00019319      -0.00006694 </v>
   <v>       0.00001202      -0.00009572      -0.00016742 </v>
   <v>       0.00004650       0.00029482       0.00035954 </v>
   <v>       0.00009280       0.00019511       0.00071994 </v>
   <v>       0.00030801       0.00058129       0.00011771 </v>
   <v>      -0.00047129       0.00002580       0.00014152 </v>
   <v>      -0.00022091      -0.00047695      -0.00029726 </v>
   <v>       0.00023916       0.00017880       0.00011655 </v>
   <v>       0.00035857      -0.00012454      -0.00002528 </v>
   <v>       0.00016499       0.00017180      -0.00014033 </v>
   <v>       0.00000488      -0.00011445      -0.00008206 </v>
   <v>       0.00005760      -0.00011087       0.00030620 </v>
   <v>      -0.00025931      -0.00018973      -0.00019336 </v>
   <v>      -0.00025609      -0.00038829      -0.00043186 </v>
   <v>      -0.00007675      -0.00020825      -0.00001760 </v>
   <v>      -0.00012680      -0.00043363       0.00021412 </v>
   <v>      -0.00011418       0.00025402       0.00017298 </v>
   <v>       0.00001499      -0.00005912      -0.00004501 </v>
   <v>       0.00007862       0.00017719       0.00064285 </v>
   <v>      -0.00042368       0.00018979      -0.00014953 </v>
   <v>       0.00028269       0.00018374      -0.00046853 </v>
   <v>       0.00004462      -0.00002485       0.00001425 </v>
   <v>       0.00011374       0.00037429       0.00018339 </v>
   <v>      -0.00012604       0.00017644       0.00023536 </v>
   <v>       0.00009658      -0.00001963       0.00000672 </v>
   <v>      -0.00005517      -0.00030369       0.00007922 </v>
   <v>      -0.00002331      -0.00001516       0.00004186 </v>
   <v>       0.00009979       0.00008548       0.00018948 </v>
   <v>      -0.00017942      -0.00003347      -0.00032506 </v>
   <v>       0.00015825       0.00076701       0.00008402 </v>
   <v>       0.00045033      -0.00002347      -0.00078014 </v>
   <v>      -0.00038599      -0.00041597      -0.00051146 </v>
  </varray>
  <varray name="stress" >
   <v>       0.47455680      -4.66108831       1.84335390 </v>
   <v>      -4.66108737       0.98689309      -0.41279626 </v>
   <v>       1.84335372      -0.41279732      -1.40392087 </v>
  </varray>
  <energy>
   <i name="e_fr_energy">   -272.09599022 </i>
   <i name="e_wo_entrp">   -272.09599022 </i>
   <i name="e_0_energy">   -272.09599022 </i>
  </energy>
  <time name="totalsc">    7.74    7.84</time>
 </calculation>
 <calculation>
  <scstep>
   <time name="dav">    2.09    2.11</time>
   <time name="total">    2.61    2.63</time>
   <energy>
    <i name="alphaZ">    300.29352271 </i>
    <i name="ewald">  -8800.26637068 </i>
    <i name="hartreedc">  -2221.02112274 </i>
    <i name="XCdc">    537.81209758 </i>
    <i name="pawpsdc">   9821.81060445 </i>
    <i name="pawaedc">  -9965.84445409 </i>
    <i name="eentropy">     -0.00000000 </i>
    <i name="bandstr">  -2634.48942162 </i>
    <i name="atom">  12703.13999606 </i>
    <i name="e_fr_energy">   -258.56514834 </i>
    <i name="e_wo_entrp">   -258.56514834 </i>
    <i name="e_0_energy">   -258.56514834 </i>
   </energy>
  </scstep>
  <scstep>
   <time name="diag">    0.36    0.37</time>
   <time name="diis">    0.80    0.81</time>
   <time name="orth">    0.07    0.07</time>
   <time name="total">    1.68    1.70</time>
   <energy>
    <i name="alphaZ">    300.29352271 </i>
    <i name="ewald">  -8800.26637068 </i>
    <i name="hartreedc">  -2221.02073717 </i>
    <i name="XCdc">    537.81198081 </i>
    <i name="pawpsdc">   9821.79275248 </i>
    <i name="pawaedc">  -9965.82640323 </i>
    <i name="eentropy">     -0.00000000 </i>
    <i name="bandstr">  -2634.48988932 </i>
    <i name="atom">  12703.13999606 </i>
    <i name="e_fr_energy">   -258.56514834 </i>
    <i name="e_wo_entrp">   -258.56514834 </i>
    <i name="e_0_energy">   -258.56514834 </i>
   </energy>
  </scstep>
  <structure>
   <crystal>
    <varray name="basis" >
     <v>       9.66908316       0.00000000       0.00000000 </v>
     <v>       0.00000000       9.66908316       0.00000000 </v>
     <v>       0.00000000       0.00000000       9.66908316 </v>
    </varray>
    <i name="volume">    903.97388937 </i>
    <varray name="rec_basis" >
     <v>       0.10342242       0.00000000       0.00000000 </v>
     <v>       0.00000000       0.10342242       0.00000000 </v>
     <v>       0.00000000       0.00000000       0.10342242 </v>
    </varray>
   </crystal>
   <varray name="positions" >
    <v>       0.99050939       0.18005385       0.20553087 </v>
    <v>       0.96823164       0.68038519       0.68219888 </v>
    <v>       0.04717942       0.32910150       0.64131323 </v>
    <v>       0.02087874       0.69857908       0.28848069 </v>
    <v>       0.21412845       0.22676954       0.97569667 </v>
    <v>       0.18249815       0.83500831       0.03593195 </v>
    <v>       0.79504487       0.21229114       0.00971722 </v>
    <v>       0.83139773       0.80213078       0.98736001 </v>
    <v>       0.30933898       0.98599910       0.30249877 </v>
    <v>       0.17632657       0.04103598       0.77629393 </v>
    <v>       0.82205841       0.98014564       0.78569782 </v>
    <v>       0.69330917       0.02015993       0.26628436 </v>
    <v>       0.21957758       0.67793835       0.47603156 </v>
    <v>       0.34697306       0.19956189       0.53072897 </v>
    <v>       0.68985202       0.81768494       0.53914727 </v>
    <v>       0.69322203       0.19525540       0.47162035 </v>
    <v>       0.29257236       0.49714794       0.79622075 </v>
    <v>       0.31679379       0.54318568       0.16655209 </v>
    <v>       0.83633455       0.45814875       0.32987974 </v>
    <v>       0.71695204       0.52087698       0.81171953 </v>
    <v>       0.48350534       0.29843817       0.80985721 </v>
    <v>       0.48573025       0.77694850       0.29167071 </v>
    <v>       0.54888190       0.33389294       0.18005313 </v>
    <v>       0.52865431       0.72419652       0.84008038 </v>
    <v>       0.51612774       0.50824012       0.50250399 </v>
    <v>       0.49779450       0.00480475       0.99033934 </v>
    <v>       0.00307626       0.50075852       0.99989403 </v>
    <v>       0.00767360       0.00247632       0.49216840 </v>
    <v>       0.12100053       0.87145005       0.61358182 </v>
    <v>       0.13968498       0.13418860       0.38902020 </v>
    <v>       0.88148064       0.88862531       0.36550549 </v>
    <v>       0.88906439       0.13158197       0.61276549 </v>
    <v>       0.86253716       0.60316208       0.12131844 </v>
    <v>       0.90469953       0.37421240       0.86107739 </v>
    <v>       0.11783423       0.64138130       0.88888775 </v>
    <v>       0.12481522       0.38683427       0.13201174 </v>
    <v>       0.62828143       0.11439714       0.86356526 </v>
    <v>       0.61330241       0.86223221       0.09907262 </v>
    <v>       0.39421461       0.13709713       0.12013732 </v>
    <v>       0.35918456       0.89881782       0.87120881 </v>
    <v>       0.64883110       0.62292492       0.38359615 </v>
    <v>       0.62994529       0.37624883       0.62383835 </v>
    <v>       0.40552016       0.64115464       0.62619535 </v>
    <v>       0.39005952       0.39595806       0.37312022 </v>
    <v>       0.75597268       0.75307204       0.76209576 </v>
    <v>       0.76255449       0.24590387       0.24330654 </v>
    <v>       0.25219117       0.75877377       0.25128639 </v>
    <v>       0.25700218       0.26486875       0.74527623 </v>
    <v>       0.00017780       0.01752112       0.98717118 </v>
    <v>       0.01690797       0.52875403       0.49108905 </v>
    <v>       0.52086811       0.00153340       0.45506325 </v>
    <v>       0.49402888       0.49493835       0.97276056 </v>
   </varray>
  </structure>
  <varray name="forces" >
   <v>      -0.00008530      -0.00098921      -0.00036544 </v>
   <v>       0.00016273       0.00016888      -0.00004969 </v>
   <v>       0.00021912       0.00000857      -0.00054529 </v>
   <v>      -0.00012772      -0.00023994      -0.00020206 </v>
   <v>       0.00145792       0.00088203       0.00020763 </v>
   <v>      -0.00005031       0.00000509      -0.00005897 </v>
   <v>      -0.00026599       0.00028180       0.00004163 </v>
   <v>       0.00054978       0.00014480      -0.00007221 </v>
   <v>       0.00002376      -0.00008529       0.00033509 </v>
   <v>      -0.00156921       0.00044089       0.00065375 </v>
   <v>      -0.00057144       0.00003214       0.00007151 </v>
   <v>      -0.00019016      -0.00018841      -0.00003744 </v>
   <v>       0.00017917      -0.00028585      -0.00008714 </v>
   <v>       0.00036584      -0.00038636       0.00016895 </v>
   <v>      -0.00000901      -0.00016734      -0.00009128 </v>
   <v>       0.00018721      -0.00024504       0.00016719 </v>
   <v>      -0.00000704       0.00023355      -0.00038512 </v>
   <v>      -0.00031610      -0.00013924      -0.00010798 </v>
   <v>       0.00027460      -0.00019387      -0.00009395 </v>
   <v>      -0.00013231       0.00005535       0.00002913 </v>
   <v>       0.00009001       0.00029009      -0.00014743 </v>
   <v>      -0.00000043      -0.00014925      -0.00030408 </v>
   <v>       0.00006894       0.00042169       0.00043803 </v>
   <v>       0.00013086       0.00030416       0.00098412 </v>
   <v>       0.00020281       0.00034469      -0.00026504 </v>
   <v>      -0.00040449       0.00019127       0.00054507 </v>
   <v>      -0.00023858      -0.00072114       0.00018676 </v>
   <v>       0.00011467      -0.00034424      -0.00015052 </v>
   <v>       0.00039649      -0.00000407      -0.00007442 </v>
   <v>       0.00017160       0.00024687      -0.00011438 </v>
   <v>       0.00015803       0.00003564       0.00004286 </v>
   <v>       0.00007411      -0.00003421       0.00034762 </v>
   <v>      -0.00023035      -0.00024952      -0.00033131 </v>
   <v>      -0.00024810      -0.00037390      -0.00051164 </v>
   <v>      -0.00004485      -0.00016599      -0.00008841 </v>
   <v>      -0.00027473      -0.00032763       0.00007433 </v>
   <v>      -0.00018992       0.00025964       0.00010334 </v>
   <v>      -0.00004033      -0.00004576      -0.00019304 </v>
   <v>       0.00016171       0.00006205       0.00051595 </v>
   <v>      -0.00045819       0.00021032      -0.00027679 </v>
   <v>       0.00025378       0.00014081      -0.00043811 </v>
   <v>       0.00009567       0.00001902      -0.00001669 </v>
   <v>       0.00016885       0.00048728       0.00019496 </v>
   <v>      -0.00003035       0.00030507       0.00035200 </v>
   <v>       0.00006602      -0.00000675      -0.00002493 </v>
   <v>      -0.00004921      -0.00027206       0.00007587 </v>
   <v>      -0.00001685       0.00000848       0.00001524 </v>
   <v>       0.00010601       0.00007616       0.00014299 </v>
   <v>      -0.00028681      -0.00023038      -0.00025875 </v>
   <v>       0.00016839       0.00051567      -0.00000403 </v>
   <v>       0.00030052      -0.00011742      -0.00026758 </v>
   <v>      -0.00031081      -0.00020916      -0.00013031 </v>
  </varray>
  <varray name="stress" >
   <v>       0.47055931      -4.66054400       1.84230667 </v>
   <v>      -4.66054324       0.98274178      -0.41315651 </v>
   <v>       1.84230641      -0.41315758      -1.40832635 </v>
  </varray>
  <energy>
   <i name="e_fr_energy">   -272.09599046 </i>
   <i name="e_wo_entrp">   -272.09599046 </i>
   <i name="e_0_energy">   -272.09599046 </i>
  </energy>
  <time name="totalsc">    7.37    7.45</time>
 </calculation>
 <calculation>
  <scstep>
   <time name="dav">    2.31    2.33</time>
   <time name="total">    2.83    2.85</time>
   <energy>
    <i name="alphaZ">    300.29352271 </i>
    <i name="ewald">  -8800.27936138 </i>
    <i name="hartreedc">  -2221.00996476 </i>
    <i name="XCdc">    537.81167865 </i>
    <i name="pawpsdc">   9821.78306971 </i>
    <i name="pawaedc">  -9965.81662504 </i>
    <i name="eentropy">     -0.00000000 </i>
    <i name="bandstr">  -2634.48746433 </i>
    <i name="atom">  12703.13999606 </i>
    <i name="e_fr_energy">   -258.56514837 </i>
    <i name="e_wo_entrp">   -258.56514837 </i>
    <i name="e_0_energy">   -258.56514837 </i>
   </energy>
  </scstep>
  <scstep>
   <time name="diag">    0.36    0.37</time>
   <time name="diis">    0.79    0.80</time>
   <time name="orth">    0.07    0.07</time>
   <time name="total">    1.67    1.68</time>
   <energy>
    <i name="alphaZ">    300.29352271 </i>
    <i name="ewald">  -8800.27936138 </i>
    <i name="hartreedc">  -2221.00918345 </i>
    <i name="XCdc">    537.81161614 </i>
    <i name="pawpsdc">   9821.76856661 </i>
    <i name="pawaedc">  -9965.80205078 </i>
    <i name="eentropy">     -0.00000000 </i>
    <i name="bandstr">  -2634.48825431 </i>
    <i name="atom">  12703.13999606 </i>
    <i name="e_fr_energy">   -258.56514841 </i>
    <i name="e_wo_entrp">   -258.56514841 </i>
    <i name="e_0_energy">   -258.56514841 </i>
   </energy>
  </scstep>
  <structure>
   <crystal>
    <varray name="basis" >
     <v>       9.66908316       0.00000000       0.00000000 </v>
     <v>       0.00000000       9.66908316       0.00000000 </v>
     <v>       0.00000000       0.00000000       9.66908316 </v>
    </varray>
    <i name="volume">    903.97388937 </i>
    <varray name="rec_basis" >
     <v>       0.10342242       0.00000000       0.00000000 </v>
     <v>       0.00000000       0.10342242       0.00000000 </v>
     <v>       0.00000000       0.00000000       0.10342242 </v>
    </varray>
   </crystal>
   <varray name="positions" >
    <v>       0.99050930       0.18005194       0.20553010 </v>
    <v>       0.96823211       0.68038560       0.68219893 </v>
    <v>       0.04717985       0.32910143       0.64131205 </v>
    <v>       0.02087853       0.69857856       0.28848016 </v>
    <v>       0.21413135       0.22677130       0.97569688 </v>
    <v>       0.18249808       0.83500827       0.03593153 </v>
    <v>       0.79504431       0.21229182       0.00971708 </v>
    <v>       0.83139899       0.80213110       0.98735968 </v>
    <v>       0.30933899       0.98599894       0.30249947 </v>
    <v>       0.17632345       0.04103693       0.77629522 </v>
    <v>       0.82205712       0.98014585       0.78569788 </v>
    <v>       0.69330875       0.02015965       0.26628423 </v>
    <v>       0.21957808       0.67793781       0.47603146 </v>
    <v>       0.34697373       0.19956107       0.53072934 </v>
    <v>       0.68985192       0.81768453       0.53914713 </v>
    <v>       0.69322263       0.19525492       0.47162086 </v>
    <v>       0.29257235       0.49714863       0.79621975 </v>
    <v>       0.31679306       0.54318550       0.16655169 </v>
    <v>       0.83633510       0.45814840       0.32987945 </v>
    <v>       0.71695177       0.52087709       0.81171946 </v>
    <v>       0.48350555       0.29843889       0.80985674 </v>
    <v>       0.48573021       0.77694823       0.29167001 </v>
    <v>       0.54888214       0.33389386       0.18005396 </v>
    <v>       0.52865447       0.72419716       0.84008219 </v>
    <v>       0.51612881       0.50824207       0.50250554 </v>
    <v>       0.49779362       0.00480415       0.99033749 </v>
    <v>       0.00307591       0.50075891       0.99989142 </v>
    <v>       0.00767465       0.00247919       0.49216946 </v>
    <v>       0.12100236       0.87144937       0.61358205 </v>
    <v>       0.13968472       0.13418886       0.38902049 </v>
    <v>       0.88147963       0.88862393       0.36550361 </v>
    <v>       0.88906551       0.13158135       0.61276535 </v>
    <v>       0.86253551       0.60316156       0.12131826 </v>
    <v>       0.90469923       0.37421160       0.86107612 </v>
    <v>       0.11783308       0.64137976       0.88888844 </v>
    <v>       0.12481568       0.38683206       0.13201376 </v>
    <v>       0.62828064       0.11439723       0.86356572 </v>
    <v>       0.61330292       0.86223111       0.09907226 </v>
    <v>       0.39421401       0.13709880       0.12014001 </v>
    <v>       0.35918425       0.89881914       0.87120874 </v>
    <v>       0.64883242       0.62292527       0.38359434 </v>
    <v>       0.62994552       0.37624898       0.62383779 </v>
    <v>       0.40552117       0.64115553       0.62619532 </v>
    <v>       0.39005802       0.39595773       0.37311981 </v>
    <v>       0.75597263       0.75307196       0.76209553 </v>
    <v>       0.76255475       0.24590384       0.24330683 </v>
    <v>       0.25219092       0.75877373       0.25128609 </v>
    <v>       0.25700203       0.26486893       0.74527591 </v>
    <v>       0.00017722       0.01752027       0.98717155 </v>
    <v>       0.01690807       0.52875310       0.49108862 </v>
    <v>       0.52086768       0.00153296       0.45506518 </v>
    <v>       0.49402907       0.49493902       0.97276223 </v>
   </varray>
  </structure>
  <varray name="forces" >
   <v>      -0.00008136      -0.00076778      -0.00025891 </v>
   <v>       0.00010235       0.00011639      -0.00007931 </v>
   <v>       0.00018701       0.00000917      -0.00041705 </v>
   <v>      -0.00013527      -0.00022611      -0.00014432 </v>
   <v>       0.00112578       0.00066075       0.00027713 </v>
   <v>      -0.00005762      -0.00000631       0.00005653 </v>
   <v>      -0.00022890       0.00020853       0.00011617 </v>
   <v>       0.00042375       0.00008074       0.00001358 </v>
   <v>       0.00003269      -0.00009843       0.00030197 </v>
   <v>      -0.00120324       0.00028960       0.00051278 </v>
   <v>      -0.00048149      -0.00003924       0.00009420 </v>
   <v>      -0.00015269      -0.00021034      -0.00000032 </v>
   <v>       0.00011865      -0.00028510      -0.00009462 </v>
   <v>       0.00032614      -0.00032542       0.00013777 </v>
   <v>       0.00003164      -0.00014863      -0.00010645 </v>
   <v>       0.00011355      -0.00024384       0.00010221 </v>
   <v>       0.00000075       0.00011601      -0.00029157 </v>
   <v>      -0.00027271      -0.00019998      -0.00002040 </v>
   <v>       0.00024502      -0.00020067      -0.00006447 </v>
   <v>      -0.00010490       0.00001532       0.00006986 </v>
   <v>       0.00005984       0.00021859      -0.00007515 </v>
   <v>       0.00001179      -0.00016096      -0.00024443 </v>
   <v>       0.00001947       0.00031653       0.00041963 </v>
   <v>       0.00015120       0.00016971       0.00080142 </v>
   <v>      -0.00000524      -0.00010825      -0.00096777 </v>
   <v>      -0.00036919       0.00047142       0.00146583 </v>
   <v>      -0.00017069      -0.00001452       0.00051448 </v>
   <v>      -0.00013318      -0.00151653      -0.00060707 </v>
   <v>       0.00019024       0.00024944      -0.00022470 </v>
   <v>       0.00032917       0.00037571      -0.00018470 </v>
   <v>       0.00065296       0.00049382       0.00060171 </v>
   <v>      -0.00017380       0.00021794       0.00063511 </v>
   <v>      -0.00002458      -0.00040908      -0.00051307 </v>
   <v>      -0.00023555      -0.00036001      -0.00047539 </v>
   <v>       0.00026737       0.00019200      -0.00036594 </v>
   <v>      -0.00070680       0.00010797      -0.00040032 </v>
   <v>      -0.00009137       0.00031100      -0.00001956 </v>
   <v>      -0.00023249       0.00013509      -0.00032825 </v>
   <v>       0.00049479      -0.00042233       0.00006889 </v>
   <v>      -0.00066159      -0.00000364      -0.00048362 </v>
   <v>       0.00003803      -0.00002243      -0.00020017 </v>
   <v>       0.00015847      -0.00002076       0.00010393 </v>
   <v>       0.00006957       0.00061188       0.00033685 </v>
   <v>       0.00032553       0.00061817       0.00075364 </v>
   <v>       0.00004606      -0.00003275      -0.00002493 </v>
   <v>      -0.00002678      -0.00029019       0.00013500 </v>
   <v>      -0.00003905      -0.00001188      -0.00000570 </v>
   <v>       0.00009742       0.00007366       0.00010865 </v>
   <v>      -0.00021066      -0.00015907      -0.00029530 </v>
   <v>       0.00016520       0.00061512       0.00008890 </v>
   <v>       0.00034617      -0.00006913      -0.00047963 </v>
   <v>      -0.00033146      -0.00032120      -0.00034310 </v>
  </varray>
  <varray name="stress" >
   <v>       0.46752644      -4.65953097       1.83982485 </v>
   <v>      -4.65953028       0.97726821      -0.41289873 </v>
   <v>       1.83982448      -0.41290014      -1.41292432 </v>
  </varray>
  <energy>
   <i name="e_fr_energy">   -272.09599087 </i>
   <i name="e_wo_entrp">   -272.09599087 </i>
   <i name="e_0_energy">   -272.09599087 </i>
  </energy>
  <time name="totalsc">    7.59    7.66</time>
 </calculation>
 <calculation>
  <scstep>
   <time name="dav">    2.36    2.38</time>
   <time name="total">    2.88    2.90</time>
   <energy>
    <i name="alphaZ">    300.29352271 </i>
    <i name="ewald">  -8800.28597883 </i>
    <i name="hartreedc">  -2221.00375188 </i>
    <i name="XCdc">    537.81143115 </i>
    <i name="pawpsdc">   9821.75945899 </i>
    <i name="pawaedc">  -9965.79287949 </i>
    <i name="eentropy">     -0.00000000 </i>
    <i name="bandstr">  -2634.48694726 </i>
    <i name="atom">  12703.13999606 </i>
    <i name="e_fr_energy">   -258.56514855 </i>
    <i name="e_wo_entrp">   -258.56514855 </i>
    <i name="e_0_energy">   -258.56514855 </i>
   </energy>
  </scstep>
  <scstep>
   <time name="diag">    0.36    0.37</time>
   <time name="diis">    0.76    0.77</time>
   <time name="orth">    0.07    0.07</time>
   <time name="total">    1.65    1.66</time>
   <energy>
    <i name="alphaZ">    300.29352271 </i>
    <i name="ewald">  -8800.28597883 </i>
    <i name="hartreedc">  -2221.00335224 </i>
    <i name="XCdc">    537.81140399 </i>
    <i name="pawpsdc">   9821.75033115 </i>
    <i name="pawaedc">  -9965.78370873 </i>
    <i name="eentropy">     -0.00000000 </i>
    <i name="bandstr">  -2634.48736279 </i>
    <i name="atom">  12703.13999606 </i>
    <i name="e_fr_energy">   -258.56514867 </i>
    <i name="e_wo_entrp">   -258.56514867 </i>
    <i name="e_0_energy">   -258.56514867 </i>
   </energy>
  </scstep>
  <structure>
   <crystal>
    <varray name="basis" >
     <v>       9.66908316       0.00000000       0.00000000 </v>
     <v>       0.00000000       9.66908316       0.00000000 </v>
     <v>       0.00000000       0.00000000       9.66908316 </v>
    </varray>
    <i name="volume">    903.97388937 </i>
    <varray name="rec_basis" >
     <v>       0.10342242       0.00000000       0.00000000 </v>
     <v>       0.00000000       0.10342242       0.00000000 </v>
     <v>       0.00000000       0.00000000       0.10342242 </v>
    </varray>
   </crystal>
   <varray name="positions" >
    <v>       0.99050903       0.18004873       0.20552894 </v>
    <v>       0.96823268       0.68038617       0.68219877 </v>
    <v>       0.04718061       0.32910140       0.64131022 </v>
    <v>       0.02087805       0.69857765       0.28847946 </v>
    <v>       0.21413610       0.22677413       0.97569772 </v>
    <v>       0.18249789       0.83500822       0.03593140 </v>
    <v>       0.79504336       0.21229279       0.00971728 </v>
    <v>       0.83140089       0.80213152       0.98735950 </v>
    <v>       0.30933907       0.98599858       0.30250070 </v>
    <v>       0.17631836       0.04103828       0.77629736 </v>
    <v>       0.82205506       0.98014589       0.78569816 </v>
    <v>       0.69330809       0.02015894       0.26628415 </v>
    <v>       0.21957871       0.67793673       0.47603115 </v>
    <v>       0.34697499       0.19955971       0.53072992 </v>
    <v>       0.68985194       0.81768389       0.53914677 </v>
    <v>       0.69322331       0.19525398       0.47162145 </v>
    <v>       0.29257234       0.49714937       0.79621836 </v>
    <v>       0.31679189       0.54318487       0.16655137 </v>
    <v>       0.83633609       0.45814766       0.32987909 </v>
    <v>       0.71695133       0.52087721       0.81171959 </v>
    <v>       0.48350585       0.29843992       0.80985623 </v>
    <v>       0.48573021       0.77694764       0.29166893 </v>
    <v>       0.54888234       0.33389527       0.18005557 </v>
    <v>       0.52865495       0.72419801       0.84008541 </v>
    <v>       0.51612950       0.50824308       0.50250412 </v>
    <v>       0.49779211       0.00480494       0.99033996 </v>
    <v>       0.00307526       0.50075913       0.99989100 </v>
    <v>       0.00767500       0.00247726       0.49216863 </v>
    <v>       0.12100406       0.87144955       0.61358164 </v>
    <v>       0.13968538       0.13418998       0.38902022 </v>
    <v>       0.88148061       0.88862426       0.36550388 </v>
    <v>       0.88906582       0.13158149       0.61276686 </v>
    <v>       0.86253435       0.60316018       0.12131684 </v>
    <v>       0.90469844       0.37421017       0.86107409 </v>
    <v>       0.11783299       0.64137923       0.88888798 </v>
    <v>       0.12481421       0.38683088       0.13201408 </v>
    <v>       0.62827989       0.11439806       0.86356598 </v>
    <v>       0.61330268       0.86223073       0.09907119 </v>
    <v>       0.39421486       0.13709884       0.12014197 </v>
    <v>       0.35918239       0.89882001       0.87120748 </v>
    <v>       0.64883340       0.62292545       0.38359265 </v>
    <v>       0.62994607       0.37624902       0.62383768 </v>
    <v>       0.40552201       0.64115766       0.62619615 </v>
    <v>       0.39005785       0.39595907       0.37312144 </v>
    <v>       0.75597271       0.75307183       0.76209532 </v>
    <v>       0.76255485       0.24590309       0.24330736 </v>
    <v>       0.25219066       0.75877367       0.25128588 </v>
    <v>       0.25700218       0.26486924       0.74527597 </v>
    <v>       0.00017630       0.01751930       0.98717104 </v>
    <v>       0.01690855       0.52875404       0.49108856 </v>
    <v>       0.52086826       0.00153250       0.45506524 </v>
    <v>       0.49402836       0.49493866       0.97276246 </v>
   </varray>
  </structure>
  <varray name="forces" >
   <v>      -0.00005498      -0.00055595      -0.00017497 </v>
   <v>       0.00007515       0.00008793      -0.00003214 </v>
   <v>       0.00010000      -0.00000280      -0.00028814 </v>
   <v>      -0.00003681      -0.00015359      -0.00011522 </v>
   <v>       0.00081112       0.00049929       0.00011157 </v>
   <v>      -0.00000524      -0.00000515      -0.00003548 </v>
   <v>      -0.00015442       0.00015541       0.00001400 </v>
   <v>       0.00030424       0.00008100      -0.00006029 </v>
   <v>      -0.00001629      -0.00006446       0.00022002 </v>
   <v>      -0.00088111       0.00023480       0.00036630 </v>
   <v>      -0.00034932       0.00003971       0.00003340 </v>
   <v>      -0.00010959      -0.00006967      -0.00001538 </v>
   <v>       0.00011347      -0.00016744      -0.00003981 </v>
   <v>       0.00019571      -0.00020887       0.00011310 </v>
   <v>      -0.00001304      -0.00008689      -0.00002114 </v>
   <v>       0.00011663      -0.00012626       0.00011582 </v>
   <v>       0.00001079       0.00011002      -0.00022595 </v>
   <v>      -0.00019362      -0.00008106      -0.00004447 </v>
   <v>       0.00017121      -0.00015028      -0.00003294 </v>
   <v>      -0.00005154      -0.00001115       0.00001386 </v>
[...]
       <r>     7.9504    11.5227   144.2685 </r>
       <r>     8.1433    14.4613   147.0571 </r>
       <r>     8.3361    14.4032   149.8370 </r>
       <r>     8.5289    13.4984   152.4399 </r>
       <r>     8.7217    16.3990   155.6045 </r>
       <r>     8.9146    16.6253   158.8103 </r>
       <r>     9.1074    16.5801   162.0096 </r>
       <r>     9.3002    18.5300   165.5842 </r>
       <r>     9.4930    17.8374   169.0250 </r>
       <r>     9.6859    15.3307   171.9832 </r>
       <r>     9.8787    15.4788   174.9707 </r>
       <r>    10.0715     5.3375   176.0000 </r>
       <r>    10.2643     0.0000   176.0000 </r>
       <r>    10.4572     0.0000   176.0000 </r>
       <r>    10.6500     0.0000   176.0000 </r>
       <r>    10.8428     0.0000   176.0000 </r>
       <r>    11.0356     0.0000   176.0000 </r>
       <r>    11.2285     0.0000   176.0000 </r>
       <r>    11.4213     0.0000   176.0000 </r>
       <r>    11.6141     0.0000   176.0000 </r>
       <r>    11.8069     0.0000   176.0000 </r>
       <r>    11.9998     0.0000   176.0000 </r>
       <r>    12.1926     0.0000   176.0000 </r>
       <r>    12.3854     0.0000   176.0000 </r>
       <r>    12.5782     0.0000   176.0000 </r>
      </set>
      <set comment="spin 2">
       <r>   -45.2692     0.0000     0.0000 </r>
       <r>   -45.0764     0.0000     0.0000 </r>
       <r>   -44.8836     0.0000     0.0000 </r>
       <r>   -44.6908     0.0000     0.0000 </r>
       <r>   -44.4979     0.0000     0.0000 </r>
       <r>   -44.3051     0.0000     0.0000 </r>
       <r>   -44.1123     0.0000     0.0000 </r>
       <r>   -43.9195     0.0000     0.0000 </r>
       <r>   -43.7266     0.0000     0.0000 </r>
       <r>   -43.5338     0.0000     0.0000 </r>
       <r>   -43.3410     0.0000     0.0000 </r>
       <r>   -43.1482     0.0000     0.0000 </r>
       <r>   -42.9553     0.0000     0.0000 </r>
       <r>   -42.7625     0.0000     0.0000 </r>
       <r>   -42.5697     9.9825     1.9249 </r>
       <r>   -42.3769    75.1395    16.4141 </r>
       <r>   -42.1840    38.7242    23.8930 </r>
       <r>   -41.9912     0.5549    24.0000 </r>
       <r>   -41.7984     0.0000    24.0000 </r>
       <r>   -41.6056     0.0000    24.0000 </r>
       <r>   -41.4127     0.0000    24.0000 </r>
       <r>   -41.2199     0.0000    24.0000 </r>
       <r>   -41.0271     0.0000    24.0000 </r>
       <r>   -40.8343     0.0000    24.0000 </r>
       <r>   -40.6414     0.0000    24.0000 </r>
       <r>   -40.4486     0.0000    24.0000 </r>
       <r>   -40.2558     0.0000    24.0000 </r>
       <r>   -40.0630     0.0000    24.0000 </r>
       <r>   -39.8701     0.0000    24.0000 </r>
       <r>   -39.6773     0.0000    24.0000 </r>
       <r>   -39.4845     0.0000    24.0000 </r>
       <r>   -39.2917     0.0000    24.0000 </r>
       <r>   -39.0988     0.0000    24.0000 </r>
       <r>   -38.9060     0.0000    24.0000 </r>
       <r>   -38.7132     0.0000    24.0000 </r>
       <r>   -38.5204     0.0000    24.0000 </r>
       <r>   -38.3275     0.0000    24.0000 </r>
       <r>   -38.1347     0.0000    24.0000 </r>
       <r>   -37.9419     0.0000    24.0000 </r>
       <r>   -37.7491     0.0000    24.0000 </r>
       <r>   -37.5562     0.0000    24.0000 </r>
       <r>   -37.3634     0.0000    24.0000 </r>
       <r>   -37.1706     0.0000    24.0000 </r>
       <r>   -36.9778     0.0000    24.0000 </r>
       <r>   -36.7849     0.0000    24.0000 </r>
       <r>   -36.5921     0.0000    24.0000 </r>
       <r>   -36.3993     0.0000    24.0000 </r>
       <r>   -36.2065     0.0000    24.0000 </r>
       <r>   -36.0136     0.0000    24.0000 </r>
       <r>   -35.8208     0.0000    24.0000 </r>
       <r>   -35.6280     0.0000    24.0000 </r>
       <r>   -35.4352     0.0000    24.0000 </r>
       <r>   -35.2423     0.0000    24.0000 </r>
       <r>   -35.0495     0.0000    24.0000 </r>
       <r>   -34.8567     0.0000    24.0000 </r>
       <r>   -34.6639     0.0000    24.0000 </r>
       <r>   -34.4710     0.0000    24.0000 </r>
       <r>   -34.2782     0.0000    24.0000 </r>
       <r>   -34.0854     0.0000    24.0000 </r>
       <r>   -33.8926     0.0000    24.0000 </r>
       <r>   -33.6997     0.0000    24.0000 </r>
       <r>   -33.5069     0.0000    24.0000 </r>
       <r>   -33.3141     0.0000    24.0000 </r>
       <r>   -33.1213     0.0000    24.0000 </r>
       <r>   -32.9284     0.0000    24.0000 </r>
       <r>   -32.7356     0.0000    24.0000 </r>
       <r>   -32.5428     0.0000    24.0000 </r>
       <r>   -32.3500     0.0000    24.0000 </r>
       <r>   -32.1571     0.0000    24.0000 </r>
       <r>   -31.9643     0.0000    24.0000 </r>
       <r>   -31.7715     0.0000    24.0000 </r>
       <r>   -31.5787     0.0000    24.0000 </r>
       <r>   -31.3858     0.0000    24.0000 </r>
       <r>   -31.1930     0.0000    24.0000 </r>
       <r>   -31.0002     0.0000    24.0000 </r>
       <r>   -30.8074     0.0000    24.0000 </r>
       <r>   -30.6145     0.0000    24.0000 </r>
       <r>   -30.4217     0.0000    24.0000 </r>
       <r>   -30.2289     0.0000    24.0000 </r>
       <r>   -30.0361     0.0000    24.0000 </r>
       <r>   -29.8432     0.0000    24.0000 </r>
       <r>   -29.6504     0.0000    24.0000 </r>
       <r>   -29.4576     0.0000    24.0000 </r>
       <r>   -29.2648     0.0000    24.0000 </r>
       <r>   -29.0719     0.0000    24.0000 </r>
       <r>   -28.8791     0.0000    24.0000 </r>
       <r>   -28.6863     0.0000    24.0000 </r>
       <r>   -28.4935     0.0000    24.0000 </r>
       <r>   -28.3006     0.0000    24.0000 </r>
       <r>   -28.1078     0.0000    24.0000 </r>
       <r>   -27.9150     0.0000    24.0000 </r>
       <r>   -27.7222     0.0000    24.0000 </r>
       <r>   -27.5293     0.0000    24.0000 </r>
       <r>   -27.3365     0.0000    24.0000 </r>
       <r>   -27.1437     0.0000    24.0000 </r>
       <r>   -26.9509     0.0000    24.0000 </r>
       <r>   -26.7580     0.0000    24.0000 </r>
       <r>   -26.5652     0.0000    24.0000 </r>
       <r>   -26.3724     0.0000    24.0000 </r>
       <r>   -26.1796     0.0000    24.0000 </r>
       <r>   -25.9867     0.0000    24.0000 </r>
       <r>   -25.7939     0.0000    24.0000 </r>
       <r>   -25.6011     0.0000    24.0000 </r>
       <r>   -25.4083     0.0000    24.0000 </r>
       <r>   -25.2155     0.0000    24.0000 </r>
       <r>   -25.0226     0.0000    24.0000 </r>
       <r>   -24.8298     0.0000    24.0000 </r>
       <r>   -24.6370     0.0000    24.0000 </r>
       <r>   -24.4442     0.0000    24.0000 </r>
       <r>   -24.2513     0.0000    24.0000 </r>
       <r>   -24.0585     0.0000    24.0000 </r>
       <r>   -23.8657     0.0000    24.0000 </r>
       <r>   -23.6729     0.0000    24.0000 </r>
       <r>   -23.4800     0.0000    24.0000 </r>
       <r>   -23.2872     0.0000    24.0000 </r>
       <r>   -23.0944     0.0000    24.0000 </r>
       <r>   -22.9016     0.0000    24.0000 </r>
       <r>   -22.7087     0.0000    24.0000 </r>
       <r>   -22.5159     0.0000    24.0000 </r>
       <r>   -22.3231     0.0000    24.0000 </r>
       <r>   -22.1303     0.0000    24.0000 </r>
       <r>   -21.9374     0.0000    24.0000 </r>
       <r>   -21.7446     0.0000    24.0000 </r>
       <r>   -21.5518     0.0000    24.0000 </r>
       <r>   -21.3590     0.0000    24.0000 </r>
       <r>   -21.1661     0.0000    24.0000 </r>
       <r>   -20.9733     0.0000    24.0000 </r>
       <r>   -20.7805     0.0000    24.0000 </r>
       <r>   -20.5877     0.0000    24.0000 </r>
       <r>   -20.3948     0.0000    24.0000 </r>
       <r>   -20.2020     0.0000    24.0000 </r>
       <r>   -20.0092     0.0000    24.0000 </r>
       <r>   -19.8164     0.0000    24.0000 </r>
       <r>   -19.6235     0.0000    24.0000 </r>
       <r>   -19.4307     0.0000    24.0000 </r>
       <r>   -19.2379     0.0000    24.0000 </r>
       <r>   -19.0451     0.0000    24.0000 </r>
       <r>   -18.8522     0.0000    24.0000 </r>
       <r>   -18.6594     0.0000    24.0000 </r>
       <r>   -18.4666     0.0000    24.0000 </r>
       <r>   -18.2738     0.0000    24.0000 </r>
       <r>   -18.0809     0.0000    24.0000 </r>
       <r>   -17.8881     0.0000    24.0000 </r>
       <r>   -17.6953     0.0000    24.0000 </r>
       <r>   -17.5025     0.0000    24.0000 </r>
       <r>   -17.3096     0.0000    24.0000 </r>
       <r>   -17.1168     0.0000    24.0000 </r>
       <r>   -16.9240     0.0000    24.0000 </r>
       <r>   -16.7312     0.0000    24.0000 </r>
       <r>   -16.5383     0.0000    24.0000 </r>
       <r>   -16.3455     0.0000    24.0000 </r>
       <r>   -16.1527     0.0000    24.0000 </r>
       <r>   -15.9599     0.0000    24.0000 </r>
       <r>   -15.7670     0.0000    24.0000 </r>
       <r>   -15.5742     0.0000    24.0000 </r>
       <r>   -15.3814     0.0000    24.0000 </r>
       <r>   -15.1886     0.0000    24.0000 </r>
       <r>   -14.9957     0.0000    24.0000 </r>
       <r>   -14.8029     0.0000    24.0000 </r>
       <r>   -14.6101     0.0000    24.0000 </r>
       <r>   -14.4173     0.0000    24.0000 </r>
       <r>   -14.2244     0.0000    24.0000 </r>
       <r>   -14.0316     0.0000    24.0000 </r>
       <r>   -13.8388     0.0000    24.0000 </r>
       <r>   -13.6460     0.0000    24.0000 </r>
       <r>   -13.4531     0.0000    24.0000 </r>
       <r>   -13.2603     0.0000    24.0000 </r>
       <r>   -13.0675     2.8801    24.5554 </r>
       <r>   -12.8747    17.8639    28.0000 </r>
       <r>   -12.6818     4.9612    28.9567 </r>
       <r>   -12.4890    10.8013    31.0394 </r>
       <r>   -12.2962     4.9718    32.0000 </r>
       <r>   -12.1034     0.0000    32.0000 </r>
       <r>   -11.9105     0.0000    32.0000 </r>
       <r>   -11.7177     0.0000    32.0000 </r>
       <r>   -11.5249     0.0000    32.0000 </r>
       <r>   -11.3321     0.0000    32.0000 </r>
       <r>   -11.1392     0.0000    32.0000 </r>
       <r>   -10.9464     0.0000    32.0000 </r>
       <r>   -10.7536     0.0000    32.0000 </r>
       <r>   -10.5608     0.0000    32.0000 </r>
       <r>   -10.3679     0.0005    32.0001 </r>
       <r>   -10.1751    15.6911    35.0257 </r>
       <r>    -9.9823    24.6932    39.7897 </r>
       <r>    -9.7895    21.8241    44.0000 </r>
       <r>    -9.5966     0.0000    44.0000 </r>
       <r>    -9.4038     0.0000    44.0000 </r>
       <r>    -9.2110     0.0000    44.0000 </r>
       <r>    -9.0182     0.0000    44.0000 </r>
       <r>    -8.8253     0.0000    44.0000 </r>
       <r>    -8.6325     0.0000    44.0000 </r>
       <r>    -8.4397     0.6304    44.1216 </r>
       <r>    -8.2469    19.9932    47.9767 </r>
       <r>    -8.0540     0.1207    48.0000 </r>
       <r>    -7.8612     0.0000    48.0000 </r>
       <r>    -7.6684     0.0000    48.0000 </r>
       <r>    -7.4756     0.0000    48.0000 </r>
       <r>    -7.2827     0.0000    48.0000 </r>
       <r>    -7.0899     0.0000    48.0000 </r>
       <r>    -6.8971     0.0000    48.0000 </r>
       <r>    -6.7043     0.0000    48.0000 </r>
       <r>    -6.5114     0.0000    48.0000 </r>
       <r>    -6.3186     0.0000    48.0000 </r>
       <r>    -6.1258     2.6099    48.5033 </r>
       <r>    -5.9330     2.5761    49.0000 </r>
       <r>    -5.7401     1.9491    49.3758 </r>
       <r>    -5.5473    13.6022    51.9987 </r>
       <r>    -5.3545     0.0000    52.0000 </r>
       <r>    -5.1617     0.0000    52.0000 </r>
       <r>    -4.9688     0.0000    52.0000 </r>
       <r>    -4.7760     0.0000    52.0000 </r>
       <r>    -4.5832     0.0000    52.0000 </r>
       <r>    -4.3904     0.0000    52.0000 </r>
       <r>    -4.1975     0.0000    52.0000 </r>
       <r>    -4.0047     0.0000    52.0000 </r>
       <r>    -3.8119     0.0000    52.0000 </r>
       <r>    -3.6191     0.0000    52.0000 </r>
       <r>    -3.4262     0.0000    52.0000 </r>
       <r>    -3.2334     3.1480    52.6070 </r>
       <r>    -3.0406    12.4101    55.0000 </r>
       <r>    -2.8478     3.1098    55.5996 </r>
       <r>    -2.6549    11.5449    57.8258 </r>
       <r>    -2.4621    12.5826    60.2526 </r>
       <r>    -2.2693    19.2091    63.9607 </r>
       <r>    -2.0765     0.1996    64.0000 </r>
       <r>    -1.8836     0.0000    64.0000 </r>
       <r>    -1.6908     0.0000    64.0000 </r>
       <r>    -1.4980    12.8049    66.4691 </r>
       <r>    -1.3052    19.5570    70.2415 </r>
       <r>    -1.1123    19.1380    73.9356 </r>
       <r>    -0.9195     6.3679    75.1636 </r>
       <r>    -0.7267     4.3378    76.0000 </r>
       <r>    -0.5339     6.5113    77.2555 </r>
       <r>    -0.3410    13.1415    79.7896 </r>
       <r>    -0.1482    11.3561    81.9793 </r>
       <r>     0.0446    27.4542    87.2732 </r>
       <r>     0.2374    24.8418    92.0642 </r>
       <r>     0.4303    20.1205    95.9450 </r>
       <r>     0.6231     0.2754    96.0014 </r>
       <r>     0.8159    12.6281    98.4365 </r>
       <r>     1.0087    22.4367   102.7649 </r>
       <r>     1.2016    22.5217   107.1085 </r>
       <r>     1.3944    25.3367   111.9954 </r>
       <r>     1.5872    27.8721   117.3707 </r>
       <r>     1.7800    12.7208   119.8263 </r>
       <r>     1.9729     0.9006   120.0000 </r>
       <r>     2.1657     0.0000   120.0000 </r>
       <r>     2.3585     0.0000   120.0000 </r>
       <r>     2.5513     0.0000   120.0000 </r>
       <r>     2.7442     0.0000   120.0000 </r>
       <r>     2.9370     0.0000   120.0000 </r>
       <r>     3.1298     0.0000   120.0000 </r>
       <r>     3.3226     0.0000   120.0000 </r>
       <r>     3.5155     0.0000   120.0000 </r>
       <r>     3.7083     0.0000   120.0000 </r>
       <r>     3.9011     0.0000   120.0000 </r>
       <r>     4.0939     0.0000   120.0000 </r>
       <r>     4.2868     0.0000   120.0000 </r>
       <r>     4.4796     5.1577   120.9945 </r>
       <r>     4.6724     0.0000   121.0000 </r>
       <r>     4.8652     0.0000   121.0000 </r>
       <r>     5.0581     0.0000   121.0000 </r>
       <r>     5.2509     5.9655   122.1503 </r>
       <r>     5.4437     9.5808   124.0000 </r>
       <r>     5.6365     0.0000   124.0000 </r>
       <r>     5.8294     0.0103   124.0020 </r>
       <r>     6.0222    13.6688   126.6377 </r>
       <r>     6.2150    15.5302   129.6357 </r>
       <r>     6.4078     2.0068   130.0240 </r>
       <r>     6.6007    13.3733   132.6027 </r>
       <r>     6.7935     7.0330   133.9598 </r>
       <r>     6.9863    10.5484   136.0002 </r>
       <r>     7.1791     5.1853   137.0000 </r>
       <r>     7.3720     5.0655   137.9768 </r>
       <r>     7.5648     9.3240   139.7762 </r>
       <r>     7.7576    11.7684   142.0463 </r>
       <r>     7.9504    11.5227   144.2685 </r>
       <r>     8.1433    14.4613   147.0571 </r>
       <r>     8.3361    14.4032   149.8370 </r>
       <r>     8.5289    13.4984   152.4399 </r>
       <r>     8.7217    16.3991   155.6045 </r>
       <r>     8.9146    16.6253   158.8103 </r>
       <r>     9.1074    16.5816   162.0099 </r>
       <r>     9.3002    18.5309   165.5846 </r>
       <r>     9.4930    17.8326   169.0246 </r>
       <r>     9.6859    15.1581   171.9495 </r>
       <r>     9.8787    16.5210   175.1380 </r>
       <r>    10.0715     4.4522   176.0000 </r>
       <r>    10.2643     0.0000   176.0000 </r>
       <r>    10.4572     0.0000   176.0000 </r>
       <r>    10.6500     0.0000   176.0000 </r>
       <r>    10.8428     0.0000   176.0000 </r>
       <r>    11.0356     0.0000   176.0000 </r>
       <r>    11.2285     0.0000   176.0000 </r>
       <r>    11.4213     0.0000   176.0000 </r>
       <r>    11.6141     0.0000   176.0000 </r>
       <r>    11.8069     0.0000   176.0000 </r>
       <r>    11.9998     0.0000   176.0000 </r>
       <r>    12.1926     0.0000   176.0000 </r>
       <r>    12.3854     0.0000   176.0000 </r>
       <r>    12.5782     0.0000   176.0000 </r>
      </set>
     </set>
    </array>
   </total>
  </dos>
 </calculation>
 <structure name="finalpos" >
  <crystal>
   <varray name="basis" >
    <v>       9.66908316       0.00000000       0.00000000 </v>
    <v>       0.00000000       9.66908316       0.00000000 </v>
    <v>       0.00000000       0.00000000       9.66908316 </v>
   </varray>
   <i name="volume">    903.97388937 </i>
   <varray name="rec_basis" >
    <v>       0.10342242       0.00000000       0.00000000 </v>
    <v>       0.00000000       0.10342242       0.00000000 </v>
    <v>       0.00000000       0.00000000       0.10342242 </v>
   </varray>
  </crystal>
  <varray name="positions" >
   <v>       0.99050903       0.18004873       0.20552894 </v>
   <v>       0.96823268       0.68038617       0.68219877 </v>
   <v>       0.04718061       0.32910140       0.64131022 </v>
   <v>       0.02087805       0.69857765       0.28847946 </v>
   <v>       0.21413610       0.22677413       0.97569772 </v>
   <v>       0.18249789       0.83500822       0.03593140 </v>
   <v>       0.79504336       0.21229279       0.00971728 </v>
   <v>       0.83140089       0.80213152       0.98735950 </v>
   <v>       0.30933907       0.98599858       0.30250070 </v>
   <v>       0.17631836       0.04103828       0.77629736 </v>
   <v>       0.82205506       0.98014589       0.78569816 </v>
   <v>       0.69330809       0.02015894       0.26628415 </v>
   <v>       0.21957871       0.67793673       0.47603115 </v>
   <v>       0.34697499       0.19955971       0.53072992 </v>
   <v>       0.68985194       0.81768389       0.53914677 </v>
   <v>       0.69322331       0.19525398       0.47162145 </v>
   <v>       0.29257234       0.49714937       0.79621836 </v>
   <v>       0.31679189       0.54318487       0.16655137 </v>
   <v>       0.83633609       0.45814766       0.32987909 </v>
   <v>       0.71695133       0.52087721       0.81171959 </v>
   <v>       0.48350585       0.29843992       0.80985623 </v>
   <v>       0.48573021       0.77694764       0.29166893 </v>
   <v>       0.54888234       0.33389527       0.18005557 </v>
   <v>       0.52865495       0.72419801       0.84008541 </v>
   <v>       0.51612950       0.50824308       0.50250412 </v>
   <v>       0.49779211       0.00480494       0.99033996 </v>
   <v>       0.00307526       0.50075913       0.99989100 </v>
   <v>       0.00767500       0.00247726       0.49216863 </v>
   <v>       0.12100406       0.87144955       0.61358164 </v>
   <v>       0.13968538       0.13418998       0.38902022 </v>
   <v>       0.88148061       0.88862426       0.36550388 </v>
   <v>       0.88906582       0.13158149       0.61276686 </v>
   <v>       0.86253435       0.60316018       0.12131684 </v>
   <v>       0.90469844       0.37421017       0.86107409 </v>
   <v>       0.11783299       0.64137923       0.88888798 </v>
   <v>       0.12481421       0.38683088       0.13201408 </v>
   <v>       0.62827989       0.11439806       0.86356598 </v>
   <v>       0.61330268       0.86223073       0.09907119 </v>
   <v>       0.39421486       0.13709884       0.12014197 </v>
   <v>       0.35918239       0.89882001       0.87120748 </v>
   <v>       0.64883340       0.62292545       0.38359265 </v>
   <v>       0.62994607       0.37624902       0.62383768 </v>
   <v>       0.40552201       0.64115766       0.62619615 </v>
   <v>       0.39005785       0.39595907       0.37312144 </v>
   <v>       0.75597271       0.75307183       0.76209532 </v>
   <v>       0.76255485       0.24590309       0.24330736 </v>
   <v>       0.25219066       0.75877367       0.25128588 </v>
   <v>       0.25700218       0.26486924       0.74527597 </v>
   <v>       0.00017630       0.01751930       0.98717104 </v>
   <v>       0.01690855       0.52875404       0.49108856 </v>
   <v>       0.52086826       0.00153250       0.45506524 </v>
   <v>       0.49402836       0.49493866       0.97276246 </v>
  </varray>
 </structure>
</modeling>
