unknown system                          
           1
     9.669083    0.000000    0.000000
     0.000000    9.669083    0.000000
     0.000000    0.000000    9.669083
   Li   P    S    Cl
    24     4    20     4
Direct configuration=     1
   0.99050955  0.18005698  0.20553214
   0.96823087  0.68038451  0.68219879
   0.04717871  0.32910162  0.64131515
   0.02087909  0.69857992  0.28848154
   0.21412370  0.22676666  0.97569632
   0.18249827  0.83500839  0.03593263
   0.79504580  0.21229002  0.00971746
   0.83139566  0.80213024  0.98736054
   0.30933897  0.98599936  0.30249761
   0.17633167  0.04103443  0.77629183
   0.82206052  0.98014529  0.78569771
   0.69330986  0.02016040  0.26628456
   0.21957677  0.67793924  0.47603173
   0.34697198  0.19956323  0.53072838
   0.68985218  0.81768561  0.53914750
   0.69322105  0.19525619  0.47161951
   0.29257239  0.49714682  0.79622237
   0.31679499  0.54318598  0.16655274
   0.83633364  0.45814933  0.32988022
   0.71695248  0.52087680  0.81171966
   0.48350498  0.29843699  0.80985799
   0.48573031  0.77694895  0.29167185
   0.54888151  0.33389143  0.18005176
   0.52865406  0.72419546  0.84007742
   0.51612599  0.50823694  0.50250145
   0.49779593  0.00480573  0.99034237
   0.00307681  0.50075788  0.99989829
   0.00767188  0.00247162  0.49216666
   0.12099753  0.87145116  0.61358144
   0.13968540  0.13418817  0.38901972
   0.88148230  0.88862758  0.36550857
   0.88906255  0.13158299  0.61276571
   0.86253987  0.60316293  0.12131875
   0.90470003  0.37421369  0.86107946
   0.11783613  0.64138382  0.88888661
   0.12481445  0.38683788  0.13200844
   0.62828272  0.11439700  0.86356449
   0.61330156  0.86223400  0.09907321
   0.39421560  0.13709439  0.12013290
   0.35918505  0.89881565  0.87120893
   0.64882892  0.62292434  0.38359911
   0.62994492  0.37624860  0.62383928
   0.40551850  0.64115319  0.62619540
   0.39006198  0.39595860  0.37312089
   0.75597277  0.75307217  0.76209612
   0.76255407  0.24590393  0.24330607
   0.25219157  0.75877385  0.25128689
   0.25700242  0.26486846  0.74527676
   0.00017875  0.01752252  0.98717059
   0.01690781  0.52875556  0.49108974
   0.52086882  0.00153412  0.45506009
   0.49402857  0.49493724  0.97275783
Direct configuration=     2
   0.99050944  0.18005480  0.20553126
   0.96823141  0.68038498  0.68219885
   0.04717920  0.32910153  0.64131381
   0.02087885  0.69857933  0.28848095
   0.21412700  0.22676866  0.97569656
   0.18249819  0.83500833  0.03593216
   0.79504516  0.21229080  0.00971730
   0.83139709  0.80213061  0.98736017
   0.30933898  0.98599918  0.30249841
   0.17632812  0.04103551  0.77629329
   0.82205906  0.98014553  0.78569779
   0.69330938  0.02016008  0.26628442
   0.21957733  0.67793862  0.47603161
   0.34697273  0.19956230  0.53072879
   0.68985207  0.81768515  0.53914734
   0.69322173  0.19525564  0.47162009
   0.29257237  0.49714760  0.79622124
   0.31679416  0.54318577  0.16655229
   0.83633427  0.45814893  0.32987989
   0.71695217  0.52087692  0.81171957
   0.48350523  0.29843781  0.80985745
   0.48573027  0.77694864  0.29167106
   0.54888178  0.33389248  0.18005271
   0.52865424  0.72419619  0.84007948
   0.51612721  0.50823915  0.50250321
   0.49779493  0.00480505  0.99034026
   0.00307643  0.50075833  0.99989533
   0.00767308  0.00247489  0.49216787
   0.12099961  0.87145039  0.61358170
   0.13968511  0.13418847  0.38902005
   0.88148115  0.88862601  0.36550643
   0.88906383  0.13158228  0.61276556
   0.86253798  0.60316234  0.12131854
   0.90469969  0.37421279  0.86107802
   0.11783481  0.64138207  0.88888740
   0.12481498  0.38683537  0.13201073
   0.62828182  0.11439710  0.86356502
   0.61330215  0.86223276  0.09907280
   0.39421491  0.13709629  0.12013597
   0.35918471  0.89881716  0.87120885
   0.64883043  0.62292474  0.38359705
   0.62994518  0.37624876  0.62383863
   0.40551966  0.64115420  0.62619536
   0.39006027  0.39595822  0.37312042
   0.75597271  0.75307208  0.76209587
   0.76255436  0.24590389  0.24330640
   0.25219129  0.75877380  0.25128654
   0.25700225  0.26486866  0.74527639
   0.00017809  0.01752155  0.98717100
   0.01690792  0.52875450  0.49108926
   0.52086833  0.00153362  0.45506229
   0.49402878  0.49493801  0.97275973
Direct configuration=     3
   0.99050939  0.18005385  0.20553087
   0.96823164  0.68038519  0.68219888
   0.04717942  0.32910150  0.64131323
   0.02087874  0.69857908  0.28848069
   0.21412845  0.22676954  0.97569667
   0.18249815  0.83500831  0.03593195
   0.79504487  0.21229114  0.00971722
   0.83139773  0.80213078  0.98736001
   0.30933898  0.98599910  0.30249877
   0.17632657  0.04103598  0.77629393
   0.82205841  0.98014564  0.78569782
   0.69330917  0.02015993  0.26628436
   0.21957758  0.67793835  0.47603156
   0.34697306  0.19956189  0.53072897
   0.68985202  0.81768494  0.53914727
   0.69322203  0.19525540  0.47162035
   0.29257236  0.49714794  0.79622075
   0.31679379  0.54318568  0.16655209
   0.83633455  0.45814875  0.32987974
   0.71695204  0.52087698  0.81171953
   0.48350534  0.29843817  0.80985721
   0.48573025  0.77694850  0.29167071
   0.54888190  0.33389294  0.18005313
   0.52865431  0.72419652  0.84008038
   0.51612774  0.50824012  0.50250399
   0.49779450  0.00480475  0.99033934
   0.00307626  0.50075852  0.99989403
   0.00767360  0.00247632  0.49216840
   0.12100053  0.87145005  0.61358182
   0.13968498  0.13418860  0.38902020
   0.88148064  0.88862531  0.36550549
   0.88906439  0.13158197  0.61276549
   0.86253716  0.60316208  0.12131844
   0.90469953  0.37421240  0.86107739
   0.11783423  0.64138130  0.88888775
   0.12481522  0.38683427  0.13201174
   0.62828143  0.11439714  0.86356526
   0.61330241  0.86223221  0.09907262
   0.39421461  0.13709713  0.12013732
   0.35918456  0.89881782  0.87120881
   0.64883110  0.62292492  0.38359615
   0.62994529  0.37624883  0.62383835
   0.40552016  0.64115464  0.62619535
   0.39005952  0.39595806  0.37312022
   0.75597268  0.75307204  0.76209576
   0.76255449  0.24590387  0.24330654
   0.25219117  0.75877377  0.25128639
   0.25700218  0.26486875  0.74527623
   0.00017780  0.01752112  0.98717118
   0.01690797  0.52875403  0.49108905
   0.52086811  0.00153340  0.45506325
   0.49402888  0.49493835  0.97276056
Direct configuration=     4
   0.99050930  0.18005194  0.20553010
   0.96823211  0.68038560  0.68219893
   0.04717985  0.32910143  0.64131205
   0.02087853  0.69857856  0.28848016
   0.21413135  0.22677130  0.97569688
   0.18249808  0.83500827  0.03593153
   0.79504431  0.21229182  0.00971708
   0.83139899  0.80213110  0.98735968
   0.30933899  0.98599894  0.30249947
   0.17632345  0.04103693  0.77629522
   0.82205712  0.98014585  0.78569788
   0.69330875  0.02015965  0.26628423
   0.21957808  0.67793781  0.47603146
   0.34697373  0.19956107  0.53072934
   0.68985192  0.81768453  0.53914713
   0.69322263  0.19525492  0.47162086
   0.29257235  0.49714863  0.79621975
   0.31679306  0.54318550  0.16655169
   0.83633510  0.45814840  0.32987945
   0.71695177  0.52087709  0.81171946
   0.48350555  0.29843889  0.80985674
   0.48573021  0.77694823  0.29167001
   0.54888214  0.33389386  0.18005396
   0.52865447  0.72419716  0.84008219
   0.51612881  0.50824207  0.50250554
   0.49779362  0.00480415  0.99033749
   0.00307591  0.50075891  0.99989142
   0.00767465  0.00247919  0.49216946
   0.12100236  0.87144937  0.61358205
   0.13968472  0.13418886  0.38902049
   0.88147963  0.88862393  0.36550361
   0.88906551  0.13158135  0.61276535
   0.86253551  0.60316156  0.12131826
   0.90469923  0.37421160  0.86107612
   0.11783308  0.64137976  0.88888844
   0.12481568  0.38683206  0.13201376
   0.62828064  0.11439723  0.86356572
   0.61330292  0.86223111  0.09907226
   0.39421401  0.13709880  0.12014001
   0.35918425  0.89881914  0.87120874
   0.64883242  0.62292527  0.38359434
   0.62994552  0.37624898  0.62383779
   0.40552117  0.64115553  0.62619532
   0.39005802  0.39595773  0.37311981
   0.75597263  0.75307196  0.76209553
   0.76255475  0.24590384  0.24330683
   0.25219092  0.75877373  0.25128609
   0.25700203  0.26486893  0.74527591
   0.00017722  0.01752027  0.98717155
   0.01690807  0.52875310  0.49108862
   0.52086768  0.00153296  0.45506518
   0.49402907  0.49493902  0.97276223
Direct configuration=     5
   0.99050903  0.18004873  0.20552894
   0.96823268  0.68038617  0.68219877
   0.04718061  0.32910140  0.64131022
   0.02087805  0.69857765  0.28847946
   0.21413610  0.22677413  0.97569772
   0.18249789  0.83500822  0.03593140
   0.79504336  0.21229279  0.00971728
   0.83140089  0.80213152  0.98735950
   0.30933907  0.98599858  0.30250070
   0.17631836  0.04103828  0.77629736
   0.82205506  0.98014589  0.78569816
   0.69330809  0.02015894  0.26628415
   0.21957871  0.67793673  0.47603115
   0.34697499  0.19955971  0.53072992
   0.68985194  0.81768389  0.53914677
   0.69322331  0.19525398  0.47162145
   0.29257234  0.49714937  0.79621836
   0.31679189  0.54318487  0.16655137
   0.83633609  0.45814766  0.32987909
   0.71695133  0.52087721  0.81171959
   0.48350585  0.29843992  0.80985623
   0.48573021  0.77694764  0.29166893
   0.54888234  0.33389527  0.18005557
   0.52865495  0.72419801  0.84008541
   0.51612950  0.50824308  0.50250412
   0.49779211  0.00480494  0.99033996
   0.00307526  0.50075913  0.99989100
   0.00767500  0.00247726  0.49216863
   0.12100406  0.87144955  0.61358164
   0.13968538  0.13418998  0.38902022
   0.88148061  0.88862426  0.36550388
   0.88906582  0.13158149  0.61276686
   0.86253435  0.60316018  0.12131684
   0.90469844  0.37421017  0.86107409
   0.11783299  0.64137923  0.88888798
   0.12481421  0.38683088  0.13201408
   0.62827989  0.11439806  0.86356598
   0.61330268  0.86223073  0.09907119
   0.39421486  0.13709884  0.12014197
   0.35918239  0.89882001  0.87120748
   0.64883340  0.62292545  0.38359265
   0.62994607  0.37624902  0.62383768
   0.40552201  0.64115766  0.62619615
   0.39005785  0.39595907  0.37312144
   0.75597271  0.75307183  0.76209532
   0.76255485  0.24590309  0.24330736
   0.25219066  0.75877367  0.25128588
   0.25700218  0.26486924  0.74527597
   0.00017630  0.01751930  0.98717104
   0.01690855  0.52875404  0.49108856
   0.52086826  0.00153250  0.45506524
   0.49402836  0.49493866  0.97276246
