  52  52   0   4
  0.1936251E+02  0.1002278E-08  0.1002278E-08  0.1002278E-08  0.2000000E-15
  1.000000000000000E-004
  CAR 
 unknown system                          
     11.58254296    -46.10405451  301      1.22299150      1.00000000
    -46.104  0.0000E+00  0.0000E+00  0.0000E+00  0.0000E+00
    -45.912  0.0000E+00  0.0000E+00  0.0000E+00  0.0000E+00
    -45.719  0.0000E+00  0.0000E+00  0.0000E+00  0.0000E+00
    -45.527  0.0000E+00  0.0000E+00  0.0000E+00  0.0000E+00
    -45.335  0.0000E+00  0.0000E+00  0.0000E+00  0.0000E+00
    -45.143  0.0000E+00  0.0000E+00  0.0000E+00  0.0000E+00
    -44.950  0.0000E+00  0.0000E+00  0.0000E+00  0.0000E+00
    -44.758  0.0000E+00  0.0000E+00  0.0000E+00  0.0000E+00
    -44.566  0.0000E+00  0.0000E+00  0.0000E+00  0.0000E+00
    -44.373  0.0000E+00  0.0000E+00  0.0000E+00  0.0000E+00
    -44.181  0.0000E+00  0.0000E+00  0.0000E+00  0.0000E+00
    -43.989  0.0000E+00  0.0000E+00  0.0000E+00  0.0000E+00
    -43.797  0.0000E+00  0.0000E+00  0.0000E+00  0.0000E+00
    -43.604  0.7505E-10  0.7505E-10  0.1443E-10  0.1443E-10
    -43.412  0.2079E-01  0.2079E-01  0.3998E-02  0.3998E-02
    -43.220  0.7872E-01  0.7872E-01  0.1914E-01  0.1914E-01
    -43.027  0.2528E-01  0.2528E-01  0.2400E-01  0.2400E-01
    -42.835  0.0000E+00  0.0000E+00  0.2400E-01  0.2400E-01
    -42.643  0.0000E+00  0.0000E+00  0.2400E-01  0.2400E-01
    -42.451  0.0000E+00  0.0000E+00  0.2400E-01  0.2400E-01
    -42.258  0.0000E+00  0.0000E+00  0.2400E-01  0.2400E-01
    -42.066  0.0000E+00  0.0000E+00  0.2400E-01  0.2400E-01
    -41.874  0.0000E+00  0.0000E+00  0.2400E-01  0.2400E-01
    -41.681  0.0000E+00  0.0000E+00  0.2400E-01  0.2400E-01
    -41.489  0.0000E+00  0.0000E+00  0.2400E-01  0.2400E-01
    -41.297  0.0000E+00  0.0000E+00  0.2400E-01  0.2400E-01
    -41.105  0.0000E+00  0.0000E+00  0.2400E-01  0.2400E-01
    -40.912  0.0000E+00  0.0000E+00  0.2400E-01  0.2400E-01
    -40.720  0.0000E+00  0.0000E+00  0.2400E-01  0.2400E-01
    -40.528  0.0000E+00  0.0000E+00  0.2400E-01  0.2400E-01
    -40.335  0.0000E+00  0.0000E+00  0.2400E-01  0.2400E-01
    -40.143  0.0000E+00  0.0000E+00  0.2400E-01  0.2400E-01
    -39.951  0.0000E+00  0.0000E+00  0.2400E-01  0.2400E-01
    -39.759  0.0000E+00  0.0000E+00  0.2400E-01  0.2400E-01
    -39.566  0.0000E+00  0.0000E+00  0.2400E-01  0.2400E-01
    -39.374  0.0000E+00  0.0000E+00  0.2400E-01  0.2400E-01
    -39.182  0.0000E+00  0.0000E+00  0.2400E-01  0.2400E-01
    -38.989  0.0000E+00  0.0000E+00  0.2400E-01  0.2400E-01
    -38.797  0.0000E+00  0.0000E+00  0.2400E-01  0.2400E-01
    -38.605  0.0000E+00  0.0000E+00  0.2400E-01  0.2400E-01
    -38.413  0.0000E+00  0.0000E+00  0.2400E-01  0.2400E-01
    -38.220  0.0000E+00  0.0000E+00  0.2400E-01  0.2400E-01
    -38.028  0.0000E+00  0.0000E+00  0.2400E-01  0.2400E-01
    -37.836  0.0000E+00  0.0000E+00  0.2400E-01  0.2400E-01
    -37.643  0.0000E+00  0.0000E+00  0.2400E-01  0.2400E-01
    -37.451  0.0000E+00  0.0000E+00  0.2400E-01  0.2400E-01
    -37.259  0.0000E+00  0.0000E+00  0.2400E-01  0.2400E-01
    -37.066  0.0000E+00  0.0000E+00  0.2400E-01  0.2400E-01
    -36.874  0.0000E+00  0.0000E+00  0.2400E-01  0.2400E-01
    -36.682  0.0000E+00  0.0000E+00  0.2400E-01  0.2400E-01
    -36.490  0.0000E+00  0.0000E+00  0.2400E-01  0.2400E-01
    -36.297  0.0000E+00  0.0000E+00  0.2400E-01  0.2400E-01
    -36.105  0.0000E+00  0.0000E+00  0.2400E-01  0.2400E-01
    -35.913  0.0000E+00  0.0000E+00  0.2400E-01  0.2400E-01
    -35.720  0.0000E+00  0.0000E+00  0.2400E-01  0.2400E-01
    -35.528  0.0000E+00  0.0000E+00  0.2400E-01  0.2400E-01
    -35.336  0.0000E+00  0.0000E+00  0.2400E-01  0.2400E-01
    -35.144  0.0000E+00  0.0000E+00  0.2400E-01  0.2400E-01
    -34.951  0.0000E+00  0.0000E+00  0.2400E-01  0.2400E-01
    -34.759  0.0000E+00  0.0000E+00  0.2400E-01  0.2400E-01
    -34.567  0.0000E+00  0.0000E+00  0.2400E-01  0.2400E-01
    -34.374  0.0000E+00  0.0000E+00  0.2400E-01  0.2400E-01
    -34.182  0.0000E+00  0.0000E+00  0.2400E-01  0.2400E-01
    -33.990  0.0000E+00  0.0000E+00  0.2400E-01  0.2400E-01
    -33.798  0.0000E+00  0.0000E+00  0.2400E-01  0.2400E-01
    -33.605  0.0000E+00  0.0000E+00  0.2400E-01  0.2400E-01
    -33.413  0.0000E+00  0.0000E+00  0.2400E-01  0.2400E-01
    -33.221  0.0000E+00  0.0000E+00  0.2400E-01  0.2400E-01
    -33.028  0.0000E+00  0.0000E+00  0.2400E-01  0.2400E-01
    -32.836  0.0000E+00  0.0000E+00  0.2400E-01  0.2400E-01
    -32.644  0.0000E+00  0.0000E+00  0.2400E-01  0.2400E-01
    -32.452  0.0000E+00  0.0000E+00  0.2400E-01  0.2400E-01
    -32.259  0.0000E+00  0.0000E+00  0.2400E-01  0.2400E-01
    -32.067  0.0000E+00  0.0000E+00  0.2400E-01  0.2400E-01
    -31.875  0.0000E+00  0.0000E+00  0.2400E-01  0.2400E-01
    -31.682  0.0000E+00  0.0000E+00  0.2400E-01  0.2400E-01
    -31.490  0.0000E+00  0.0000E+00  0.2400E-01  0.2400E-01
    -31.298  0.0000E+00  0.0000E+00  0.2400E-01  0.2400E-01
    -31.106  0.0000E+00  0.0000E+00  0.2400E-01  0.2400E-01
    -30.913  0.0000E+00  0.0000E+00  0.2400E-01  0.2400E-01
    -30.721  0.0000E+00  0.0000E+00  0.2400E-01  0.2400E-01
    -30.529  0.0000E+00  0.0000E+00  0.2400E-01  0.2400E-01
    -30.336  0.0000E+00  0.0000E+00  0.2400E-01  0.2400E-01
    -30.144  0.0000E+00  0.0000E+00  0.2400E-01  0.2400E-01
    -29.952  0.0000E+00  0.0000E+00  0.2400E-01  0.2400E-01
    -29.760  0.0000E+00  0.0000E+00  0.2400E-01  0.2400E-01
    -29.567  0.0000E+00  0.0000E+00  0.2400E-01  0.2400E-01
    -29.375  0.0000E+00  0.0000E+00  0.2400E-01  0.2400E-01
    -29.183  0.0000E+00  0.0000E+00  0.2400E-01  0.2400E-01
    -28.990  0.0000E+00  0.0000E+00  0.2400E-01  0.2400E-01
    -28.798  0.0000E+00  0.0000E+00  0.2400E-01  0.2400E-01
    -28.606  0.0000E+00  0.0000E+00  0.2400E-01  0.2400E-01
    -28.413  0.0000E+00  0.0000E+00  0.2400E-01  0.2400E-01
    -28.221  0.0000E+00  0.0000E+00  0.2400E-01  0.2400E-01
    -28.029  0.0000E+00  0.0000E+00  0.2400E-01  0.2400E-01
    -27.837  0.0000E+00  0.0000E+00  0.2400E-01  0.2400E-01
    -27.644  0.0000E+00  0.0000E+00  0.2400E-01  0.2400E-01
    -27.452  0.0000E+00  0.0000E+00  0.2400E-01  0.2400E-01
    -27.260  0.0000E+00  0.0000E+00  0.2400E-01  0.2400E-01
    -27.067  0.0000E+00  0.0000E+00  0.2400E-01  0.2400E-01
    -26.875  0.0000E+00  0.0000E+00  0.2400E-01  0.2400E-01
    -26.683  0.0000E+00  0.0000E+00  0.2400E-01  0.2400E-01
    -26.491  0.0000E+00  0.0000E+00  0.2400E-01  0.2400E-01
    -26.298  0.0000E+00  0.0000E+00  0.2400E-01  0.2400E-01
    -26.106  0.0000E+00  0.0000E+00  0.2400E-01  0.2400E-01
    -25.914  0.0000E+00  0.0000E+00  0.2400E-01  0.2400E-01
    -25.721  0.0000E+00  0.0000E+00  0.2400E-01  0.2400E-01
    -25.529  0.0000E+00  0.0000E+00  0.2400E-01  0.2400E-01
    -25.337  0.0000E+00  0.0000E+00  0.2400E-01  0.2400E-01
    -25.145  0.0000E+00  0.0000E+00  0.2400E-01  0.2400E-01
    -24.952  0.0000E+00  0.0000E+00  0.2400E-01  0.2400E-01
    -24.760  0.0000E+00  0.0000E+00  0.2400E-01  0.2400E-01
    -24.568  0.0000E+00  0.0000E+00  0.2400E-01  0.2400E-01
    -24.375  0.0000E+00  0.0000E+00  0.2400E-01  0.2400E-01
    -24.183  0.0000E+00  0.0000E+00  0.2400E-01  0.2400E-01
    -23.991  0.0000E+00  0.0000E+00  0.2400E-01  0.2400E-01
    -23.799  0.0000E+00  0.0000E+00  0.2400E-01  0.2400E-01
    -23.606  0.0000E+00  0.0000E+00  0.2400E-01  0.2400E-01
    -23.414  0.0000E+00  0.0000E+00  0.2400E-01  0.2400E-01
    -23.222  0.0000E+00  0.0000E+00  0.2400E-01  0.2400E-01
    -23.029  0.0000E+00  0.0000E+00  0.2400E-01  0.2400E-01
    -22.837  0.0000E+00  0.0000E+00  0.2400E-01  0.2400E-01
    -22.645  0.0000E+00  0.0000E+00  0.2400E-01  0.2400E-01
    -22.453  0.0000E+00  0.0000E+00  0.2400E-01  0.2400E-01
    -22.260  0.0000E+00  0.0000E+00  0.2400E-01  0.2400E-01
    -22.068  0.0000E+00  0.0000E+00  0.2400E-01  0.2400E-01
    -21.876  0.0000E+00  0.0000E+00  0.2400E-01  0.2400E-01
    -21.683  0.0000E+00  0.0000E+00  0.2400E-01  0.2400E-01
    -21.491  0.0000E+00  0.0000E+00  0.2400E-01  0.2400E-01
    -21.299  0.0000E+00  0.0000E+00  0.2400E-01  0.2400E-01
    -21.107  0.0000E+00  0.0000E+00  0.2400E-01  0.2400E-01
    -20.914  0.0000E+00  0.0000E+00  0.2400E-01  0.2400E-01
    -20.722  0.0000E+00  0.0000E+00  0.2400E-01  0.2400E-01
    -20.530  0.0000E+00  0.0000E+00  0.2400E-01  0.2400E-01
    -20.337  0.0000E+00  0.0000E+00  0.2400E-01  0.2400E-01
    -20.145  0.0000E+00  0.0000E+00  0.2400E-01  0.2400E-01
    -19.953  0.0000E+00  0.0000E+00  0.2400E-01  0.2400E-01
    -19.761  0.0000E+00  0.0000E+00  0.2400E-01  0.2400E-01
    -19.568  0.0000E+00  0.0000E+00  0.2400E-01  0.2400E-01
    -19.376  0.0000E+00  0.0000E+00  0.2400E-01  0.2400E-01
    -19.184  0.0000E+00  0.0000E+00  0.2400E-01  0.2400E-01
    -18.991  0.0000E+00  0.0000E+00  0.2400E-01  0.2400E-01
    -18.799  0.0000E+00  0.0000E+00  0.2400E-01  0.2400E-01
    -18.607  0.0000E+00  0.0000E+00  0.2400E-01  0.2400E-01
    -18.414  0.0000E+00  0.0000E+00  0.2400E-01  0.2400E-01
    -18.222  0.0000E+00  0.0000E+00  0.2400E-01  0.2400E-01
    -18.030  0.0000E+00  0.0000E+00  0.2400E-01  0.2400E-01
    -17.838  0.0000E+00  0.0000E+00  0.2400E-01  0.2400E-01
    -17.645  0.0000E+00  0.0000E+00  0.2400E-01  0.2400E-01
    -17.453  0.0000E+00  0.0000E+00  0.2400E-01  0.2400E-01
    -17.261  0.0000E+00  0.0000E+00  0.2400E-01  0.2400E-01
    -17.068  0.0000E+00  0.0000E+00  0.2400E-01  0.2400E-01
    -16.876  0.0000E+00  0.0000E+00  0.2400E-01  0.2400E-01
    -16.684  0.0000E+00  0.0000E+00  0.2400E-01  0.2400E-01
    -16.492  0.0000E+00  0.0000E+00  0.2400E-01  0.2400E-01
    -16.299  0.0000E+00  0.0000E+00  0.2400E-01  0.2400E-01
    -16.107  0.0000E+00  0.0000E+00  0.2400E-01  0.2400E-01
    -15.915  0.0000E+00  0.0000E+00  0.2400E-01  0.2400E-01
    -15.722  0.0000E+00  0.0000E+00  0.2400E-01  0.2400E-01
    -15.530  0.0000E+00  0.0000E+00  0.2400E-01  0.2400E-01
    -15.338  0.0000E+00  0.0000E+00  0.2400E-01  0.2400E-01
    -15.146  0.0000E+00  0.0000E+00  0.2400E-01  0.2400E-01
    -14.953  0.0000E+00  0.0000E+00  0.2400E-01  0.2400E-01
    -14.761  0.0000E+00  0.0000E+00  0.2400E-01  0.2400E-01
    -14.569  0.0000E+00  0.0000E+00  0.2400E-01  0.2400E-01
    -14.376  0.0000E+00  0.0000E+00  0.2400E-01  0.2400E-01
    -14.184  0.0000E+00  0.0000E+00  0.2400E-01  0.2400E-01
    -13.992  0.0000E+00  0.0000E+00  0.2400E-01  0.2400E-01
    -13.800  0.1321E-14  0.1321E-14  0.2400E-01  0.2400E-01
    -13.607  0.1754E-01  0.1754E-01  0.2737E-01  0.2737E-01
    -13.415  0.3266E-02  0.3266E-02  0.2800E-01  0.2800E-01
    -13.223  0.0000E+00  0.0000E+00  0.2800E-01  0.2800E-01
    -13.030  0.0000E+00  0.0000E+00  0.2800E-01  0.2800E-01
    -12.838  0.1021E-04  0.1021E-04  0.2800E-01  0.2800E-01
    -12.646  0.2079E-01  0.2079E-01  0.3200E-01  0.3200E-01
    -12.454  0.0000E+00  0.0000E+00  0.3200E-01  0.3200E-01
    -12.261  0.0000E+00  0.0000E+00  0.3200E-01  0.3200E-01
    -12.069  0.0000E+00  0.0000E+00  0.3200E-01  0.3200E-01
    -11.877  0.0000E+00  0.0000E+00  0.3200E-01  0.3200E-01
    -11.684  0.0000E+00  0.0000E+00  0.3200E-01  0.3200E-01
    -11.492  0.0000E+00  0.0000E+00  0.3200E-01  0.3200E-01
    -11.300  0.0000E+00  0.0000E+00  0.3200E-01  0.3200E-01
    -11.108  0.0000E+00  0.0000E+00  0.3200E-01  0.3200E-01
    -10.915  0.1003E-03  0.1003E-03  0.3202E-01  0.3202E-01
    -10.723  0.2510E-01  0.2510E-01  0.3685E-01  0.3685E-01
    -10.531  0.3720E-01  0.3720E-01  0.4400E-01  0.4400E-01
    -10.338  0.0000E+00  0.0000E+00  0.4400E-01  0.4400E-01
    -10.146  0.0000E+00  0.0000E+00  0.4400E-01  0.4400E-01
     -9.954  0.0000E+00  0.0000E+00  0.4400E-01  0.4400E-01
     -9.761  0.0000E+00  0.0000E+00  0.4400E-01  0.4400E-01
     -9.569  0.0000E+00  0.0000E+00  0.4400E-01  0.4400E-01
     -9.377  0.0000E+00  0.0000E+00  0.4400E-01  0.4400E-01
     -9.185  0.1083E-17  0.1083E-17  0.4400E-01  0.4400E-01
     -8.992  0.1596E-01  0.1596E-01  0.4707E-01  0.4707E-01
     -8.800  0.4843E-02  0.4843E-02  0.4800E-01  0.4800E-01
     -8.608  0.0000E+00  0.0000E+00  0.4800E-01  0.4800E-01
     -8.415  0.0000E+00  0.0000E+00  0.4800E-01  0.4800E-01
     -8.223  0.0000E+00  0.0000E+00  0.4800E-01  0.4800E-01
     -8.031  0.0000E+00  0.0000E+00  0.4800E-01  0.4800E-01
     -7.839  0.0000E+00  0.0000E+00  0.4800E-01  0.4800E-01
     -7.646  0.0000E+00  0.0000E+00  0.4800E-01  0.4800E-01
     -7.454  0.0000E+00  0.0000E+00  0.4800E-01  0.4800E-01
     -7.262  0.0000E+00  0.0000E+00  0.4800E-01  0.4800E-01
     -7.069  0.0000E+00  0.0000E+00  0.4800E-01  0.4800E-01
     -6.877  0.7455E-13  0.7455E-13  0.4800E-01  0.4800E-01
     -6.685  0.5131E-02  0.5131E-02  0.4899E-01  0.4899E-01
     -6.493  0.1173E-03  0.1173E-03  0.4901E-01  0.4901E-01
     -6.300  0.1554E-01  0.1554E-01  0.5200E-01  0.5200E-01
     -6.108  0.0000E+00  0.0000E+00  0.5200E-01  0.5200E-01
     -5.916  0.0000E+00  0.0000E+00  0.5200E-01  0.5200E-01
     -5.723  0.0000E+00  0.0000E+00  0.5200E-01  0.5200E-01
     -5.531  0.0000E+00  0.0000E+00  0.5200E-01  0.5200E-01
     -5.339  0.0000E+00  0.0000E+00  0.5200E-01  0.5200E-01
     -5.147  0.0000E+00  0.0000E+00  0.5200E-01  0.5200E-01
     -4.954  0.0000E+00  0.0000E+00  0.5200E-01  0.5200E-01
     -4.762  0.0000E+00  0.0000E+00  0.5200E-01  0.5200E-01
     -4.570  0.0000E+00  0.0000E+00  0.5200E-01  0.5200E-01
     -4.377  0.0000E+00  0.0000E+00  0.5200E-01  0.5200E-01
     -4.185  0.0000E+00  0.0000E+00  0.5200E-01  0.5200E-01
     -3.993  0.0000E+00  0.0000E+00  0.5200E-01  0.5200E-01
     -3.801  0.1042E-03  0.1042E-03  0.5202E-01  0.5202E-01
     -3.608  0.1550E-01  0.1550E-01  0.5500E-01  0.5500E-01
     -3.416  0.5030E-02  0.5030E-02  0.5597E-01  0.5597E-01
     -3.224  0.1532E-01  0.1532E-01  0.5891E-01  0.5891E-01
     -3.031  0.2642E-01  0.2642E-01  0.6400E-01  0.6400E-01
     -2.839  0.0000E+00  0.0000E+00  0.6400E-01  0.6400E-01
     -2.647  0.0000E+00  0.0000E+00  0.6400E-01  0.6400E-01
     -2.455  0.0000E+00  0.0000E+00  0.6400E-01  0.6400E-01
     -2.262  0.0000E+00  0.0000E+00  0.6400E-01  0.6400E-01
     -2.070  0.0000E+00  0.0000E+00  0.6400E-01  0.6400E-01
     -1.878  0.0000E+00  0.0000E+00  0.6400E-01  0.6400E-01
     -1.685  0.3288E-03  0.3288E-03  0.6406E-01  0.6406E-01
     -1.493  0.4036E-01  0.4036E-01  0.7182E-01  0.7182E-01
     -1.301  0.2156E-01  0.2156E-01  0.7597E-01  0.7597E-01
     -1.109  0.1947E-03  0.1947E-03  0.7601E-01  0.7601E-01
     -0.916  0.1562E-01  0.1562E-01  0.7901E-01  0.7901E-01
     -0.724  0.1577E-01  0.1577E-01  0.8205E-01  0.8205E-01
     -0.532  0.3170E-01  0.3170E-01  0.8814E-01  0.8814E-01
     -0.339  0.3982E-01  0.3982E-01  0.9581E-01  0.9581E-01
     -0.147  0.9974E-03  0.9974E-03  0.9600E-01  0.9600E-01
      0.045  0.3300E-03  0.3300E-03  0.9606E-01  0.9606E-01
      0.238  0.2239E-01  0.2239E-01  0.1004E+00  0.1004E+00
      0.430  0.3082E-01  0.3082E-01  0.1063E+00  0.1063E+00
      0.622  0.2939E-01  0.2939E-01  0.1120E+00  0.1120E+00
      0.814  0.3742E-01  0.3742E-01  0.1192E+00  0.1192E+00
      1.007  0.4351E-02  0.4351E-02  0.1200E+00  0.1200E+00
      1.199  0.0000E+00  0.0000E+00  0.1200E+00  0.1200E+00
      1.391  0.0000E+00  0.0000E+00  0.1200E+00  0.1200E+00
      1.584  0.0000E+00  0.0000E+00  0.1200E+00  0.1200E+00
      1.776  0.0000E+00  0.0000E+00  0.1200E+00  0.1200E+00
      1.968  0.0000E+00  0.0000E+00  0.1200E+00  0.1200E+00
      2.160  0.0000E+00  0.0000E+00  0.1200E+00  0.1200E+00
      2.353  0.0000E+00  0.0000E+00  0.1200E+00  0.1200E+00
      2.545  0.0000E+00  0.0000E+00  0.1200E+00  0.1200E+00
      2.737  0.0000E+00  0.0000E+00  0.1200E+00  0.1200E+00
      2.930  0.0000E+00  0.0000E+00  0.1200E+00  0.1200E+00
      3.122  0.0000E+00  0.0000E+00  0.1200E+00  0.1200E+00
      3.314  0.0000E+00  0.0000E+00  0.1200E+00  0.1200E+00
      3.506  0.2566E-08  0.2566E-08  0.1200E+00  0.1200E+00
      3.699  0.5187E-02  0.5187E-02  0.1210E+00  0.1210E+00
      3.891  0.0000E+00  0.0000E+00  0.1210E+00  0.1210E+00
      4.083  0.0000E+00  0.0000E+00  0.1210E+00  0.1210E+00
      4.276  0.9601E-11  0.9601E-11  0.1210E+00  0.1210E+00
      4.468  0.1510E-01  0.1510E-01  0.1239E+00  0.1239E+00
      4.660  0.4891E-03  0.4891E-03  0.1240E+00  0.1240E+00
      4.852  0.0000E+00  0.0000E+00  0.1240E+00  0.1240E+00
      5.045  0.5001E-03  0.5001E-03  0.1241E+00  0.1241E+00
      5.237  0.1993E-01  0.1993E-01  0.1279E+00  0.1279E+00
      5.429  0.8236E-02  0.8236E-02  0.1295E+00  0.1295E+00
      5.622  0.5619E-02  0.5619E-02  0.1306E+00  0.1306E+00
      5.814  0.1216E-01  0.1216E-01  0.1329E+00  0.1329E+00
      6.006  0.1660E-01  0.1660E-01  0.1361E+00  0.1361E+00
      6.198  0.4549E-02  0.4549E-02  0.1370E+00  0.1370E+00
      6.391  0.2427E-04  0.2427E-04  0.1370E+00  0.1370E+00
      6.583  0.1424E-01  0.1424E-01  0.1397E+00  0.1397E+00
      6.775  0.6775E-02  0.6775E-02  0.1410E+00  0.1410E+00
      6.968  0.1222E-01  0.1222E-01  0.1434E+00  0.1434E+00
      7.160  0.7872E-02  0.7872E-02  0.1449E+00  0.1449E+00
      7.352  0.1621E-01  0.1621E-01  0.1480E+00  0.1480E+00
      7.544  0.1562E-01  0.1562E-01  0.1510E+00  0.1510E+00
      7.737  0.1119E-01  0.1119E-01  0.1532E+00  0.1532E+00
      7.929  0.1488E-01  0.1488E-01  0.1560E+00  0.1560E+00
      8.121  0.1747E-01  0.1747E-01  0.1594E+00  0.1594E+00
      8.314  0.2373E-01  0.2373E-01  0.1640E+00  0.1640E+00
      8.506  0.1806E-01  0.1805E-01  0.1674E+00  0.1674E+00
      8.698  0.2597E-01  0.2592E-01  0.1724E+00  0.1724E+00
      8.891  0.1467E-01  0.1526E-01  0.1753E+00  0.1754E+00
      9.083  0.3827E-02  0.3310E-02  0.1760E+00  0.1760E+00
      9.275  0.0000E+00  0.0000E+00  0.1760E+00  0.1760E+00
      9.467  0.0000E+00  0.0000E+00  0.1760E+00  0.1760E+00
      9.660  0.0000E+00  0.0000E+00  0.1760E+00  0.1760E+00
      9.852  0.0000E+00  0.0000E+00  0.1760E+00  0.1760E+00
     10.044  0.0000E+00  0.0000E+00  0.1760E+00  0.1760E+00
     10.237  0.0000E+00  0.0000E+00  0.1760E+00  0.1760E+00
     10.429  0.0000E+00  0.0000E+00  0.1760E+00  0.1760E+00
     10.621  0.0000E+00  0.0000E+00  0.1760E+00  0.1760E+00
     10.813  0.0000E+00  0.0000E+00  0.1760E+00  0.1760E+00
     11.006  0.0000E+00  0.0000E+00  0.1760E+00  0.1760E+00
     11.198  0.0000E+00  0.0000E+00  0.1760E+00  0.1760E+00
     11.390  0.0000E+00  0.0000E+00  0.1760E+00  0.1760E+00
     11.583  0.0000E+00  0.0000E+00  0.1760E+00  0.1760E+00
