       N       E                     dE             d eps       ncg     rms          rms(c)
DAV:   1     0.157433894562E+04    0.15743E+04   -0.11165E+05  2320   0.124E+03
DAV:   2    -0.521326395795E+02   -0.16265E+04   -0.15337E+04  2880   0.350E+02
DAV:   3    -0.228418868546E+03   -0.17629E+03   -0.17413E+03  2800   0.116E+02
DAV:   4    -0.242317447265E+03   -0.13899E+02   -0.13872E+02  3488   0.336E+01
DAV:   5    -0.242541131010E+03   -0.22368E+00   -0.22358E+00  3400   0.463E+00
DAV:   6    -0.242552776105E+03   -0.11645E-01   -0.11644E-01  3480   0.105E+00
DAV:   7    -0.242553136135E+03   -0.36003E-03   -0.36001E-03  3440   0.201E-01
DAV:   8    -0.242553157007E+03   -0.20871E-04   -0.20871E-04  3432   0.543E-02
DAV:   9    -0.242553158341E+03   -0.13346E-05   -0.13341E-05  3168   0.127E-02
DAV:  10    -0.242553158414E+03   -0.73283E-07   -0.73521E-07  1976   0.414E-03    0.615E+01
RMM:  11    -0.226803125480E+03    0.15750E+02   -0.59961E+01  2112   0.208E+01    0.307E+01
RMM:  12    -0.256736696900E+03   -0.29934E+02   -0.33843E+01  2235   0.148E+01    0.195E+01
RMM:  13    -0.259025537820E+03   -0.22888E+01   -0.75349E+00  2168   0.516E+00    0.853E+00
RMM:  14    -0.259395149522E+03   -0.36961E+00   -0.25720E+00  2600   0.340E+00    0.320E+00
RMM:  15    -0.259376057461E+03    0.19092E-01   -0.44784E-01  2350   0.174E+00    0.674E-01
RMM:  16    -0.259397953272E+03   -0.21896E-01   -0.12107E-01  2365   0.918E-01    0.310E-01
RMM:  17    -0.259404367046E+03   -0.64138E-02   -0.28288E-02  2607   0.464E-01    0.188E-01
RMM:  18    -0.259406271372E+03   -0.19043E-02   -0.87185E-03  2620   0.226E-01    0.854E-02
RMM:  19    -0.259406800309E+03   -0.52894E-03   -0.23633E-03  3060   0.113E-01    0.437E-02
RMM:  20    -0.259406907376E+03   -0.10707E-03   -0.49577E-04  2720   0.498E-02    0.219E-02
RMM:  21    -0.259406937422E+03   -0.30046E-04   -0.17130E-04  2653   0.302E-02    0.928E-03
RMM:  22    -0.259406945114E+03   -0.76920E-05   -0.58046E-05  2801   0.166E-02    0.566E-03
RMM:  23    -0.259406945334E+03   -0.22000E-06   -0.15334E-05  2382   0.876E-03    0.265E-03
RMM:  24    -0.259406944896E+03    0.43853E-06   -0.50547E-06  1656   0.581E-03
   1 F= -.27147518E+03 E0= -.27147518E+03  d E =-.271475E+03  mag=    -0.0005
       N       E                     dE             d eps       ncg     rms          rms(c)
DAV:   1    -0.259406945840E+03   -0.50571E-06   -0.44946E-05  2456   0.135E-02    0.162E-03
RMM:   2    -0.259406946045E+03   -0.20465E-06   -0.18076E-06  1442   0.530E-03
   2 F= -.27147518E+03 E0= -.27147518E+03  d E =-.124990E-05  mag=    -0.0002
       N       E                     dE             d eps       ncg     rms          rms(c)
DAV:   1    -0.259406946404E+03   -0.56452E-06   -0.23411E-05  2408   0.980E-03    0.833E-04
RMM:   2    -0.259406946462E+03   -0.57869E-07   -0.11119E-06  1393   0.419E-03
   3 F= -.27147518E+03 E0= -.27147518E+03  d E =-.173882E-05  mag=    -0.0000
       N       E                     dE             d eps       ncg     rms          rms(c)
DAV:   1    -0.259406946565E+03   -0.16042E-06   -0.85089E-05  2560   0.178E-02    0.126E-03
RMM:   2    -0.259406946808E+03   -0.24277E-06   -0.32797E-06  1515   0.714E-03
   4 F= -.27147518E+03 E0= -.27147518E+03  d E =-.222636E-05  mag=    -0.0000
       N       E                     dE             d eps       ncg     rms          rms(c)
DAV:   1    -0.259406946772E+03   -0.20720E-06   -0.68073E-06  2264   0.686E-03    0.860E-04
RMM:   2    -0.259406946797E+03   -0.25015E-07   -0.33698E-07  1236   0.250E-03
   5 F= -.27147518E+03 E0= -.27147518E+03  d E =-.217425E-05  mag=    -0.0000
       N       E                     dE             d eps       ncg     rms          rms(c)
DAV:   1    -0.259406946868E+03   -0.95648E-07   -0.36815E-06  1808   0.377E-03    0.374E-04
RMM:   2    -0.259406946879E+03   -0.11112E-07   -0.21745E-07  1196   0.204E-03
   6 F= -.27147518E+03 E0= -.27147518E+03  d E =-.228935E-05  mag=    -0.0000
       N       E                     dE             d eps       ncg     rms          rms(c)
DAV:   1    -0.259406947712E+03   -0.84441E-06   -0.68263E-05  2320   0.145E-02    0.980E-04
RMM:   2    -0.259406947872E+03   -0.15981E-06   -0.18564E-06  1322   0.503E-03
   7 F= -.27147518E+03 E0= -.27147518E+03  d E =-.829896E-06  mag=    -0.0000
       N       E                     dE             d eps       ncg     rms          rms(c)
DAV:   1    -0.259406948765E+03   -0.10530E-05   -0.11467E-04  2416   0.189E-02    0.123E-03
RMM:   2    -0.259406949061E+03   -0.29561E-06   -0.33237E-06  1424   0.690E-03
   8 F= -.27147518E+03 E0= -.27147518E+03  d E =-.180953E-05  mag=    -0.0000
