 vasp.6.4.1 05Apr23 (build Jun 07 2023 15:38:11) complex                        
  
 executed on             LinuxIFC date 2023.10.01  03:56:29
 running  128 mpi-ranks, with    1 threads/rank, on    1 nodes
 distrk:  each k-point on  128 cores,    1 groups
 distr:  one band on NCORE=  32 cores,    4 groups


--------------------------------------------------------------------------------------------------------


 INCAR:
   GGA = PE
   PREC = Accu
   EDIFF = 1.e-5
   EDIFFG = -1.e-2
   ENCUT = 520.
   NELM = 100
   NELMDL = -10
   LASPH = .TRUE.
   LREAL = Auto
   LMAXMIX = 4
   ISPIN = 2
   LDIAG = .TRUE.
   LPLANE = .TRUE.
   IVDW = 12
   SIGMA = 0.03
   ISMEAR = 0
   NSW = 1000    number of steps for IOM
   IBRION = 1    ionic relax: 0-MD 1-quasi-New 2-CG
   ISIF = 2    ionic relaxation + stress tensor calcn.
   LCHARG = .FALSE.
   LWAVE = .FALSE.
   ALGO = V
   KPAR = 1
   NPAR = 4

 POTCAR:    PAW_PBE Li_sv_GW 25Mar2010            
 POTCAR:    PAW_PBE P_GW 19Mar2012                
 POTCAR:    PAW_PBE S_GW 19Mar2012                
 POTCAR:    PAW_PBE Cl_GW 19Mar2012               
 -----------------------------------------------------------------------------
|                                                                             |
|           W    W    AA    RRRRR   N    N  II  N    N   GGGG   !!!           |
|           W    W   A  A   R    R  NN   N  II  NN   N  G    G  !!!           |
|           W    W  A    A  R    R  N N  N  II  N N  N  G       !!!           |
|           W WW W  AAAAAA  RRRRR   N  N N  II  N  N N  G  GGG   !            |
|           WW  WW  A    A  R   R   N   NN  II  N   NN  G    G                |
|           W    W  A    A  R    R  N    N  II  N    N   GGGG   !!!           |
|                                                                             |
|     You use a magnetic or noncollinear calculation, but did not specify     |
|     the initial magnetic moment with the MAGMOM tag. Note that a            |
|     default of 1 will be used for all atoms. This ferromagnetic setup       |
|     may break the symmetry of the crystal, in particular it may rule        |
|     out finding an antiferromagnetic solution. Thence, we recommend         |
|     setting the initial magnetic moment manually or verifying carefully     |
|     that this magnetic setup is desired.                                    |
|                                                                             |
 -----------------------------------------------------------------------------

 POTCAR:    PAW_PBE Li_sv_GW 25Mar2010            
   SHA256 =  24a6ace15a582615486b36ce4dc781b048409f4015b7684ed1273ae395fa2fdc Li_sv_GW/POTCAR       
   COPYR  = (c) Copyright 25Mar2010 Georg Kresse                                                    
   COPYR  = This file is part of the software VASP. Any use, copying, and all other rights are regul
   COPYR  = If you do not have a valid VASP license, you may not use, copy or distribute this file. 
   VRHFIN =Li: 1s2s                                                                                 
   LEXCH  = PE                                                                                      
   EATOM  =   200.9989 eV,   14.7730 Ry                                                             
                                                                                                    
   TITEL  = PAW_PBE Li_sv_GW 25Mar2010                                                              
   LULTRA =        F    use ultrasoft PP ?                                                          
   IUNSCR =        0    unscreen: 0-lin 1-nonlin 2-no                                               
   RPACOR =    0.000    partial core radius                                                         
   POMASS =    7.010; ZVAL   =    3.000    mass and valenz                                          
   RCORE  =    1.500    outmost cutoff radius                                                       
   RWIGS  =    1.600; RWIGS  =    0.847    wigner-seitz radius (au A)                               
   ENMAX  =  433.699; ENMIN  =  325.274 eV                                                          
   RCLOC  =    1.003    cutoff for local pot                                                        
   LCOR   =        T    correct aug charges                                                         
   LPAW   =        T    paw PP                                                                      
   EAUG   = 1041.699                                                                                
   RMAX   =    1.536    core radius for proj-oper                                                   
   RAUG   =    1.300    factor for augmentation sphere                                              
   RDEP   =    1.520    radius for radial grids                                                     
   RDEPT  =    1.300    core radius for aug-charge                                                  
                                                                                                    
   Atomic configuration                                                                             
    4 entries                                                                                       
     n  l   j            E        occ.                                                              
     1  0  0.50       -53.3604   2.0000                                                             
     1  0  0.50       -52.0001   0.0000                                                             
     2  1  0.50        -1.5636   1.0000                                                             
     3  2  1.50        -1.3606   0.0000                                                             
   Description                                                                                      
     l       E           TYP  RCUT    TYP  RCUT                                                     
     0    -53.3603633     23  1.200                                                                 
     0    -52.0001064     23  1.200                                                                 
     0    176.8757380     23  1.300                                                                 
     1     -1.5635925     23  1.500                                                                 
     1    108.8466080     23  1.500                                                                 
     2     81.6349560     23  1.500                                                                 
  local pseudopotential read in
  kinetic energy density of atom read in
  atomic valenz-charges read in
  non local Contribution for L=           0  read in
    real space projection operators read in
  non local Contribution for L=           0  read in
    real space projection operators read in
  non local Contribution for L=           0  read in
    real space projection operators read in
  non local Contribution for L=           1  read in
    real space projection operators read in
  non local Contribution for L=           1  read in
    real space projection operators read in
  non local Contribution for L=           2  read in
    real space projection operators read in
    PAW grid and wavefunctions read in
 
   number of l-projection  operators is LMAX  =           6
   number of lm-projection operators is LMMAX =          14
 
 POTCAR:    PAW_PBE P_GW 19Mar2012                
   SHA256 =  715c28f2291d37b61637ce89646c59f66f71c8b8d8bfba631e5feb9f7b42defe P_GW/POTCAR           
   COPYR  = (c) Copyright 19Mar2012 Georg Kresse                                                    
   COPYR  = This file is part of the software VASP. Any use, copying, and all other rights are regul
   COPYR  = If you do not have a valid VASP license, you may not use, copy or distribute this file. 
   VRHFIN =P : s2p3                                                                                 
   LEXCH  = PE                                                                                      
   EATOM  =   176.0430 eV,   12.9388 Ry                                                             
                                                                                                    
   TITEL  = PAW_PBE P_GW 19Mar2012                                                                  
   LULTRA =        F    use ultrasoft PP ?                                                          
   IUNSCR =        1    unscreen: 0-lin 1-nonlin 2-no                                               
   RPACOR =    1.400    partial core radius                                                         
   POMASS =   30.974; ZVAL   =    5.000    mass and valenz                                          
   RCORE  =    2.000    outmost cutoff radius                                                       
   RWIGS  =    1.900; RWIGS  =    1.005    wigner-seitz radius (au A)                               
   ENMAX  =  255.040; ENMIN  =  191.280 eV                                                          
   ICORE  =        3    local potential                                                             
   LCOR   =        T    correct aug charges                                                         
   LPAW   =        T    paw PP                                                                      
   EAUG   =  499.732                                                                                
   DEXC   =    0.000                                                                                
   RMAX   =    2.047    core radius for proj-oper                                                   
   RAUG   =    1.300    factor for augmentation sphere                                              
   RDEP   =    2.059    radius for radial grids                                                     
   RDEPT  =    1.900    core radius for aug-charge                                                  
                                                                                                    
   Atomic configuration                                                                             
    7 entries                                                                                       
     n  l   j            E        occ.                                                              
     1  0  0.50     -2084.0982   2.0000                                                             
     2  0  0.50      -173.9859   2.0000                                                             
     2  1  1.50      -124.4865   6.0000                                                             
     3  0  0.50       -13.9692   2.0000                                                             
     3  1  0.50        -5.5067   3.0000                                                             
     3  2  1.50        -6.8029   0.0000                                                             
     4  3  2.50        -1.3606   0.0000                                                             
   Description                                                                                      
     l       E           TYP  RCUT    TYP  RCUT                                                     
     0    -13.9691528     23  1.900                                                                 
     0    102.0436950     23  1.900                                                                 
     1     -5.5066939     23  1.900                                                                 
     1    102.0436950     23  1.900                                                                 
     2     -8.1634956     23  2.000                                                                 
     2     81.6349560     23  2.000                                                                 
     3     27.2116520     23  2.000                                                                 
  local pseudopotential read in
  partial core-charges read in
  partial kinetic energy density read in
  kinetic energy density of atom read in
  atomic valenz-charges read in
  non local Contribution for L=           0  read in
    real space projection operators read in
  non local Contribution for L=           0  read in
    real space projection operators read in
  non local Contribution for L=           1  read in
    real space projection operators read in
  non local Contribution for L=           1  read in
    real space projection operators read in
  non local Contribution for L=           2  read in
    real space projection operators read in
  non local Contribution for L=           2  read in
    real space projection operators read in
    PAW grid and wavefunctions read in
 
   number of l-projection  operators is LMAX  =           6
   number of lm-projection operators is LMMAX =          18
 
 POTCAR:    PAW_PBE S_GW 19Mar2012                
   SHA256 =  357db9cfb0783579b2eebe03197c2d807131fea8ea663b1fcfb6ce2fa75af011 S_GW/POTCAR           
   COPYR  = (c) Copyright 19Mar2012 Georg Kresse                                                    
   COPYR  = This file is part of the software VASP. Any use, copying, and all other rights are regul
   COPYR  = If you do not have a valid VASP license, you may not use, copy or distribute this file. 
   VRHFIN =S : s2p4                                                                                 
   LEXCH  = PE                                                                                      
   EATOM  =   276.8230 eV,   20.3459 Ry                                                             
                                                                                                    
   TITEL  = PAW_PBE S_GW 19Mar2012                                                                  
   LULTRA =        F    use ultrasoft PP ?                                                          
   IUNSCR =        1    unscreen: 0-lin 1-nonlin 2-no                                               
   RPACOR =    1.400    partial core radius                                                         
   POMASS =   32.066; ZVAL   =    6.000    mass and valenz                                          
   RCORE  =    1.900    outmost cutoff radius                                                       
   RWIGS  =    1.900; RWIGS  =    1.005    wigner-seitz radius (au A)                               
   ENMAX  =  258.689; ENMIN  =  194.016 eV                                                          
   ICORE  =        3    local potential                                                             
   LCOR   =        T    correct aug charges                                                         
   LPAW   =        T    paw PP                                                                      
   EAUG   =  488.319                                                                                
   DEXC   =    0.000                                                                                
   RMAX   =    1.942    core radius for proj-oper                                                   
   RAUG   =    1.300    factor for augmentation sphere                                              
   RDEP   =    1.954    radius for radial grids                                                     
   RDEPT  =    1.900    core radius for aug-charge                                                  
                                                                                                    
   Atomic configuration                                                                             
    7 entries                                                                                       
     n  l   j            E        occ.                                                              
     1  0  0.50     -2405.8406   2.0000                                                             
     2  0  0.50      -211.7007   2.0000                                                             
     2  1  1.50      -156.4958   6.0000                                                             
     3  0  0.50       -17.2562   2.0000                                                             
     3  1  0.50        -7.0085   4.0000                                                             
     3  2  1.50        -8.1635   0.0000                                                             
     4  3  2.50        -1.3606   0.0000                                                             
   Description                                                                                      
     l       E           TYP  RCUT    TYP  RCUT                                                     
     0    -17.2561639     23  1.700                                                                 
     0     88.4378690     23  1.900                                                                 
     1     -7.0085399     23  1.900                                                                 
     1     88.4378690     23  1.900                                                                 
     2    -10.8846608     23  1.900                                                                 
     2     54.4233040     23  1.900                                                                 
     3     27.2116520     23  1.800                                                                 
  local pseudopotential read in
  partial core-charges read in
  partial kinetic energy density read in
  kinetic energy density of atom read in
  atomic valenz-charges read in
  non local Contribution for L=           0  read in
    real space projection operators read in
  non local Contribution for L=           0  read in
    real space projection operators read in
  non local Contribution for L=           1  read in
    real space projection operators read in
  non local Contribution for L=           1  read in
    real space projection operators read in
  non local Contribution for L=           2  read in
    real space projection operators read in
  non local Contribution for L=           2  read in
    real space projection operators read in
    PAW grid and wavefunctions read in
 
   number of l-projection  operators is LMAX  =           6
   number of lm-projection operators is LMMAX =          18
 
 POTCAR:    PAW_PBE Cl_GW 19Mar2012               
   SHA256 =  3ef3b3169d6a9a89979f58b4cf17d927a58518fc660d8883d88cacaee8175441 Cl_GW/POTCAR          
   COPYR  = (c) Copyright 19Mar2012 Georg Kresse                                                    
   COPYR  = This file is part of the software VASP. Any use, copying, and all other rights are regul
   COPYR  = If you do not have a valid VASP license, you may not use, copy or distribute this file. 
   VRHFIN =Cl: s2p5                                                                                 
   LEXCH  = PE                                                                                      
   EATOM  =   409.7259 eV,   30.1140 Ry                                                             
                                                                                                    
   TITEL  = PAW_PBE Cl_GW 19Mar2012                                                                 
   LULTRA =        F    use ultrasoft PP ?                                                          
   IUNSCR =        1    unscreen: 0-lin 1-nonlin 2-no                                               
   RPACOR =    1.400    partial core radius                                                         
   POMASS =   35.453; ZVAL   =    7.000    mass and valenz                                          
   RCORE  =    1.900    outmost cutoff radius                                                       
   RWIGS  =    1.900; RWIGS  =    1.005    wigner-seitz radius (au A)                               
   ENMAX  =  262.472; ENMIN  =  196.854 eV                                                          
   ICORE  =        3    local potential                                                             
   LCOR   =        T    correct aug charges                                                         
   LPAW   =        T    paw PP                                                                      
   EAUG   =  456.703                                                                                
   DEXC   =    0.000                                                                                
   RMAX   =    1.945    core radius for proj-oper                                                   
   RAUG   =    1.300    factor for augmentation sphere                                              
   RDEP   =    2.020    radius for radial grids                                                     
   RDEPT  =    1.900    core radius for aug-charge                                                  
                                                                                                    
   Atomic configuration                                                                             
    7 entries                                                                                       
     n  l   j            E        occ.                                                              
     1  0  0.50     -2751.1850   2.0000                                                             
     2  0  0.50      -252.6861   2.0000                                                             
     2  1  1.50      -191.6157   6.0000                                                             
     3  0  0.50       -20.6916   2.0000                                                             
     3  1  0.50        -8.5949   5.0000                                                             
     3  2  1.50        -9.5241   0.0000                                                             
     4  3  2.50        -9.5241   0.0000                                                             
   Description                                                                                      
     l       E           TYP  RCUT    TYP  RCUT                                                     
     0    -20.6915657     23  1.700                                                                 
     0     95.2407820     23  1.800                                                                 
     1     -8.5948577     23  1.900                                                                 
     1     95.2407820     23  1.900                                                                 
     2    -10.8846608     23  1.900                                                                 
     2     54.4233040     23  1.900                                                                 
     3     27.2116520     23  1.900                                                                 
  local pseudopotential read in
  partial core-charges read in
  partial kinetic energy density read in
  kinetic energy density of atom read in
  atomic valenz-charges read in
  non local Contribution for L=           0  read in
    real space projection operators read in
  non local Contribution for L=           0  read in
    real space projection operators read in
  non local Contribution for L=           1  read in
    real space projection operators read in
  non local Contribution for L=           1  read in
    real space projection operators read in
  non local Contribution for L=           2  read in
    real space projection operators read in
  non local Contribution for L=           2  read in
    real space projection operators read in
    PAW grid and wavefunctions read in
 
   number of l-projection  operators is LMAX  =           6
   number of lm-projection operators is LMMAX =          18
 
 Optimization of the real space projectors (new method)

 maximal supplied QI-value         = 25.13
 optimisation between [QCUT,QGAM] = [ 11.56, 23.12] = [ 37.43,149.72] Ry 
 Optimized for a Real-space Cutoff    1.28 Angstroem

   l    n(q)    QCUT    max X(q) W(low)/X(q) W(high)/X(q)  e(spline) 
   0      9    11.561    87.733    0.11E-03    0.32E-04    0.56E-06
   0      9    11.561    82.800    0.11E-03    0.35E-04    0.56E-06
   0      9    11.561     2.509    0.22E-03    0.42E-04    0.79E-06
   1      8    11.561    12.580    0.94E-04    0.26E-03    0.21E-06
   1      8    11.561     1.319    0.33E-04    0.15E-03    0.19E-06
   2      8    11.561     1.993    0.36E-04    0.89E-04    0.26E-06
 Optimization of the real space projectors (new method)

 maximal supplied QI-value         = 18.90
 optimisation between [QCUT,QGAM] = [ 11.53, 23.24] = [ 37.21,151.29] Ry 
 Optimized for a Real-space Cutoff    1.21 Angstroem

   l    n(q)    QCUT    max X(q) W(low)/X(q) W(high)/X(q)  e(spline) 
   0      8    11.527     8.355    0.73E-04    0.70E-04    0.26E-07
   0      8    11.527     1.401    0.17E-03    0.17E-03    0.63E-07
   1      8    11.527     4.747    0.13E-03    0.17E-03    0.11E-06
   1      8    11.527     2.025    0.16E-03    0.18E-03    0.12E-06
   2      7    11.527     3.169    0.51E-04    0.25E-03    0.60E-07
   2      7    11.527     3.441    0.82E-04    0.22E-03    0.14E-06
 Optimization of the real space projectors (new method)

 maximal supplied QI-value         = 19.84
 optimisation between [QCUT,QGAM] = [ 11.51, 23.22] = [ 37.09,150.92] Ry 
 Optimized for a Real-space Cutoff    1.49 Angstroem

   l    n(q)    QCUT    max X(q) W(low)/X(q) W(high)/X(q)  e(spline) 
   0     10    11.508     7.541    0.34E-04    0.13E-04    0.69E-07
   0     10    11.508     1.809    0.49E-04    0.27E-04    0.14E-06
   1     10    11.508     4.107    0.27E-05    0.41E-05    0.14E-06
   1     10    11.508     2.196    0.26E-05    0.25E-05    0.22E-06
   2      9    11.508     4.265    0.18E-03    0.11E-03    0.81E-06
   2      9    11.508     1.925    0.97E-04    0.76E-04    0.47E-06
 Optimization of the real space projectors (new method)

 maximal supplied QI-value         = 19.84
 optimisation between [QCUT,QGAM] = [ 11.51, 23.22] = [ 37.09,150.92] Ry 
 Optimized for a Real-space Cutoff    1.21 Angstroem

   l    n(q)    QCUT    max X(q) W(low)/X(q) W(high)/X(q)  e(spline) 
   0      8    11.508     6.761    0.57E-04    0.57E-04    0.35E-07
   0      8    11.508     1.642    0.14E-03    0.14E-03    0.91E-07
   1      8    11.508     3.519    0.20E-04    0.72E-04    0.47E-07
   1      8    11.508     2.150    0.27E-04    0.11E-03    0.89E-07
   2      7    11.508     2.976    0.19E-03    0.33E-03    0.16E-06
   2      7    11.508     1.494    0.14E-03    0.29E-03    0.14E-06
  PAW_PBE Li_sv_GW 25Mar2010            :
 energy of atom  1       EATOM= -200.9989
 kinetic energy error for atom=    0.0127 (will be added to EATOM!!)
  PAW_PBE P_GW 19Mar2012                :
 energy of atom  2       EATOM= -176.0430
 kinetic energy error for atom=    0.0011 (will be added to EATOM!!)
  PAW_PBE S_GW 19Mar2012                :
 energy of atom  3       EATOM= -276.8230
 kinetic energy error for atom=    0.0024 (will be added to EATOM!!)
  PAW_PBE Cl_GW 19Mar2012               :
 energy of atom  4       EATOM= -409.7259
 kinetic energy error for atom=    0.0030 (will be added to EATOM!!)
 
 
 POSCAR: Li24 P4 S20 Cl4
  positions in direct lattice
  No initial velocities read in
 exchange correlation table for  LEXCH =        8
   RHO(1)=    0.500       N(1)  =     2000
   RHO(2)=  100.500       N(2)  =     4000

 VTST: version 4.1, (05/19/21)

 CHAIN: initializing optimizer
 
 OPT: Using VASP QUASI-newton optimizer
 CHAIN: Read ICHAIN            0
 
 POSCAR: Li24 P4 S20 Cl4
  positions in direct lattice
  No initial velocities read in
 


--------------------------------------------------------------------------------------------------------


 ion  position               nearest neighbor table
   1  0.977  0.250  0.250-
   2  0.977  0.750  0.750-
   3  0.023  0.250  0.750-
   4  0.023  0.750  0.250-
   5  0.250  0.250  0.977-
   6  0.250  0.750  0.023-
   7  0.750  0.250  0.023-
   8  0.750  0.750  0.977-
   9  0.250  0.977  0.250-
  10  0.250  0.023  0.750-
  11  0.750  0.977  0.750-
  12  0.750  0.023  0.250-
  13  0.250  0.750  0.477-
  14  0.250  0.250  0.523-
  15  0.750  0.750  0.523-
  16  0.750  0.250  0.477-
  17  0.250  0.477  0.750-
  18  0.250  0.523  0.250-
  19  0.750  0.477  0.250-
  20  0.750  0.523  0.750-
  21  0.477  0.250  0.750-
  22  0.477  0.750  0.250-
  23  0.523  0.250  0.250-
  24  0.523  0.750  0.750-
  25  0.500  0.500  0.500-  44 2.05  43 2.05  41 2.05  42 2.05
  26  0.500  1.000  1.000-  40 2.05  39 2.05  37 2.05  38 2.05
  27  1.000  0.500  0.000-  34 2.05  33 2.05  35 2.05  36 2.05
  28  1.000  0.000  0.500-  31 2.05  32 2.05  29 2.05  30 2.05
  29  0.118  0.882  0.618-  28 2.05
  30  0.118  0.118  0.382-  28 2.05
  31  0.882  0.882  0.382-  28 2.05
  32  0.882  0.118  0.618-  28 2.05
  33  0.882  0.618  0.118-  27 2.05
  34  0.882  0.382  0.882-  27 2.05
  35  0.118  0.618  0.882-  27 2.05
  36  0.118  0.382  0.118-  27 2.05
  37  0.618  0.118  0.882-  26 2.05
  38  0.618  0.882  0.118-  26 2.05
  39  0.382  0.118  0.118-  26 2.05
  40  0.382  0.882  0.882-  26 2.05
  41  0.618  0.618  0.382-  25 2.05
  42  0.618  0.382  0.618-  25 2.05
  43  0.382  0.618  0.618-  25 2.05
  44  0.382  0.382  0.382-  25 2.05
  45  0.750  0.750  0.750-
  46  0.750  0.250  0.250-
  47  0.250  0.750  0.250-
  48  0.250  0.250  0.750-
  49  1.000  0.000  0.000-
  50  1.000  0.500  0.500-
  51  0.500  1.000  0.500-
  52  0.500  0.500  1.000-
 
  LATTYP: Found a simple cubic cell.
 ALAT       =    10.0286120784
  
  Lattice vectors:
  
 A1 = (  10.0286120784,   0.0000000000,   0.0000000000)
 A2 = (   0.0000000000,  10.0286120784,   0.0000000000)
 A3 = (   0.0000000000,   0.0000000000,  10.0286120784)


Analysis of symmetry for initial positions (statically):
=====================================================================
 Subroutine PRICEL returns following result:
 
  LATTYP: Found a simple tetragonal cell.
 ALAT       =     7.0912996066
 C/A-ratio  =     1.4142135624
  
  Lattice vectors:
  
 A1 = (   0.0000000000,   5.0143060392,  -5.0143060392)
 A2 = (   0.0000000000,   5.0143060392,   5.0143060392)
 A3 = (  10.0286120784,   0.0000000000,   0.0000000000)
 
   2 primitive cells build up your supercell.
 

 Routine SETGRP: Setting up the symmetry group for a 
 simple cubic supercell.


 Subroutine GETGRP returns: Found  2 space group operations
 (whereof  2 operations were pure point group operations)
 out of a pool of 48 trial point group operations.


The static configuration has the point symmetry C_1h.


Analysis of symmetry for dynamics (positions and initial velocities):
=====================================================================
 Subroutine PRICEL returns following result:
 
  LATTYP: Found a simple tetragonal cell.
 ALAT       =     7.0912996066
 C/A-ratio  =     1.4142135624
  
  Lattice vectors:
  
 A1 = (   0.0000000000,   5.0143060392,  -5.0143060392)
 A2 = (   0.0000000000,   5.0143060392,   5.0143060392)
 A3 = (  10.0286120784,   0.0000000000,   0.0000000000)
 
   2 primitive cells build up your supercell.
 

 Routine SETGRP: Setting up the symmetry group for a 
 simple cubic supercell.


 Subroutine GETGRP returns: Found  2 space group operations
 (whereof  2 operations were pure point group operations)
 out of a pool of 48 trial point group operations.


The dynamic configuration has the point symmetry C_1h.


Analysis of structural, dynamic, and magnetic symmetry:
=====================================================================
 Subroutine PRICEL returns following result:
 
  LATTYP: Found a simple tetragonal cell.
 ALAT       =     7.0912996066
 C/A-ratio  =     1.4142135624
  
  Lattice vectors:
  
 A1 = (   0.0000000000,   5.0143060392,  -5.0143060392)
 A2 = (   0.0000000000,   5.0143060392,   5.0143060392)
 A3 = (  10.0286120784,   0.0000000000,   0.0000000000)
 
   2 primitive cells build up your supercell.
 

 Routine SETGRP: Setting up the symmetry group for a 
 simple cubic supercell.


 Subroutine GETGRP returns: Found  2 space group operations
 (whereof  2 operations were pure point group operations)
 out of a pool of 48 trial point group operations.


The overall configuration has the point symmetry C_1h.


 Subroutine INISYM returns: Found  2 space group operations
 (whereof  2 operations are pure point group operations),
 and found     2 'primitive' translations


----------------------------------------------------------------------------------------

                                     Primitive cell                                     

  volume of cell :     504.3041

  direct lattice vectors                    reciprocal lattice vectors
     0.000000000  5.014306039 -5.014306039     0.000000000  0.099714696 -0.099714696
     0.000000000  5.014306039  5.014306039     0.000000000  0.099714696  0.099714696
    10.028612078  0.000000000  0.000000000     0.099714696  0.000000000  0.000000000

  length of vectors
     7.091299607  7.091299607 10.028612078     0.141017875  0.141017875  0.099714696

  position of ions in fractional coordinates (direct lattice)
     0.000000000  0.499895929  0.977051400
     0.500000000  0.000419449  0.022694806
     0.273195130  0.226626350  0.249985662
     0.726865983  0.773374601  0.249868243
     0.226581263  0.273217273  0.749979107
     0.773258258  0.726599869  0.750021841
     0.726804870  0.226626350  0.249985662
     0.273134017  0.773374601  0.249868243
     0.226741742  0.726599869  0.750021841
     0.773418737  0.273217273  0.749979107
     0.500000000  0.999955027  0.476668193
     0.000000000  0.499932478  0.523178628
     0.000000000  0.999893524  0.500198385
     0.500000000  0.500173934  0.999916723
     0.263971646  0.499988574  0.118202299
     0.736028354  0.499988574  0.118202299
     0.500000000  0.264374720  0.881627014
     0.500000000  0.736253077  0.881845353
     0.236211794  0.999895093  0.618278940
     0.763788206  0.999895093  0.618278940
     1.000000000  0.235935302  0.382060929
     0.000000000  0.763920404  0.382034302
     0.000000000  0.499983299  0.750116376
     0.500000000  0.999975725  0.249671515
     0.000000000  0.000006139  0.999983633
     0.500000000  0.499877474  0.500280558

  ion indices of the primitive-cell ions
   primitive index   ion index
                 1           1
                 2           3
                 3           5
                 4          14
                 5           7
                 6          16
                 7           9
                 8          18
                 9          19
                10          12
                11          21
                12          23
                13          25
                14          27
                15          36
                16          30
                17          31
                18          32
                19          41
                20          42
                21          39
                22          44
                23          46
                24          47
                25          49
                26          52

----------------------------------------------------------------------------------------

 
 
 KPOINTS: Automatic mesh                          

Automatic generation of k-mesh.
 Grid dimensions read from file:
 generate k-points for:    2    2    2

 Generating k-lattice:

  Cartesian coordinates                     Fractional coordinates (reciprocal lattice)
     0.049857348  0.000000000  0.000000000     0.500000000  0.000000000  0.000000000
     0.000000000  0.049857348  0.000000000     0.000000000  0.500000000  0.000000000
     0.000000000  0.000000000  0.049857348     0.000000000  0.000000000  0.500000000

  Length of vectors
     0.049857348  0.049857348  0.049857348

  Shift w.r.t. Gamma in fractional coordinates (k-lattice)
     0.500000000  0.500000000  0.500000000

 
 Subroutine IBZKPT returns following result:
 ===========================================
 
 Found      3 irreducible k-points:
 
 Following reciprocal coordinates:
            Coordinates               Weight
  0.250000  0.250000  0.250000      2.000000
 -0.250000  0.250000  0.250000      2.000000
 -0.250000 -0.250000  0.250000      4.000000
 
 Following cartesian coordinates:
            Coordinates               Weight
  0.024929  0.024929  0.024929      2.000000
 -0.024929  0.024929  0.024929      2.000000
 -0.024929 -0.024929  0.024929      4.000000
 


--------------------------------------------------------------------------------------------------------




 Dimension of arrays:
   k-points           NKPTS =      3   k-points in BZ     NKDIM =      3   number of bands    NBANDS=    176
   number of dos      NEDOS =    301   number of ions     NIONS =     52
   non local maximal  LDIM  =      6   non local SUM 2l+1 LMDIM =     18
   total plane-waves  NPLWV = 512000
   max r-space proj   IRMAX =   7071   max aug-charges    IRDMAX=  21622
   dimension x,y,z NGX =    80 NGY =   80 NGZ =   80
   dimension x,y,z NGXF=   160 NGYF=  160 NGZF=  160
   support grid    NGXF=   160 NGYF=  160 NGZF=  160
   ions per type =              24   4  20   4
   NGX,Y,Z   is equivalent  to a cutoff of  13.26, 13.26, 13.26 a.u.
   NGXF,Y,Z  is equivalent  to a cutoff of  26.52, 26.52, 26.52 a.u.

 SYSTEM =  unknown system                          
 POSCAR =  Li24 P4 S20 Cl4                         

 Startparameter for this run:
   NWRITE =      2    write-flag & timer
   PREC   = accu      normal or accurate (medium, high low for compatibility)
   ISTART =      0    job   : 0-new  1-cont  2-samecut
   ICHARG =      2    charge: 1-file 2-atom 10-const
   ISPIN  =      2    spin polarized calculation?
   LNONCOLLINEAR =      F non collinear calculations
   LSORBIT =      F    spin-orbit coupling
   INIWAV =      1    electr: 0-lowe 1-rand  2-diag
   LASPH  =      T    aspherical Exc in radial PAW
 Electronic Relaxation 1
   ENCUT  =  520.0 eV  38.22 Ry    6.18 a.u.  18.65 18.65 18.65*2*pi/ulx,y,z
   ENINI  =  520.0     initial cutoff
   ENAUG  = 1041.7 eV  augmentation charge cutoff
   NELM   =    100;   NELMIN=  2; NELMDL=-10     # of ELM steps 
   EDIFF  = 0.1E-04   stopping-criterion for ELM
   LREAL  =      T    real-space projection
   NLSPLINE    = F    spline interpolate recip. space projectors
   LCOMPAT=      F    compatible to vasp.4.4
   GGA_COMPAT  = T    GGA compatible to vasp.4.4-vasp.4.6
   LMAXPAW     = -100 max onsite density
   LMAXMIX     =    4 max onsite mixed and CHGCAR
   VOSKOWN=      0    Vosko Wilk Nusair interpolation
   ROPT   =   -0.00025  -0.00025  -0.00025  -0.00025
 Ionic relaxation
   EDIFFG = -.1E-01   stopping-criterion for IOM
   NSW    =   1000    number of steps for IOM
   NBLOCK =      1;   KBLOCK =   1000    inner block; outer block 
   IBRION =      1    ionic relax: 0-MD 1-quasi-New 2-CG
   NFREE  =      0    steps in history (QN), initial steepest desc. (CG)
   ISIF   =      2    stress and relaxation
   IWAVPR =     11    prediction:  0-non 1-charg 2-wave 3-comb
   ISYM   =      2    0-nonsym 1-usesym 2-fastsym
   LCORR  =      T    Harris-Foulkes like correction to forces

   POTIM  = 0.5000    time-step for ionic-motion
   TEIN   =    0.0    initial temperature
   TEBEG  =    0.0;   TEEND  =   0.0 temperature during run
   SMASS  =  -3.00    Nose mass-parameter (am)
   estimated Nose-frequenzy (Omega)   =  0.10E-29 period in steps = 0.13E+47 mass=  -0.230E-26a.u.
   SCALEE = 1.0000    scale energy and forces
   NPACO  =    256;   APACO  = 10.0  distance and # of slots for P.C.
   PSTRESS=    0.0 pullay stress

  Mass of Ions in am
   POMASS =   7.01 30.97 32.07 35.45
  Ionic Valenz
   ZVAL   =   3.00  5.00  6.00  7.00
  Atomic Wigner-Seitz radii
   RWIGS  =  -1.00 -1.00 -1.00 -1.00
  virtual crystal weights 
   VCA    =   1.00  1.00  1.00  1.00
   NELECT =     240.0000    total number of electrons
   NUPDOWN=      -1.0000    fix difference up-down

 DOS related values:
   EMIN   =  10.00;   EMAX   =-10.00  energy-range for DOS
   EFERMI =   0.00;   METHOD = LEGACY      
   ISMEAR =     0;   SIGMA  =   0.03  broadening in eV -4-tet -1-fermi 0-gaus

 Electronic relaxation 2 (details)
   IALGO  =     48    algorithm
   LDIAG  =      T    sub-space diagonalisation (order eigenvalues)
   LSUBROT=      F    optimize rotation matrix (better conditioning)
   TURBO    =      0    0=normal 1=particle mesh
   IRESTART =      0    0=no restart 2=restart with 2 vectors
   NREBOOT  =      0    no. of reboots
   NMIN     =      0    reboot dimension
   EREF     =   0.00    reference energy to select bands
   IMIX   =      4    mixing-type and parameters
     AMIX     =   0.40;   BMIX     =  1.00
     AMIX_MAG =   1.60;   BMIX_MAG =  1.00
     AMIN     =   0.10
     WC   =   100.;   INIMIX=   1;  MIXPRE=   1;  MAXMIX= -45

 Intra band minimization:
   WEIMIN = 0.0010     energy-eigenvalue tresh-hold
   EBREAK =  0.14E-07  absolut break condition
   DEPER  =   0.30     relativ break condition  

   TIME   =   0.40     timestep for ELM

  volume/ion in A,a.u.               =      19.40       130.89
  Fermi-wavevector in a.u.,A,eV,Ry     =   1.014467  1.917064 14.002333  1.029142
  Thomas-Fermi vector in A             =   2.147696
 
 Write flags
   LWAVE        =      F    write WAVECAR
   LDOWNSAMPLE  =      F    k-point downsampling of WAVECAR
   LCHARG       =      F    write CHGCAR
   LVTOT        =      F    write LOCPOT, total local potential
   LVHAR        =      F    write LOCPOT, Hartree potential only
   LELF         =      F    write electronic localiz. function (ELF)
   LORBIT       =      0    0 simple, 1 ext, 2 COOP (PROOUT), +10 PAW based schemes


 Dipole corrections
   LMONO  =      F    monopole corrections only (constant potential shift)
   LDIPOL =      F    correct potential (dipole corrections)
   IDIPOL =      0    1-x, 2-y, 3-z, 4-all directions 
   EPSILON=  1.0000000 bulk dielectric constant

 Exchange correlation treatment:
   GGA     =    PE    GGA type
   LEXCH   =     8    internal setting for exchange type
   LIBXC   =     F    Libxc                    
   VOSKOWN =     0    Vosko Wilk Nusair interpolation
   LHFCALC =     F    Hartree Fock is set to
   LHFONE  =     F    Hartree Fock one center treatment
   AEXX    =    0.0000 exact exchange contribution

 Linear response parameters
   LEPSILON=     F    determine dielectric tensor
   LRPA    =     F    only Hartree local field effects (RPA)
   LNABLA  =     F    use nabla operator in PAW spheres
   LVEL    =     F    velocity operator in full k-point grid
   CSHIFT  =0.1000    complex shift for real part using Kramers Kronig
   OMEGAMAX=  -1.0    maximum frequency
   DEG_THRESHOLD= 0.2000000E-02 threshold for treating states as degnerate
   RTIME   =   -0.100 relaxation time in fs
  (WPLASMAI=    0.000 imaginary part of plasma frequency in eV, 0.658/RTIME)
   DFIELD  = 0.0000000 0.0000000 0.0000000 field for delta impulse in time
 
  Optional k-point grid parameters
   LKPOINTS_OPT  =     F    use optional k-point grid
   KPOINTS_OPT_MODE=     1    mode for optional k-point grid
 
 Orbital magnetization related:
   ORBITALMAG=     F  switch on orbital magnetization
   LCHIMAG   =     F  perturbation theory with respect to B field
   DQ        =  0.001000  dq finite difference perturbation B field
   LLRAUG    =     F  two centre corrections for induced B field
   LBONE     =     F  B-component reconstruction in AE one-centre
   LVGVCALC  =     T  calculate vGv susceptibility
   LVGVAPPL  =     F  apply vGv susceptibility instead of pGv for G=0

 Random number generation:
   RANDOM_GENERATOR = DEFAULT
   PCG_SEED         = not used


--------------------------------------------------------------------------------------------------------


 quasi-Newton-method for relaxation of ions
 charge density and potential will be updated during run
 spin polarized calculation
 RMM-DIIS sequential band-by-band
 perform sub-space diagonalisation
    before iterative eigenvector-optimisation
 modified Broyden-mixing scheme, WC =      100.0
 initial mixing is a Kerker type mixing with AMIX =  0.4000 and BMIX =      1.0000
 Hartree-type preconditioning will be used
 using additional bands           56
 real space projection scheme for non local part
 use partial core corrections
 calculate Harris-corrections to forces 
   (improved forces if not selfconsistent)
 use gradient corrections 
 use of overlap-Matrix (Vanderbilt PP)
 Gauss-broadening in eV      SIGMA  =   0.03


--------------------------------------------------------------------------------------------------------


  energy-cutoff  :      520.00
  volume of cell :     1008.61
      direct lattice vectors                 reciprocal lattice vectors
    10.028612078  0.000000000  0.000000000     0.099714696  0.000000000  0.000000000
     0.000000000 10.028612078  0.000000000     0.000000000  0.099714696  0.000000000
     0.000000000  0.000000000 10.028612078     0.000000000  0.000000000  0.099714696

  length of vectors
    10.028612078 10.028612078 10.028612078     0.099714696  0.099714696  0.099714696


 
 k-points in units of 2pi/SCALE and weight: Automatic mesh                          
   0.02492867  0.02492867  0.02492867       0.250
  -0.02492867  0.02492867  0.02492867       0.250
  -0.02492867 -0.02492867  0.02492867       0.500
 
 k-points in reciprocal lattice and weights: Automatic mesh                          
   0.25000000  0.25000000  0.25000000       0.250
  -0.25000000  0.25000000  0.25000000       0.250
  -0.25000000 -0.25000000  0.25000000       0.500
 
 position of ions in fractional coordinates (direct lattice) 
   0.97705140  0.24994796  0.24994796
   0.97705140  0.74994796  0.74994796
   0.02269481  0.25020972  0.75020972
   0.02269481  0.75020972  0.25020972
   0.24998566  0.24991074  0.97671561
   0.24986824  0.75012029  0.02325431
   0.74997911  0.24989927  0.02331800
   0.75002184  0.74992906  0.97667081
   0.24998566  0.97671561  0.24991074
   0.24986824  0.02325431  0.75012029
   0.75002184  0.97667081  0.74992906
   0.74997911  0.02331800  0.24989927
   0.24998566  0.74991074  0.47671561
   0.24986824  0.25012029  0.52325431
   0.74997911  0.74989927  0.52331800
   0.75002184  0.24992906  0.47667081
   0.24998566  0.47671561  0.74991074
   0.24986824  0.52325431  0.25012029
   0.75002184  0.47667081  0.24992906
   0.74997911  0.52331800  0.74989927
   0.47666819  0.24997751  0.74997751
   0.47666819  0.74997751  0.24997751
   0.52317863  0.24996624  0.24996624
   0.52317863  0.74996624  0.74996624
   0.50019838  0.49994676  0.49994676
   0.50019838  0.99994676  0.99994676
   0.99991672  0.50008697  0.00008697
   0.99991672  0.00008697  0.50008697
   0.11820230  0.88198011  0.61800846
   0.11820230  0.11800846  0.38198011
   0.88162701  0.88218736  0.38218736
   0.88184535  0.11812654  0.61812654
   0.88184535  0.61812654  0.11812654
   0.88162701  0.38218736  0.88218736
   0.11820230  0.61800846  0.88198011
   0.11820230  0.38198011  0.11800846
   0.61827894  0.11805344  0.88184165
   0.61827894  0.88184165  0.11805344
   0.38206093  0.11796765  0.11796765
   0.38203430  0.88196020  0.88196020
   0.61827894  0.61805344  0.38184165
   0.61827894  0.38184165  0.61805344
   0.38206093  0.61796765  0.61796765
   0.38203430  0.38196020  0.38196020
   0.75011638  0.74999165  0.74999165
   0.75011638  0.24999165  0.24999165
   0.24967151  0.74998786  0.24998786
   0.24967151  0.24998786  0.74998786
   0.99998363  0.00000307  0.00000307
   0.99998363  0.50000307  0.50000307
   0.50028056  0.99993874  0.49993874
   0.50028056  0.49993874  0.99993874
 
 position of ions in cartesian coordinates  (Angst):
   9.79846948  2.50663117  2.50663117
   9.79846948  7.52093721  7.52093721
   0.22759740  2.50925626  7.52356230
   0.22759740  7.52356230  2.50925626
   2.50700923  2.50625786  9.79510196
   2.50583168  7.52266542  0.23320844
   7.52124953  2.50614281  0.23384723
   7.52167809  7.52074766  9.79465264
   2.50700923  9.79510196  2.50625786
   2.50583168  0.23320844  7.52266542
   7.52167809  9.79465264  7.52074766
   7.52124953  0.23384723  2.50614281
   2.50700923  7.52056390  4.78079592
   2.50583168  2.50835939  5.24751448
   7.52124953  7.52044885  5.24815327
   7.52167809  2.50644162  4.78034660
   2.50700923  4.78079592  7.52056390
   2.50583168  5.24751448  2.50835939
   7.52167809  4.78034660  2.50644162
   7.52124953  5.24815327  7.52044885
   4.78032039  2.50692751  7.52123355
   4.78032039  7.52123355  2.50692751
   5.24675551  2.50681444  2.50681444
   5.24675551  7.52112048  7.52112048
   5.01629556  5.01377213  5.01377213
   5.01629556 10.02807817 10.02807817
  10.02777693  5.01517820  0.00087216
  10.02777693  0.00087216  5.01517820
   1.18540500  8.84503638  6.19776715
   1.18540500  1.18346111  3.83073034
   8.84149532  8.84711481  3.83280877
   8.84368496  1.18464523  6.19895127
   8.84368496  6.19895127  1.18464523
   8.84149532  3.83280877  8.84711481
   1.18540500  6.19776715  8.84503638
   1.18540500  3.83073034  1.18346111
   6.20047964  1.18391219  8.84364782
   6.20047964  8.84364782  1.18391219
   3.83154085  1.18305181  1.18305181
   3.83127381  8.84483673  8.84483673
   6.20047964  6.19821823  3.82934178
   6.20047964  3.82934178  6.19821823
   3.83154085  6.19735785  6.19735785
   3.83127381  3.83053069  3.83053069
   7.52262615  7.52137531  7.52137531
   7.52262615  2.50706928  2.50706928
   2.50385877  7.52133733  2.50703130
   2.50385877  2.50703130  7.52133733
  10.02844794  0.00003078  0.00003078
  10.02844794  5.01433682  5.01433682
   5.01711965 10.02799769  5.01369165
   5.01711965  5.01369165 10.02799769
 


--------------------------------------------------------------------------------------------------------


 k-point   1 :   0.2500 0.2500 0.2500  plane waves:   27169
 k-point   2 :  -0.2500 0.2500 0.2500  plane waves:   27169
 k-point   3 :  -0.2500-0.2500 0.2500  plane waves:   27169

 maximum and minimum number of plane-waves per node :       862      835

 maximum number of plane-waves:     27169
 maximum index in each direction: 
   IXMAX=   18   IYMAX=   18   IZMAX=   18
   IXMIN=  -18   IYMIN=  -18   IZMIN=  -18


 real space projection operators:
  total allocation   :      34882.03 KBytes
  max/ min on nodes  :       1344.59        816.78


 parallel 3D FFT for wavefunctions:
    minimum data exchange during FFTs selected (reduces bandwidth)
 parallel 3D FFT for charge:
    minimum data exchange during FFTs selected (reduces bandwidth)


 total amount of memory used by VASP MPI-rank0    50377. kBytes
=======================================================================

   base      :      30000. kBytes
   nonlr-proj:       7915. kBytes
   fftplans  :       2173. kBytes
   grid      :       6510. kBytes
   one-center:         62. kBytes
   wavefun   :       3717. kBytes
 
     INWAV:  cpu time      0.0000: real time      0.0000
 Broyden mixing: mesh for mixing (old mesh)
   NGX = 37   NGY = 37   NGZ = 37
  (NGX  =160   NGY  =160   NGZ  =160)
  gives a total of  50653 points

 initial charge density was supplied:
 charge density of overlapping atoms calculated
 number of electron     240.0000000 magnetization      52.0000000
 keeping initial charge density in first step


--------------------------------------------------------------------------------------------------------


 Maximum index for non-local projection operator          456
 Maximum index for augmentation-charges          917 (set IRDMAX)


--------------------------------------------------------------------------------------------------------


 First call to EWALD:  gamma=   0.177
 Maximum number of real-space cells 3x 3x 3
 Maximum number of reciprocal cells 3x 3x 3

    FEWALD:  cpu time      0.0024: real time      0.0029


--------------------------------------- Ionic step        1  -------------------------------------------




--------------------------------------- Iteration      1(   1)  ---------------------------------------


    POTLOK:  cpu time      0.0753: real time      0.0828
    SETDIJ:  cpu time      0.4107: real time      0.4183
    EDDIAG:  cpu time      0.5235: real time      0.5699
  RMM-DIIS:  cpu time      0.6375: real time      0.6434
    ORTHCH:  cpu time      0.0532: real time      0.0571
       DOS:  cpu time      0.0028: real time      0.0045
    --------------------------------------------
      LOOP:  cpu time      1.7030: real time      1.7760

 eigenvalue-minimisations  :  1056
 total energy-change (2. order) : 0.2397473E+04  (-0.8804920E+04)
 number of electron     240.0000000 magnetization      52.0000000
 augmentation part      240.0000000 magnetization      52.0000000

 Free energy of the ion-electron system (eV)
  ---------------------------------------------------
  alpha Z        PSCENC =       269.14068509
  Ewald energy   TEWEN  =     -8273.50175306
  -Hartree energ DENC   =     -2406.96132064
  -exchange      EXHF   =         0.00000000
  -V(xc)+E(xc)   XCENC  =       529.49385367
  PAW double counting   =      8141.38806575    -8271.61346273
  entropy T*S    EENTRO =        -0.00384642
  eigenvalues    EBANDS =      -293.60892921
  atomic energy  EATOM  =     12703.13999606
  Solvation  Ediel_sol  =         0.00000000
  ---------------------------------------------------
  free energy    TOTEN  =      2397.47328851 eV

  energy without entropy =     2397.47713493  energy(sigma->0) =     2397.47521172


--------------------------------------------------------------------------------------------------------




--------------------------------------- Iteration      1(   2)  ---------------------------------------


    EDDIAG:  cpu time      0.2995: real time      0.3055
  RMM-DIIS:  cpu time      0.6383: real time      0.6439
    ORTHCH:  cpu time      0.0529: real time      0.0538
       DOS:  cpu time      0.0010: real time      0.0010
    --------------------------------------------
      LOOP:  cpu time      0.9917: real time      1.0042

 eigenvalue-minimisations  :  1056
 total energy-change (2. order) :-0.2156544E+04  (-0.2660916E+04)
 number of electron     240.0000000 magnetization      52.0000000
 augmentation part      240.0000000 magnetization      52.0000000

 Free energy of the ion-electron system (eV)
  ---------------------------------------------------
  alpha Z        PSCENC =       269.14068509
  Ewald energy   TEWEN  =     -8273.50175306
  -Hartree energ DENC   =     -2406.96132064
  -exchange      EXHF   =         0.00000000
  -V(xc)+E(xc)   XCENC  =       529.49385367
  PAW double counting   =      8141.38806575    -8271.61346273
  entropy T*S    EENTRO =        -0.01436696
  eigenvalues    EBANDS =     -2450.14206687
  atomic energy  EATOM  =     12703.13999606
  Solvation  Ediel_sol  =         0.00000000
  ---------------------------------------------------
  free energy    TOTEN  =       240.92963031 eV

  energy without entropy =      240.94399727  energy(sigma->0) =      240.93681379


--------------------------------------------------------------------------------------------------------




--------------------------------------- Iteration      1(   3)  ---------------------------------------


    EDDIAG:  cpu time      0.2920: real time      0.2954
  RMM-DIIS:  cpu time      0.6376: real time      0.6433
    ORTHCH:  cpu time      0.0537: real time      0.0555
       DOS:  cpu time      0.0009: real time      0.0009
    --------------------------------------------
      LOOP:  cpu time      0.9842: real time      0.9952

 eigenvalue-minimisations  :  1056
 total energy-change (2. order) :-0.1176282E+03  (-0.6210531E+03)
 number of electron     240.0000000 magnetization      52.0000000
 augmentation part      240.0000000 magnetization      52.0000000

 Free energy of the ion-electron system (eV)
  ---------------------------------------------------
  alpha Z        PSCENC =       269.14068509
  Ewald energy   TEWEN  =     -8273.50175306
  -Hartree energ DENC   =     -2406.96132064
  -exchange      EXHF   =         0.00000000
  -V(xc)+E(xc)   XCENC  =       529.49385367
  PAW double counting   =      8141.38806575    -8271.61346273
  entropy T*S    EENTRO =        -0.00273903
  eigenvalues    EBANDS =     -2567.78188185
  atomic energy  EATOM  =     12703.13999606
  Solvation  Ediel_sol  =         0.00000000
  ---------------------------------------------------
  free energy    TOTEN  =       123.30144326 eV

  energy without entropy =      123.30418229  energy(sigma->0) =      123.30281277


--------------------------------------------------------------------------------------------------------




--------------------------------------- Iteration      1(   4)  ---------------------------------------


    EDDIAG:  cpu time      0.2932: real time      0.2963
  RMM-DIIS:  cpu time      0.6405: real time      0.6464
    ORTHCH:  cpu time      0.0529: real time      0.0541
       DOS:  cpu time      0.0007: real time      0.0007
    --------------------------------------------
      LOOP:  cpu time      0.9873: real time      0.9974

 eigenvalue-minimisations  :  1056
 total energy-change (2. order) :-0.2061206E+03  (-0.1756442E+03)
 number of electron     240.0000000 magnetization      52.0000000
 augmentation part      240.0000000 magnetization      52.0000000

 Free energy of the ion-electron system (eV)
  ---------------------------------------------------
  alpha Z        PSCENC =       269.14068509
  Ewald energy   TEWEN  =     -8273.50175306
  -Hartree energ DENC   =     -2406.96132064
  -exchange      EXHF   =         0.00000000
  -V(xc)+E(xc)   XCENC  =       529.49385367
  PAW double counting   =      8141.38806575    -8271.61346273
  entropy T*S    EENTRO =        -0.00000001
  eigenvalues    EBANDS =     -2773.90517108
  atomic energy  EATOM  =     12703.13999606
  Solvation  Ediel_sol  =         0.00000000
  ---------------------------------------------------
  free energy    TOTEN  =       -82.81910696 eV

  energy without entropy =      -82.81910695  energy(sigma->0) =      -82.81910696


--------------------------------------------------------------------------------------------------------




--------------------------------------- Iteration      1(   5)  ---------------------------------------


    EDDIAG:  cpu time      0.2918: real time      0.2940
  RMM-DIIS:  cpu time      0.6345: real time      0.6407
    ORTHCH:  cpu time      0.0527: real time      0.0531
       DOS:  cpu time      0.0005: real time      0.0005
    --------------------------------------------
      LOOP:  cpu time      0.9796: real time      0.9882

 eigenvalue-minimisations  :  1056
 total energy-change (2. order) :-0.7999101E+02  (-0.7313088E+02)
 number of electron     240.0000000 magnetization      52.0000000
 augmentation part      240.0000000 magnetization      52.0000000

 Free energy of the ion-electron system (eV)
  ---------------------------------------------------
  alpha Z        PSCENC =       269.14068509
  Ewald energy   TEWEN  =     -8273.50175306
  -Hartree energ DENC   =     -2406.96132064
  -exchange      EXHF   =         0.00000000
  -V(xc)+E(xc)   XCENC  =       529.49385367
  PAW double counting   =      8141.38806575    -8271.61346273
  entropy T*S    EENTRO =        -0.00000000
  eigenvalues    EBANDS =     -2853.89618242
  atomic energy  EATOM  =     12703.13999606
  Solvation  Ediel_sol  =         0.00000000
  ---------------------------------------------------
  free energy    TOTEN  =      -162.81011829 eV

  energy without entropy =     -162.81011829  energy(sigma->0) =     -162.81011829


--------------------------------------------------------------------------------------------------------




--------------------------------------- Iteration      1(   6)  ---------------------------------------


    EDDIAG:  cpu time      0.2934: real time      0.2962
  RMM-DIIS:  cpu time      0.6889: real time      0.6945
    ORTHCH:  cpu time      0.0537: real time      0.0543
       DOS:  cpu time      0.0004: real time      0.0004
    --------------------------------------------
      LOOP:  cpu time      1.0364: real time      1.0454

 eigenvalue-minimisations  :  1056
 total energy-change (2. order) :-0.3703373E+02  (-0.3535461E+02)
 number of electron     240.0000000 magnetization      52.0000000
 augmentation part      240.0000000 magnetization      52.0000000

 Free energy of the ion-electron system (eV)
  ---------------------------------------------------
  alpha Z        PSCENC =       269.14068509
  Ewald energy   TEWEN  =     -8273.50175306
  -Hartree energ DENC   =     -2406.96132064
  -exchange      EXHF   =         0.00000000
  -V(xc)+E(xc)   XCENC  =       529.49385367
  PAW double counting   =      8141.38806575    -8271.61346273
  entropy T*S    EENTRO =        -0.00000000
  eigenvalues    EBANDS =     -2890.92991663
  atomic energy  EATOM  =     12703.13999606
  Solvation  Ediel_sol  =         0.00000000
  ---------------------------------------------------
  free energy    TOTEN  =      -199.84385249 eV

  energy without entropy =     -199.84385249  energy(sigma->0) =     -199.84385249


--------------------------------------------------------------------------------------------------------




--------------------------------------- Iteration      1(   7)  ---------------------------------------


    EDDIAG:  cpu time      0.2910: real time      0.2935
  RMM-DIIS:  cpu time      0.6982: real time      0.7044
    ORTHCH:  cpu time      0.0534: real time      0.0537
       DOS:  cpu time      0.0004: real time      0.0004
    --------------------------------------------
      LOOP:  cpu time      1.0430: real time      1.0520

 eigenvalue-minimisations  :  1056
 total energy-change (2. order) :-0.1864441E+02  (-0.1789288E+02)
 number of electron     240.0000000 magnetization      52.0000000
 augmentation part      240.0000000 magnetization      52.0000000

 Free energy of the ion-electron system (eV)
  ---------------------------------------------------
  alpha Z        PSCENC =       269.14068509
  Ewald energy   TEWEN  =     -8273.50175306
  -Hartree energ DENC   =     -2406.96132064
  -exchange      EXHF   =         0.00000000
  -V(xc)+E(xc)   XCENC  =       529.49385367
  PAW double counting   =      8141.38806575    -8271.61346273
  entropy T*S    EENTRO =        -0.00000000
  eigenvalues    EBANDS =     -2909.57432447
  atomic energy  EATOM  =     12703.13999606
  Solvation  Ediel_sol  =         0.00000000
  ---------------------------------------------------
  free energy    TOTEN  =      -218.48826034 eV

  energy without entropy =     -218.48826034  energy(sigma->0) =     -218.48826034


--------------------------------------------------------------------------------------------------------




--------------------------------------- Iteration      1(   8)  ---------------------------------------


    EDDIAG:  cpu time      0.2926: real time      0.2952
  RMM-DIIS:  cpu time      1.4952: real time      1.5452
    ORTHCH:  cpu time      0.0506: real time      0.0526
       DOS:  cpu time      0.0004: real time      0.0004
    --------------------------------------------
      LOOP:  cpu time      1.8388: real time      1.8934

 eigenvalue-minimisations  :  2688
 total energy-change (2. order) :-0.1914701E+02  (-0.1881212E+02)
 number of electron     240.0000000 magnetization      52.0000000
 augmentation part      240.0000000 magnetization      52.0000000

 Free energy of the ion-electron system (eV)
  ---------------------------------------------------
  alpha Z        PSCENC =       269.14068509
  Ewald energy   TEWEN  =     -8273.50175306
  -Hartree energ DENC   =     -2406.96132064
  -exchange      EXHF   =         0.00000000
  -V(xc)+E(xc)   XCENC  =       529.49385367
  PAW double counting   =      8141.38806575    -8271.61346273
  entropy T*S    EENTRO =        -0.00000000
  eigenvalues    EBANDS =     -2928.72133585
  atomic energy  EATOM  =     12703.13999606
  Solvation  Ediel_sol  =         0.00000000
  ---------------------------------------------------
  free energy    TOTEN  =      -237.63527171 eV

  energy without entropy =     -237.63527171  energy(sigma->0) =     -237.63527171


--------------------------------------------------------------------------------------------------------




--------------------------------------- Iteration      1(   9)  ---------------------------------------


    EDDIAG:  cpu time      0.2913: real time      0.2946
  RMM-DIIS:  cpu time      1.7190: real time      1.7729
    ORTHCH:  cpu time      0.0527: real time      0.0534
       DOS:  cpu time      0.0004: real time      0.0004
    --------------------------------------------
      LOOP:  cpu time      2.0635: real time      2.1213

 eigenvalue-minimisations  :  2973
 total energy-change (2. order) :-0.2347203E+01  (-0.2449568E+01)
 number of electron     240.0000000 magnetization      52.0000000
 augmentation part      240.0000000 magnetization      52.0000000

 Free energy of the ion-electron system (eV)
  ---------------------------------------------------
  alpha Z        PSCENC =       269.14068509
  Ewald energy   TEWEN  =     -8273.50175306
  -Hartree energ DENC   =     -2406.96132064
  -exchange      EXHF   =         0.00000000
  -V(xc)+E(xc)   XCENC  =       529.49385367
  PAW double counting   =      8141.38806575    -8271.61346273
  entropy T*S    EENTRO =        -0.00000000
  eigenvalues    EBANDS =     -2931.06853926
  atomic energy  EATOM  =     12703.13999606
  Solvation  Ediel_sol  =         0.00000000
  ---------------------------------------------------
  free energy    TOTEN  =      -239.98247512 eV

  energy without entropy =     -239.98247512  energy(sigma->0) =     -239.98247512


--------------------------------------------------------------------------------------------------------




--------------------------------------- Iteration      1(  10)  ---------------------------------------


    EDDIAG:  cpu time      0.3101: real time      0.3148
  RMM-DIIS:  cpu time      1.8969: real time      1.9265
    ORTHCH:  cpu time      0.0523: real time      0.0526
       DOS:  cpu time      0.0005: real time      0.0005
    CHARGE:  cpu time      0.2033: real time      0.2431
    MIXING:  cpu time      0.0021: real time      0.0035
    --------------------------------------------
      LOOP:  cpu time      2.4651: real time      2.5410

 eigenvalue-minimisations  :  3375
 total energy-change (2. order) :-0.2656856E+00  (-0.2293013E+00)
 number of electron     240.0000137 magnetization      28.5471641
 augmentation part        1.5613120 magnetization      28.9761001

 Broyden mixing:
  rms(total) = 0.65446E+01    rms(broyden)= 0.65443E+01
  rms(prec ) = 0.67865E+01
  weight for this iteration     100.00

 Free energy of the ion-electron system (eV)
  ---------------------------------------------------
  alpha Z        PSCENC =       269.14068509
  Ewald energy   TEWEN  =     -8273.50175306
  -Hartree energ DENC   =     -2406.96132064
  -exchange      EXHF   =         0.00000000
  -V(xc)+E(xc)   XCENC  =       529.49385367
  PAW double counting   =      8141.38806575    -8271.61346273
  entropy T*S    EENTRO =        -0.00000000
  eigenvalues    EBANDS =     -2931.33422490
  atomic energy  EATOM  =     12703.13999606
  Solvation  Ediel_sol  =         0.00000000
  ---------------------------------------------------
  free energy    TOTEN  =      -240.24816077 eV

  energy without entropy =     -240.24816077  energy(sigma->0) =     -240.24816077


--------------------------------------------------------------------------------------------------------




--------------------------------------- Iteration      1(  11)  ---------------------------------------


    POTLOK:  cpu time      0.0721: real time      0.0732
    SETDIJ:  cpu time      0.4208: real time      0.4236
    EDDIAG:  cpu time      0.2957: real time      0.2983
  RMM-DIIS:  cpu time      1.4891: real time      1.5029
    ORTHCH:  cpu time      0.0517: real time      0.0524
       DOS:  cpu time      0.0004: real time      0.0004
    CHARGE:  cpu time      0.1801: real time      0.2125
    MIXING:  cpu time      0.0013: real time      0.0019
    --------------------------------------------
      LOOP:  cpu time      2.5114: real time      2.5652

 eigenvalue-minimisations  :  2661
 total energy-change (2. order) : 0.1753254E+02  (-0.7304691E+01)
 number of electron     240.0000137 magnetization      17.5615750
 augmentation part        1.7201023 magnetization      17.8386202

 Broyden mixing:
  rms(total) = 0.32944E+01    rms(broyden)= 0.32943E+01
  rms(prec ) = 0.34160E+01
  weight for this iteration     100.00

 eigenvalues of (default mixing * dielectric matrix)
  average eigenvalue GAMMA=   0.7276
  0.7276

 Free energy of the ion-electron system (eV)
  ---------------------------------------------------
  alpha Z        PSCENC =       269.14068509
  Ewald energy   TEWEN  =     -8273.50175306
  -Hartree energ DENC   =     -2467.54015058
  -exchange      EXHF   =         0.00000000
  -V(xc)+E(xc)   XCENC  =       542.36045348
  PAW double counting   =      8975.51214829    -9112.29702438
  entropy T*S    EENTRO =        -0.00000000
  eigenvalues    EBANDS =     -2859.52997586
  atomic energy  EATOM  =     12703.13999606
  Solvation  Ediel_sol  =         0.00000000
  ---------------------------------------------------
  free energy    TOTEN  =      -222.71562098 eV

  energy without entropy =     -222.71562098  energy(sigma->0) =     -222.71562098


--------------------------------------------------------------------------------------------------------




--------------------------------------- Iteration      1(  12)  ---------------------------------------


    POTLOK:  cpu time      0.0698: real time      0.0707
    SETDIJ:  cpu time      0.4154: real time      0.4172
    EDDIAG:  cpu time      0.2947: real time      0.2966
  RMM-DIIS:  cpu time      1.4548: real time      1.4684
    ORTHCH:  cpu time      0.0539: real time      0.0547
       DOS:  cpu time      0.0004: real time      0.0004
    CHARGE:  cpu time      0.1848: real time      0.2259
    MIXING:  cpu time      0.0014: real time      0.0014
    --------------------------------------------
      LOOP:  cpu time      2.4751: real time      2.5353

 eigenvalue-minimisations  :  2571
 total energy-change (2. order) :-0.3114481E+02  (-0.4154011E+01)
 number of electron     240.0000137 magnetization       4.2290221
 augmentation part        1.9357138 magnetization       4.5774852

 Broyden mixing:
  rms(total) = 0.22477E+01    rms(broyden)= 0.22477E+01
  rms(prec ) = 0.22957E+01
  weight for this iteration     100.00

 eigenvalues of (default mixing * dielectric matrix)
  average eigenvalue GAMMA=   0.9421
  1.2378  0.6464

 Free energy of the ion-electron system (eV)
  ---------------------------------------------------
  alpha Z        PSCENC =       269.14068509
  Ewald energy   TEWEN  =     -8273.50175306
  -Hartree energ DENC   =     -2504.66913118
  -exchange      EXHF   =         0.00000000
  -V(xc)+E(xc)   XCENC  =       534.85251407
  PAW double counting   =      9369.54962656    -9510.26611638
  entropy T*S    EENTRO =        -0.00000000
  eigenvalues    EBANDS =     -2842.10625124
  atomic energy  EATOM  =     12703.13999606
  Solvation  Ediel_sol  =         0.00000000
  ---------------------------------------------------
  free energy    TOTEN  =      -253.86043010 eV

  energy without entropy =     -253.86043010  energy(sigma->0) =     -253.86043010


--------------------------------------------------------------------------------------------------------




--------------------------------------- Iteration      1(  13)  ---------------------------------------


    POTLOK:  cpu time      0.0683: real time      0.0714
    SETDIJ:  cpu time      0.4098: real time      0.4115
    EDDIAG:  cpu time      0.2918: real time      0.2937
  RMM-DIIS:  cpu time      1.3270: real time      1.3444
    ORTHCH:  cpu time      0.0532: real time      0.0540
       DOS:  cpu time      0.0005: real time      0.0005
    CHARGE:  cpu time      0.1562: real time      0.2004
    MIXING:  cpu time      0.0013: real time      0.0013
    --------------------------------------------
      LOOP:  cpu time      2.3081: real time      2.3773

 eigenvalue-minimisations  :  2214
 total energy-change (2. order) :-0.1940214E+01  (-0.6202635E+00)
 number of electron     240.0000137 magnetization      -1.9258844
 augmentation part        1.9831942 magnetization      -1.7862967

 Broyden mixing:
  rms(total) = 0.97260E+00    rms(broyden)= 0.97260E+00
  rms(prec ) = 0.10002E+01
  weight for this iteration     100.00

 eigenvalues of (default mixing * dielectric matrix)
  average eigenvalue GAMMA=   1.3303
  2.6202  0.7281  0.6426

 Free energy of the ion-electron system (eV)
  ---------------------------------------------------
  alpha Z        PSCENC =       269.14068509
  Ewald energy   TEWEN  =     -8273.50175306
  -Hartree energ DENC   =     -2527.99099456
  -exchange      EXHF   =         0.00000000
  -V(xc)+E(xc)   XCENC  =       534.95251034
  PAW double counting   =      9757.23267665    -9901.33281426
  entropy T*S    EENTRO =        -0.00000000
  eigenvalues    EBANDS =     -2817.44095078
  atomic energy  EATOM  =     12703.13999606
  Solvation  Ediel_sol  =         0.00000000
  ---------------------------------------------------
  free energy    TOTEN  =      -255.80064453 eV

  energy without entropy =     -255.80064453  energy(sigma->0) =     -255.80064453


--------------------------------------------------------------------------------------------------------




--------------------------------------- Iteration      1(  14)  ---------------------------------------


    POTLOK:  cpu time      0.0686: real time      0.0697
    SETDIJ:  cpu time      0.4104: real time      0.4119
    EDDIAG:  cpu time      0.2921: real time      0.2940
  RMM-DIIS:  cpu time      1.4306: real time      1.4433
    ORTHCH:  cpu time      0.0513: real time      0.0525
       DOS:  cpu time      0.0005: real time      0.0005
    CHARGE:  cpu time      0.1612: real time      0.1860
    MIXING:  cpu time      0.0015: real time      0.0015
    --------------------------------------------
      LOOP:  cpu time      2.4162: real time      2.4594

 eigenvalue-minimisations  :  2556
 total energy-change (2. order) :-0.3237891E+00  (-0.2427761E+00)
 number of electron     240.0000137 magnetization      -1.1394815
 augmentation part        1.9556815 magnetization      -1.1102248

 Broyden mixing:
  rms(total) = 0.32136E+00    rms(broyden)= 0.32136E+00
  rms(prec ) = 0.34982E+00
  weight for this iteration     100.00

 eigenvalues of (default mixing * dielectric matrix)
  average eigenvalue GAMMA=   1.2793
  2.7108  1.1043  0.6947  0.6075

 Free energy of the ion-electron system (eV)
  ---------------------------------------------------
  alpha Z        PSCENC =       269.14068509
  Ewald energy   TEWEN  =     -8273.50175306
  -Hartree energ DENC   =     -2537.43271066
  -exchange      EXHF   =         0.00000000
  -V(xc)+E(xc)   XCENC  =       536.20951350
  PAW double counting   =      9928.70183914   -10074.35534656
  entropy T*S    EENTRO =        -0.00000000
  eigenvalues    EBANDS =     -2808.02665716
  atomic energy  EATOM  =     12703.13999606
  Solvation  Ediel_sol  =         0.00000000
  ---------------------------------------------------
  free energy    TOTEN  =      -256.12443365 eV

  energy without entropy =     -256.12443365  energy(sigma->0) =     -256.12443365


--------------------------------------------------------------------------------------------------------




--------------------------------------- Iteration      1(  15)  ---------------------------------------


    POTLOK:  cpu time      0.0691: real time      0.0700
    SETDIJ:  cpu time      0.4113: real time      0.4128
    EDDIAG:  cpu time      0.2942: real time      0.2959
  RMM-DIIS:  cpu time      1.4290: real time      1.4415
    ORTHCH:  cpu time      0.0544: real time      0.0552
       DOS:  cpu time      0.0005: real time      0.0005
    CHARGE:  cpu time      0.1706: real time      0.2034
    MIXING:  cpu time      0.0016: real time      0.0016
    --------------------------------------------
      LOOP:  cpu time      2.4306: real time      2.4807

 eigenvalue-minimisations  :  2553
 total energy-change (2. order) :-0.1067702E-02  (-0.4637482E-01)
 number of electron     240.0000137 magnetization      -0.2918180
 augmentation part        1.8982973 magnetization      -0.2692274

 Broyden mixing:
  rms(total) = 0.71963E-01    rms(broyden)= 0.71961E-01
  rms(prec ) = 0.86822E-01
  weight for this iteration     100.00

 eigenvalues of (default mixing * dielectric matrix)
  average eigenvalue GAMMA=   1.2947
  2.5679  1.6919  0.9042  0.6905  0.6192

 Free energy of the ion-electron system (eV)
  ---------------------------------------------------
  alpha Z        PSCENC =       269.14068509
  Ewald energy   TEWEN  =     -8273.50175306
  -Hartree energ DENC   =     -2533.26291812
  -exchange      EXHF   =         0.00000000
  -V(xc)+E(xc)   XCENC  =       535.80517794
  PAW double counting   =      9889.71911328   -10035.01410338
  entropy T*S    EENTRO =        -0.00000000
  eigenvalues    EBANDS =     -2812.15169916
  atomic energy  EATOM  =     12703.13999606
  Solvation  Ediel_sol  =         0.00000000
  ---------------------------------------------------
  free energy    TOTEN  =      -256.12550136 eV

  energy without entropy =     -256.12550136  energy(sigma->0) =     -256.12550136


--------------------------------------------------------------------------------------------------------




--------------------------------------- Iteration      1(  16)  ---------------------------------------


    POTLOK:  cpu time      0.0676: real time      0.0687
    SETDIJ:  cpu time      0.4105: real time      0.4116
    EDDIAG:  cpu time      0.2937: real time      0.2956
  RMM-DIIS:  cpu time      1.3863: real time      1.4010
    ORTHCH:  cpu time      0.0508: real time      0.0517
       DOS:  cpu time      0.0005: real time      0.0005
    CHARGE:  cpu time      0.1542: real time      0.1880
    MIXING:  cpu time      0.0015: real time      0.0015
    --------------------------------------------
      LOOP:  cpu time      2.3651: real time      2.4186

 eigenvalue-minimisations  :  2486
 total energy-change (2. order) :-0.2311337E-01  (-0.1290440E-01)
 number of electron     240.0000137 magnetization      -0.0691120
 augmentation part        1.8621428 magnetization      -0.0627958

 Broyden mixing:
  rms(total) = 0.27284E-01    rms(broyden)= 0.27282E-01
  rms(prec ) = 0.34451E-01
  weight for this iteration     100.00

 eigenvalues of (default mixing * dielectric matrix)
  average eigenvalue GAMMA=   1.2809
  2.5073  1.9715  1.0606  0.8255  0.6230  0.6974

 Free energy of the ion-electron system (eV)
  ---------------------------------------------------
  alpha Z        PSCENC =       269.14068509
  Ewald energy   TEWEN  =     -8273.50175306
  -Hartree energ DENC   =     -2532.09978241
  -exchange      EXHF   =         0.00000000
  -V(xc)+E(xc)   XCENC  =       535.59342557
  PAW double counting   =      9863.52560920   -10008.43696419
  entropy T*S    EENTRO =        -0.00000000
  eigenvalues    EBANDS =     -2813.50983098
  atomic energy  EATOM  =     12703.13999606
  Solvation  Ediel_sol  =         0.00000000
  ---------------------------------------------------
  free energy    TOTEN  =      -256.14861473 eV

[...]
  0.000  -0.000  -0.000   0.003  -0.002   0.000   0.000  -0.000   0.000   0.000  -0.000  -0.000  -0.000  -0.000
  0.000  -0.000  -0.000  -0.002   0.003   0.000  -0.000   0.000   0.000  -0.000  -0.000   0.000   0.000   0.000
 -0.002   0.002   0.000   0.000   0.000   0.007   0.000   0.000   0.000   0.000  -0.000   0.000   0.000  -0.000
  0.000  -0.000  -0.000   0.006  -0.006   0.000   0.000  -0.000   0.000   0.000  -0.000  -0.000  -0.000  -0.000
 -0.034   0.034   0.000  -0.000  -0.000  -0.006  -0.000  -0.000  -0.000  -0.000   0.000  -0.000  -0.000   0.000
 -0.019   0.019   0.000  -0.000   0.000   0.006  -0.000   0.000   0.000  -0.000  -0.000   0.000   0.000  -0.000
  0.000  -0.000  -0.000  -0.006   0.006   0.000  -0.000   0.000   0.000  -0.000  -0.000   0.000   0.000   0.000
  0.033  -0.033  -0.000  -0.000   0.000  -0.010  -0.000   0.000  -0.000  -0.000   0.000  -0.000   0.000   0.000
 total augmentation occupancy for first ion, spin component:           2
  0.000  -0.000   0.000  -0.000  -0.000   0.000   0.000   0.000   0.000  -0.000   0.000  -0.000  -0.000   0.000
 -0.000   0.000  -0.000   0.000   0.000   0.000  -0.000  -0.000   0.000   0.000  -0.000   0.000   0.000  -0.000
  0.000  -0.000  -0.000   0.000   0.000  -0.000  -0.000  -0.000  -0.000  -0.000  -0.000  -0.000  -0.000   0.000
 -0.000   0.000   0.000   0.000   0.000  -0.000   0.000  -0.000  -0.000  -0.000   0.000   0.000   0.000  -0.000
 -0.000   0.000   0.000   0.000   0.000  -0.000  -0.000   0.000  -0.000   0.000   0.000   0.000  -0.000  -0.000
  0.000   0.000  -0.000  -0.000  -0.000  -0.000   0.000   0.000   0.000  -0.000   0.000   0.000  -0.000  -0.000
  0.000  -0.000  -0.000   0.000  -0.000   0.000   0.000  -0.000   0.000  -0.000  -0.000   0.000   0.000   0.000
  0.000  -0.000  -0.000  -0.000   0.000   0.000  -0.000   0.000   0.000   0.000  -0.000  -0.000  -0.000   0.000
  0.000   0.000  -0.000  -0.000  -0.000   0.000   0.000   0.000   0.000   0.000   0.000   0.000   0.000  -0.000
 -0.000   0.000  -0.000  -0.000   0.000  -0.000  -0.000   0.000   0.000  -0.000   0.000   0.000   0.000   0.000
  0.000  -0.000  -0.000   0.000   0.000   0.000  -0.000  -0.000   0.000   0.000  -0.000  -0.000   0.000   0.000
 -0.000   0.000  -0.000   0.000   0.000   0.000   0.000  -0.000   0.000   0.000  -0.000   0.000  -0.000  -0.000
 -0.000   0.000  -0.000   0.000  -0.000  -0.000   0.000  -0.000   0.000   0.000   0.000  -0.000  -0.000  -0.000
  0.000  -0.000   0.000  -0.000  -0.000  -0.000   0.000   0.000  -0.000   0.000   0.000  -0.000  -0.000   0.000


------------------------ aborting loop because EDIFF is reached ----------------------------------------


    CHARGE:  cpu time      0.1543: real time      0.1704
    FORLOC:  cpu time      0.0051: real time      0.0051
    FORNL :  cpu time      0.3629: real time      0.3653
    STRESS:  cpu time      1.0701: real time      1.0773
    FORCOR:  cpu time      0.0657: real time      0.0660
    FORHAR:  cpu time      0.0113: real time      0.0114
    MIXING:  cpu time      0.0011: real time      0.0011
    OFIELD:  cpu time      0.0000: real time      0.0000

 ---------------------------------------------------------------------------------------------

         DFTD3 V3.0 Rev 1        
 Edisp (eV)  -12.07659

 E6    (eV) :    -7.4367
 E8    (eV) :    -4.6399
 % E8        : 38.42
    FORVDW:  cpu time      0.2879: real time      0.2896

  FORCE on cell =-STRESS in cart. coord.  units (eV):
  Direction    XX          YY          ZZ          XY          YZ          ZX
  --------------------------------------------------------------------------------------
  Alpha Z   269.14069   269.14069   269.14069
  Ewald   -2758.49881 -2757.38829 -2757.38829     0.13792     0.72178     0.13792
  Hartree   844.50228   845.13187   845.13187     0.07703     0.35011     0.07703
  E(xc)    -946.81602  -946.81625  -946.81625    -0.00010    -0.00028    -0.00010
  Local   -1761.06031 -1762.92091 -1762.92091    -0.21886    -1.09584    -0.21886
  n-local  1480.94096  1481.01968  1481.01963    -0.28368     0.04051     0.29873
  augment  -356.02597  -356.04935  -356.04935    -0.00133    -0.00700    -0.00131
  Kinetic  3239.99060  3240.24486  3240.24493    -0.51027     0.05437     0.53055
  Fock        0.00000     0.00000     0.00000     0.00000     0.00000     0.00000
  vdW       -12.82991   -12.82965   -12.82965    -0.00004    -0.00031    -0.00004
  -------------------------------------------------------------------------------------
  Total      -0.65650    -0.46736    -0.46736     0.01230     0.06334     0.01230
  in kB      -1.04285    -0.74240    -0.74240     0.01954     0.10061     0.01954
  external pressure =       -0.84 kB  Pullay stress =        0.00 kB


 VOLUME and BASIS-vectors are now :
 -----------------------------------------------------------------------------
  energy-cutoff  :      520.00
  volume of cell :     1008.61
      direct lattice vectors                 reciprocal lattice vectors
    10.028612078  0.000000000  0.000000000     0.099714696  0.000000000  0.000000000
     0.000000000 10.028612078  0.000000000     0.000000000  0.099714696  0.000000000
     0.000000000  0.000000000 10.028612078     0.000000000  0.000000000  0.099714696

  length of vectors
    10.028612078 10.028612078 10.028612078     0.099714696  0.099714696  0.099714696


 FORCES acting on ions
    electron-ion (+dipol)            ewald-force                    non-local-force                 convergence-correction
 -----------------------------------------------------------------------------------------------
   -.685E+01 0.110E-01 0.110E-01   0.615E+01 -.103E-01 -.103E-01   0.688E+00 -.108E-02 -.108E-02   -.737E-03 0.210E-03 0.210E-03
   -.685E+01 0.110E-01 0.110E-01   0.615E+01 -.103E-01 -.103E-01   0.688E+00 -.108E-02 -.108E-02   -.737E-03 0.210E-03 0.210E-03
   0.666E+01 0.211E-02 0.211E-02   -.597E+01 -.590E-02 -.590E-02   -.681E+00 0.275E-02 0.275E-02   -.452E-02 0.220E-03 0.220E-03
   0.666E+01 0.211E-02 0.211E-02   -.597E+01 -.590E-02 -.590E-02   -.681E+00 0.275E-02 0.275E-02   -.452E-02 0.220E-03 0.220E-03
   -.530E-01 -.120E-02 -.687E+01   0.505E-01 0.449E-02 0.617E+01   0.204E-02 -.333E-02 0.699E+00   -.230E-03 0.246E-03 -.134E-02
   -.546E-01 -.377E-01 0.685E+01   0.519E-01 0.325E-01 -.614E+01   0.187E-02 0.617E-02 -.697E+00   -.101E-03 -.880E-03 0.894E-03
   -.648E-02 0.614E-01 0.685E+01   0.494E-02 -.558E-01 -.615E+01   0.333E-03 -.566E-02 -.696E+00   0.452E-03 -.155E-03 -.202E-03
   0.290E-01 -.200E-01 -.683E+01   -.295E-01 0.198E-01 0.613E+01   -.892E-03 -.198E-03 0.693E+00   0.516E-03 0.372E-03 0.968E-04
   -.530E-01 -.687E+01 -.120E-02   0.505E-01 0.617E+01 0.449E-02   0.204E-02 0.699E+00 -.333E-02   -.230E-03 -.134E-02 0.246E-03
   -.546E-01 0.685E+01 -.377E-01   0.519E-01 -.614E+01 0.325E-01   0.187E-02 -.697E+00 0.617E-02   -.101E-03 0.894E-03 -.880E-03
   0.290E-01 -.683E+01 -.200E-01   -.295E-01 0.613E+01 0.198E-01   -.892E-03 0.693E+00 -.198E-03   0.516E-03 0.968E-04 0.372E-03
   -.648E-02 0.685E+01 0.614E-01   0.494E-02 -.615E+01 -.558E-01   0.333E-03 -.696E+00 -.566E-02   0.452E-03 -.202E-03 -.155E-03
   -.530E-01 -.120E-02 -.687E+01   0.505E-01 0.449E-02 0.617E+01   0.204E-02 -.333E-02 0.699E+00   -.230E-03 0.246E-03 -.134E-02
   -.546E-01 -.377E-01 0.685E+01   0.519E-01 0.325E-01 -.614E+01   0.187E-02 0.617E-02 -.697E+00   -.101E-03 -.880E-03 0.894E-03
   -.648E-02 0.614E-01 0.685E+01   0.494E-02 -.558E-01 -.615E+01   0.333E-03 -.566E-02 -.696E+00   0.452E-03 -.155E-03 -.202E-03
   0.290E-01 -.200E-01 -.683E+01   -.295E-01 0.198E-01 0.613E+01   -.892E-03 -.198E-03 0.693E+00   0.516E-03 0.372E-03 0.968E-04
   -.530E-01 -.687E+01 -.120E-02   0.505E-01 0.617E+01 0.449E-02   0.204E-02 0.699E+00 -.333E-02   -.230E-03 -.134E-02 0.246E-03
   -.546E-01 0.685E+01 -.377E-01   0.519E-01 -.614E+01 0.325E-01   0.187E-02 -.697E+00 0.617E-02   -.101E-03 0.894E-03 -.880E-03
   0.290E-01 -.683E+01 -.200E-01   -.295E-01 0.613E+01 0.198E-01   -.892E-03 0.693E+00 -.198E-03   0.516E-03 0.968E-04 0.372E-03
   -.648E-02 0.685E+01 0.614E-01   0.494E-02 -.615E+01 -.558E-01   0.333E-03 -.696E+00 -.566E-02   0.452E-03 -.202E-03 -.155E-03
   -.669E+01 0.132E-01 0.132E-01   0.600E+01 -.127E-01 -.127E-01   0.686E+00 -.285E-03 -.285E-03   0.597E-03 -.192E-03 -.192E-03
   -.669E+01 0.132E-01 0.132E-01   0.600E+01 -.127E-01 -.127E-01   0.686E+00 -.285E-03 -.285E-03   0.597E-03 -.192E-03 -.192E-03
   0.690E+01 -.638E-02 -.638E-02   -.620E+01 0.666E-02 0.666E-02   -.687E+00 -.383E-03 -.383E-03   -.475E-03 0.319E-04 0.319E-04
   0.690E+01 -.638E-02 -.638E-02   -.620E+01 0.666E-02 0.666E-02   -.687E+00 -.383E-03 -.383E-03   -.475E-03 0.319E-04 0.319E-04
   0.309E-01 0.764E-02 0.764E-02   -.352E-01 -.986E-02 -.986E-02   -.177E-02 0.250E-02 0.250E-02   0.269E-02 0.465E-03 0.465E-03
   0.309E-01 0.764E-02 0.764E-02   -.352E-01 -.986E-02 -.986E-02   -.177E-02 0.250E-02 0.250E-02   0.269E-02 0.465E-03 0.465E-03
   -.215E+00 -.342E-01 -.342E-01   0.204E+00 0.339E-01 0.339E-01   0.120E-01 -.861E-03 -.861E-03   0.305E-02 0.139E-03 0.139E-03
   -.215E+00 -.342E-01 -.342E-01   0.204E+00 0.339E-01 0.339E-01   0.120E-01 -.861E-03 -.861E-03   0.305E-02 0.139E-03 0.139E-03
   -.453E+02 0.451E+02 -.450E+02   0.486E+02 -.484E+02 0.483E+02   -.331E+01 0.330E+01 -.329E+01   -.225E-02 0.586E-02 -.481E-02
   -.453E+02 -.450E+02 0.451E+02   0.486E+02 0.483E+02 -.484E+02   -.331E+01 -.329E+01 0.330E+01   -.225E-02 -.481E-02 0.586E-02
   0.451E+02 0.451E+02 0.451E+02   -.484E+02 -.484E+02 -.484E+02   0.331E+01 0.328E+01 0.328E+01   -.500E-02 -.300E-02 -.300E-02
   0.450E+02 -.452E+02 -.452E+02   -.483E+02 0.484E+02 0.484E+02   0.331E+01 -.329E+01 -.329E+01   -.421E-02 0.342E-02 0.342E-02
   0.450E+02 -.452E+02 -.452E+02   -.483E+02 0.484E+02 0.484E+02   0.331E+01 -.329E+01 -.329E+01   -.421E-02 0.342E-02 0.342E-02
   0.451E+02 0.451E+02 0.451E+02   -.484E+02 -.484E+02 -.484E+02   0.331E+01 0.328E+01 0.328E+01   -.500E-02 -.300E-02 -.300E-02
   -.453E+02 -.450E+02 0.451E+02   0.486E+02 0.483E+02 -.484E+02   -.331E+01 -.329E+01 0.330E+01   -.225E-02 -.481E-02 0.586E-02
   -.453E+02 0.451E+02 -.450E+02   0.486E+02 -.484E+02 0.483E+02   -.331E+01 0.330E+01 -.329E+01   -.225E-02 0.586E-02 -.481E-02
   -.449E+02 -.451E+02 0.452E+02   0.482E+02 0.484E+02 -.485E+02   -.330E+01 -.330E+01 0.330E+01   0.404E-02 -.191E-02 0.179E-02
   -.449E+02 0.452E+02 -.451E+02   0.482E+02 -.485E+02 0.484E+02   -.330E+01 0.330E+01 -.330E+01   0.404E-02 0.179E-02 -.191E-02
   0.452E+02 -.452E+02 -.452E+02   -.485E+02 0.485E+02 0.485E+02   0.329E+01 -.329E+01 -.329E+01   0.250E-02 -.313E-03 -.313E-03
   0.452E+02 0.452E+02 0.452E+02   -.485E+02 -.485E+02 -.485E+02   0.329E+01 0.329E+01 0.329E+01   0.506E-03 -.129E-02 -.129E-02
   -.449E+02 -.451E+02 0.452E+02   0.482E+02 0.484E+02 -.485E+02   -.330E+01 -.330E+01 0.330E+01   0.404E-02 -.191E-02 0.179E-02
   -.449E+02 0.452E+02 -.451E+02   0.482E+02 -.485E+02 0.484E+02   -.330E+01 0.330E+01 -.330E+01   0.404E-02 0.179E-02 -.191E-02
   0.452E+02 -.452E+02 -.452E+02   -.485E+02 0.485E+02 0.485E+02   0.329E+01 -.329E+01 -.329E+01   0.250E-02 -.313E-03 -.313E-03
   0.452E+02 0.452E+02 0.452E+02   -.485E+02 -.485E+02 -.485E+02   0.329E+01 0.329E+01 0.329E+01   0.506E-03 -.129E-02 -.129E-02
   -.277E-01 -.350E-01 -.350E-01   0.316E-01 0.365E-01 0.365E-01   -.372E-02 -.164E-02 -.164E-02   -.704E-03 0.345E-04 0.345E-04
   -.277E-01 -.350E-01 -.350E-01   0.316E-01 0.365E-01 0.365E-01   -.372E-02 -.164E-02 -.164E-02   -.704E-03 0.345E-04 0.345E-04
   -.440E-01 0.313E-01 0.313E-01   0.373E-01 -.326E-01 -.326E-01   0.138E-01 0.205E-02 0.205E-02   -.386E-02 -.530E-03 -.530E-03
   -.440E-01 0.313E-01 0.313E-01   0.373E-01 -.326E-01 -.326E-01   0.138E-01 0.205E-02 0.205E-02   -.386E-02 -.530E-03 -.530E-03
   -.137E+00 0.920E-02 0.920E-02   0.135E+00 -.109E-01 -.109E-01   0.627E-02 0.271E-02 0.271E-02   -.432E-02 -.821E-03 -.821E-03
   -.137E+00 0.920E-02 0.920E-02   0.135E+00 -.109E-01 -.109E-01   0.627E-02 0.271E-02 0.271E-02   -.432E-02 -.821E-03 -.821E-03
   0.468E+00 -.484E-01 -.484E-01   -.472E+00 0.490E-01 0.490E-01   0.310E-02 -.121E-02 -.121E-02   0.882E-03 0.444E-03 0.444E-03
   0.468E+00 -.484E-01 -.484E-01   -.472E+00 0.490E-01 0.490E-01   0.310E-02 -.121E-02 -.121E-02   0.882E-03 0.444E-03 0.444E-03
 -----------------------------------------------------------------------------------------------
   -.682E-01 -.215E-02 -.214E-02   0.568E-13 0.268E-13 -.140E-13   0.620E-01 -.344E-02 -.344E-02   -.175E-01 -.243E-02 -.243E-02
 
 
 POSITION                                       TOTAL-FORCE (eV/Angst)
 -----------------------------------------------------------------------------------
      9.79806      2.50662      2.50662        -0.000799     -0.000049     -0.000049
      9.79806      7.52092      7.52092        -0.000799     -0.000049     -0.000049
      0.22835      2.50919      7.52350         0.007934     -0.000680     -0.000680
      0.22835      7.52350      2.50919         0.007934     -0.000680     -0.000680
      2.50701      2.50624      9.79527        -0.000264      0.000360      0.001173
      2.50581      7.52283      0.23310        -0.000520      0.000179     -0.000451
      7.52128      2.50626      0.23368        -0.000268     -0.000032     -0.000261
      7.52167      7.52064      9.79484        -0.000345      0.000191      0.000617
      2.50701      9.79527      2.50624        -0.000264      0.001173      0.000360
      2.50581      0.23310      7.52283        -0.000520     -0.000451      0.000179
      7.52167      9.79484      7.52064        -0.000345      0.000617      0.000191
      7.52128      0.23368      2.50626        -0.000268     -0.000261     -0.000032
      2.50701      7.52054      4.78096        -0.000264      0.000360      0.001173
      2.50581      2.50852      5.24741        -0.000520      0.000179     -0.000451
      7.52128      7.52056      5.24799        -0.000268     -0.000032     -0.000261
      7.52167      2.50634      4.78053        -0.000345      0.000191      0.000617
      2.50701      4.78096      7.52054        -0.000264      0.001173      0.000360
      2.50581      5.24741      2.50852        -0.000520     -0.000451      0.000179
      7.52167      4.78053      2.50634        -0.000345      0.000617      0.000191
      7.52128      5.24799      7.52056        -0.000268     -0.000261     -0.000032
      4.78032      2.50694      7.52125         0.000936      0.000210      0.000210
      4.78032      7.52125      2.50694         0.000936      0.000210      0.000210
      5.24708      2.50684      2.50684         0.002962      0.000085      0.000085
      5.24708      7.52115      7.52115         0.002962      0.000085      0.000085
      5.01600      5.01389      5.01389        -0.002868      0.000902      0.000902
      5.01600     10.02819     10.02819        -0.002868      0.000902      0.000902
     10.02834      5.01507      0.00077         0.004321     -0.000857     -0.000857
     10.02834      0.00077      5.01507         0.004321     -0.000857     -0.000857
      1.18493      8.84506      6.19774        -0.002816      0.000019     -0.000058
      1.18493      1.18343      3.83076        -0.002816     -0.000058      0.000019
      8.84186      8.84683      3.83253         0.001401     -0.003480     -0.003480
      8.84416      1.18463      6.19893         0.002003      0.001071      0.001071
      8.84416      6.19893      1.18463         0.002003      0.001071      0.001071
      8.84186      3.83253      8.84683         0.001401     -0.003480     -0.003480
      1.18493      6.19774      8.84506        -0.002816     -0.000058      0.000019
      1.18493      3.83076      1.18343        -0.002816      0.000019     -0.000058
      6.19981      1.18370      8.84389        -0.004109     -0.000768      0.001185
      6.19981      8.84389      1.18370        -0.004109      0.001185     -0.000768
      3.83149      1.18325      1.18325        -0.001600      0.002005      0.002005
      3.83123      8.84465      8.84465        -0.001933     -0.002091     -0.002091
      6.19981      6.19801      3.82958        -0.004109     -0.000768      0.001185
      6.19981      3.82958      6.19801        -0.004109      0.001185     -0.000768
      3.83149      6.19756      6.19756        -0.001600      0.002005      0.002005
      3.83123      3.83034      3.83034        -0.001933     -0.002091     -0.002091
      7.52256      7.52137      7.52137        -0.000036      0.000124      0.000124
      7.52256      2.50706      2.50706        -0.000036      0.000124      0.000124
      2.50432      7.52136      2.50706         0.003617      0.000316      0.000316
      2.50432      2.50706      7.52136         0.003617      0.000316      0.000316
     10.02857      0.00009      0.00009         0.000639      0.000280      0.000280
     10.02857      5.01440      5.01440         0.000639      0.000280      0.000280
      5.01722     10.02797      5.01366         0.000070      0.000010      0.000010
      5.01722      5.01366     10.02797         0.000070      0.000010      0.000010
 -----------------------------------------------------------------------------------
    total drift:                               -0.023701     -0.008007     -0.008005


--------------------------------------------------------------------------------------------------------



  FREE ENERGIE OF THE ION-ELECTRON SYSTEM (eV)
  ---------------------------------------------------
  free  energy   TOTEN  =      -268.23441117 eV

  energy  without entropy=     -268.23441117  energy(sigma->0) =     -268.23441117
 
 d Force = 0.2817497E-04[ 0.566E-05, 0.507E-04]  d Energy = 0.3629015E-04-0.812E-05
 d Force = 0.1004038E-01[ 0.994E-02, 0.101E-01]  d Ewald  = 0.1004037E-01 0.749E-08


--------------------------------------------------------------------------------------------------------


    POTLOK:  cpu time      0.4709: real time      0.4739


--------------------------------------------------------------------------------------------------------


 stress matrix after NEB project (eV)
     -0.65650      0.01230      0.01230
      0.01230     -0.46736      0.06334
      0.01230      0.06334     -0.46736
  FORCES: max atom, RMS     0.007992    0.002993
  FORCE total and by dimension    0.021581    0.007934
  Stress total and by dimension    0.936198    0.656497
 Quasi-Newton relaxation of ions (Broydens 2nd method)
  g(Force)  = 0.225E-04   g(Stress)= 0.000E+00

 retain information from N=  2 steps
 eigenvalues of (default step * inverse Hessian matrix)
  average eigenvalue of G=   1.9578
 eigenvalue spectrum of G is  0.4884  3.4272


--------------------------------------------------------------------------------------------------------


  
 reached required accuracy - stopping structural energy minimisation
     LOOP+:  cpu time      9.1571: real time      9.2765
    4ORBIT:  cpu time      0.0000: real time      0.0000

 total amount of memory used by VASP MPI-rank0    50377. kBytes
=======================================================================

   base      :      30000. kBytes
   nonlr-proj:       7915. kBytes
   fftplans  :       2173. kBytes
   grid      :       6510. kBytes
   one-center:         62. kBytes
   wavefun   :       3717. kBytes
 
  
  
 General timing and accounting informations for this job:
 ========================================================
  
                  Total CPU time used (sec):       71.726
                            User time (sec):       70.253
                          System time (sec):        1.472
                         Elapsed time (sec):       76.120
  
                   Maximum memory used (kb):      435284.
                   Average memory used (kb):          N/A
  
                          Minor page faults:        74174
                          Major page faults:          119
                 Voluntary context switches:         7697
