<?xml version="1.0" encoding="ISO-8859-1"?>
<modeling>
 <generator>
  <i name="program" type="string">vasp </i>
  <i name="version" type="string">6.4.1  </i>
  <i name="subversion" type="string">05Apr23 (build Jun 07 2023 15:38:11) complex                          parallel </i>
  <i name="platform" type="string">LinuxIFC </i>
  <i name="date" type="string">2023 10 16 </i>
  <i name="time" type="string">22:49:48 </i>
 </generator>
 <incar>
  <i type="string" name="PREC">Accu</i>
  <i type="string" name="ALGO">F</i>
  <i type="logical" name="LDIAG"> T  </i>
  <i type="int" name="ISPIN">     2</i>
  <i type="int" name="NELM">   100</i>
  <i type="int" name="NELMDL">   -10</i>
  <i type="int" name="IBRION">     2</i>
  <i name="EDIFF">      0.00000100</i>
  <i name="EDIFFG">     -0.00100000</i>
  <i type="int" name="NSW">  1000</i>
  <i type="int" name="ISIF">     2</i>
  <i name="ENCUT">    520.00000000</i>
  <i name="POTIM">      0.20000000</i>
  <i type="string" name="LREAL">Auto</i>
  <i type="logical" name="LPLANE"> T  </i>
  <i type="int" name="ISMEAR">     0</i>
  <i name="SIGMA">      0.03000000</i>
  <i type="int" name="LMAXMIX">     4</i>
  <i type="logical" name="LWAVE"> F  </i>
  <i type="logical" name="LCHARG"> F  </i>
  <i type="logical" name="LASPH"> T  </i>
  <i type="string" name="GGA">PE</i>
  <i type="int" name="IVDW">    12</i>
 </incar>
 <primitive_cell>
  <structure name="primitive_cell" >
   <crystal>
    <varray name="basis" >
     <v>       0.00000000       5.01139128      -5.01139128 </v>
     <v>       0.00000000       5.01139128       5.01139128 </v>
     <v>      10.02278257       0.00000000       0.00000000 </v>
    </varray>
    <i name="volume">    503.42517697 </i>
    <varray name="rec_basis" >
     <v>       0.00000000       0.09977269      -0.09977269 </v>
     <v>       0.00000000       0.09977269       0.09977269 </v>
     <v>       0.09977269       0.00000000       0.00000000 </v>
    </varray>
   </crystal>
   <varray name="positions" >
    <v>       0.00000000       0.34143036       0.96861799 </v>
    <v>       0.50000000       0.02902195       0.02734767 </v>
    <v>       0.31531396       0.26983565       0.31182348 </v>
    <v>       0.77401522       0.82431005       0.18697995 </v>
    <v>       0.27418734       0.32485862       0.68683637 </v>
    <v>       0.81537810       0.77009674       0.81194785 </v>
    <v>       0.68468604       0.26983565       0.31182348 </v>
    <v>       0.22598478       0.82431005       0.18697995 </v>
    <v>       0.18462190       0.77009674       0.81194785 </v>
    <v>       0.72581266       0.32485862       0.68683637 </v>
    <v>       0.50000000       0.84201403       0.46889236 </v>
    <v>       0.00000000       0.52938597       0.52740741 </v>
    <v>       0.00000000       0.99715466       0.50363123 </v>
    <v>       0.50000000       0.49681736       0.00358484 </v>
    <v>       0.25940787       0.48542640       0.11838697 </v>
    <v>       0.74059213       0.48542640       0.11838697 </v>
    <v>       0.50000000       0.27364301       0.87022667 </v>
    <v>       0.50000000       0.74456359       0.89363453 </v>
    <v>       0.24055555       0.98581902       0.61849225 </v>
    <v>       0.75944445       0.98581902       0.61849225 </v>
    <v>       1.00000000       0.24489151       0.39369459 </v>
    <v>       0.00000000       0.77393656       0.37031101 </v>
    <v>       0.00000000       0.49870730       0.75506236 </v>
    <v>       0.50000000       0.99846680       0.25505567 </v>
    <v>       0.00000000       0.95456186       0.99679539 </v>
    <v>       0.50000000       0.45471209       0.49680453 </v>
   </varray>
  </structure>
  <varray name="primitive_index" >
   <v type="int" >        1 </v>
   <v type="int" >        3 </v>
   <v type="int" >        5 </v>
   <v type="int" >       14 </v>
   <v type="int" >        7 </v>
   <v type="int" >       16 </v>
   <v type="int" >        9 </v>
   <v type="int" >       18 </v>
   <v type="int" >       19 </v>
   <v type="int" >       12 </v>
   <v type="int" >       22 </v>
   <v type="int" >       23 </v>
   <v type="int" >       26 </v>
   <v type="int" >       27 </v>
   <v type="int" >       36 </v>
   <v type="int" >       30 </v>
   <v type="int" >       31 </v>
   <v type="int" >       32 </v>
   <v type="int" >       37 </v>
   <v type="int" >       38 </v>
   <v type="int" >       39 </v>
   <v type="int" >       44 </v>
   <v type="int" >       46 </v>
   <v type="int" >       47 </v>
   <v type="int" >       49 </v>
   <v type="int" >       52 </v>
  </varray>
 </primitive_cell>
 <kpoints>
  <generation param="Monkhorst-Pack">
   <v type="int" name="divisions">       2        2        2 </v>
   <v name="usershift">      0.00000000       0.00000000       0.00000000 </v>
   <v name="genvec1">      0.50000000       0.00000000       0.00000000 </v>
   <v name="genvec2">      0.00000000       0.50000000       0.00000000 </v>
   <v name="genvec3">      0.00000000       0.00000000       0.50000000 </v>
   <v name="shift">      0.50000000       0.50000000       0.50000000 </v>
  </generation>
  <varray name="kpointlist" >
   <v>       0.25000000       0.25000000       0.25000000 </v>
   <v>      -0.25000000       0.25000000       0.25000000 </v>
   <v>      -0.25000000      -0.25000000       0.25000000 </v>
  </varray>
  <varray name="weights" >
   <v>       0.25000000 </v>
   <v>       0.25000000 </v>
   <v>       0.50000000 </v>
  </varray>
 </kpoints>
 <parameters>
  <separator name="general" >
   <i type="string" name="SYSTEM">unknown system</i>
   <i type="logical" name="LCOMPAT"> F  </i>
  </separator>
  <separator name="electronic" >
   <i type="string" name="PREC">accu</i>
   <i name="ENMAX">    520.00000000</i>
   <i name="ENAUG">   1041.69900000</i>
   <i name="EDIFF">      0.00000100</i>
   <i type="int" name="IALGO">    68</i>
   <i type="int" name="IWAVPR">    11</i>
   <i type="int" name="NBANDS">   176</i>
   <i type="int" name="NBANDSLOW">    -1</i>
   <i type="int" name="NBANDSHIGH">    -1</i>
   <i name="NELECT">    240.00000000</i>
   <i type="int" name="TURBO">     0</i>
   <i type="int" name="IRESTART">     0</i>
   <i type="int" name="NREBOOT">     0</i>
   <i type="int" name="NMIN">     0</i>
   <i name="EREF">      0.00000000</i>
   <separator name="electronic smearing" >
    <i type="int" name="ISMEAR">     0</i>
    <i name="SIGMA">      0.03000000</i>
    <i name="KSPACING">      0.50000000</i>
    <i type="logical" name="KGAMMA"> T  </i>
    <i type="logical" name="KBLOWUP"> T  </i>
   </separator>
   <separator name="electronic projectors" >
    <i type="logical" name="LREAL"> T  </i>
    <v name="ROPT">     -0.00025000     -0.00025000     -0.00025000     -0.00025000</v>
    <i type="int" name="LMAXPAW">  -100</i>
    <i type="int" name="LMAXMIX">     4</i>
    <i type="logical" name="NLSPLINE"> F  </i>
   </separator>
   <separator name="electronic startup" >
    <i type="int" name="ISTART">     0</i>
    <i type="int" name="ICHARG">     2</i>
    <i type="int" name="INIWAV">     1</i>
   </separator>
   <separator name="electronic spin" >
    <i type="int" name="ISPIN">     2</i>
    <i type="logical" name="LNONCOLLINEAR"> F  </i>
    <v name="MAGMOM">      1.00000000      1.00000000      1.00000000      1.00000000      1.00000000      1.00000000      1.00000000      1.00000000      1.00000000      1.00000000      1.00000000      1.00000000      1.00000000      1.00000000      1.00000000      1.00000000      1.00000000      1.00000000      1.00000000      1.00000000
      1.00000000      1.00000000      1.00000000      1.00000000      1.00000000      1.00000000      1.00000000      1.00000000      1.00000000      1.00000000      1.00000000      1.00000000      1.00000000      1.00000000      1.00000000      1.00000000      1.00000000      1.00000000      1.00000000      1.00000000
      1.00000000      1.00000000      1.00000000      1.00000000      1.00000000      1.00000000      1.00000000      1.00000000      1.00000000      1.00000000      1.00000000      1.00000000</v>
    <i name="NUPDOWN">     -1.00000000</i>
    <i type="logical" name="LSORBIT"> F  </i>
    <v name="SAXIS">      0.00000000      0.00000000      1.00000000</v>
    <i type="logical" name="LSPIRAL"> F  </i>
    <v name="QSPIRAL">      0.00000000      0.00000000      0.00000000</v>
    <i type="logical" name="LZEROZ"> F  </i>
   </separator>
   <separator name="electronic exchange-correlation" >
    <i type="logical" name="LASPH"> T  </i>
    <i type="logical" name="LMETAGGA"> F  </i>
   </separator>
   <separator name="electronic convergence" >
    <i type="int" name="NELM">   100</i>
    <i type="int" name="NELMDL">   -10</i>
    <i type="int" name="NELMIN">     2</i>
    <i name="ENINI">    520.00000000</i>
    <separator name="electronic convergence detail" >
     <i type="logical" name="LDIAG"> T  </i>
     <i type="logical" name="LSUBROT"> F  </i>
     <i name="WEIMIN">      0.00100000</i>
     <i name="EBREAK">      0.00000000</i>
     <i name="DEPER">      0.30000000</i>
     <i type="int" name="NRMM">     4</i>
     <i name="TIME">      0.40000000</i>
    </separator>
   </separator>
   <separator name="electronic mixer" >
    <i name="AMIX">      0.40000000</i>
    <i name="BMIX">      1.00000000</i>
    <i name="AMIN">      0.10000000</i>
    <i name="AMIX_MAG">      1.60000000</i>
    <i name="BMIX_MAG">      1.00000000</i>
    <separator name="electronic mixer details" >
     <i type="int" name="IMIX">     4</i>
     <i type="logical" name="MIXFIRST"> F  </i>
     <i type="int" name="MAXMIX">   -45</i>
     <i name="WC">    100.00000000</i>
     <i type="int" name="INIMIX">     1</i>
     <i type="int" name="MIXPRE">     1</i>
     <i type="int" name="MREMOVE">     5</i>
    </separator>
   </separator>
   <separator name="electronic dipolcorrection" >
    <i type="logical" name="LDIPOL"> F  </i>
    <i type="logical" name="LMONO"> F  </i>
    <i type="int" name="IDIPOL">     0</i>
    <i name="EPSILON">      1.00000000</i>
    <v name="DIPOL">   -100.00000000   -100.00000000   -100.00000000</v>
    <i name="EFIELD">      0.00000000</i>
   </separator>
  </separator>
  <separator name="grids" >
   <i type="int" name="NGX">    80</i>
   <i type="int" name="NGY">    80</i>
   <i type="int" name="NGZ">    80</i>
   <i type="int" name="NGXF">   160</i>
   <i type="int" name="NGYF">   160</i>
   <i type="int" name="NGZF">   160</i>
   <i type="logical" name="ADDGRID"> F  </i>
  </separator>
  <separator name="ionic" >
   <i type="int" name="NSW">  1000</i>
   <i type="int" name="IBRION">     2</i>
   <i type="int" name="MDALGO">     0</i>
   <i type="int" name="ISIF">     2</i>
   <i name="PSTRESS">      0.00000000</i>
   <i name="EDIFFG">     -0.00100000</i>
   <i type="int" name="NFREE">     1</i>
   <i name="POTIM">      0.20000000</i>
   <i name="SMASS">     -3.00000000</i>
   <i name="SCALEE">      1.00000000</i>
  </separator>
  <separator name="ionic md" >
   <i name="TEBEG">      0.00010000</i>
   <i name="TEEND">      0.00010000</i>
   <i type="int" name="NBLOCK">     1</i>
   <i type="int" name="KBLOCK">  1000</i>
   <i type="int" name="NPACO">   256</i>
   <i name="APACO">     10.00000000</i>
  </separator>
  <separator name="symmetry" >
   <i type="int" name="ISYM">     2</i>
   <i name="SYMPREC">      0.00001000</i>
  </separator>
  <separator name="dos" >
   <i type="int" name="LORBIT">     0</i>
   <v name="RWIGS">     -1.00000000     -1.00000000     -1.00000000     -1.00000000</v>
   <i type="int" name="NEDOS">   301</i>
   <i name="EMIN">     10.00000000</i>
   <i name="EMAX">    -10.00000000</i>
   <i name="EFERMI">      0.00000000</i>
  </separator>
  <separator name="writing" >
   <i type="int" name="NWRITE">     2</i>
   <i type="logical" name="LWAVE"> F  </i>
   <i type="logical" name="LDOWNSAMPLE"> F  </i>
   <i type="logical" name="LCHARG"> F  </i>
   <i type="logical" name="LPARD"> F  </i>
   <i type="logical" name="LVTOT"> F  </i>
   <i type="logical" name="LVHAR"> F  </i>
   <i type="logical" name="LELF"> F  </i>
   <i type="logical" name="LOPTICS"> F  </i>
   <v name="STM">      0.00000000      0.00000000      0.00000000      0.00000000      0.00000000      0.00000000      0.00000000</v>
  </separator>
  <separator name="performance" >
   <i type="int" name="NPAR">     4</i>
   <i type="int" name="NSIM">     4</i>
   <i type="int" name="NBLK">    -1</i>
   <i type="logical" name="LPLANE"> T  </i>
   <i type="logical" name="LSCALAPACK"> T  </i>
   <i type="logical" name="LSCAAWARE"> F  </i>
   <i type="logical" name="LSCALU"> F  </i>
   <i type="logical" name="LASYNC"> F  </i>
   <i type="logical" name="LORBITALREAL"> F  </i>
  </separator>
  <separator name="miscellaneous" >
   <i type="int" name="IDIOT">     3</i>
   <i type="int" name="PHON_NSTRUCT">    -1</i>
   <i type="logical" name="LMUSIC"> F  </i>
   <v name="POMASS">      7.01000000     30.97400000     32.06600000     35.45300000</v>
   <v name="DARWINR">      0.00000000      0.00000000      0.00000000      0.00000000</v>
   <v name="DARWINV">      1.00000000      1.00000000      1.00000000      1.00000000</v>
   <i type="logical" name="LCORR"> T  </i>
  </separator>
  <i type="logical" name="GGA_COMPAT"> T  </i>
  <i type="logical" name="LBERRY"> F  </i>
  <i type="int" name="ICORELEVEL">     0</i>
  <i type="logical" name="LDAU"> F  </i>
  <i type="int" name="I_CONSTRAINED_M">     0</i>
  <separator name="electronic exchange-correlation" >
   <i type="string" name="GGA">PE</i>
   <i type="int" name="VOSKOWN">     0</i>
   <i type="logical" name="LHFCALC"> F  </i>
   <i type="string" name="PRECFOCK"></i>
   <i type="logical" name="LSYMGRAD"> F  </i>
   <i type="logical" name="LHFONE"> F  </i>
   <i type="logical" name="LRHFCALC"> F  </i>
   <i type="logical" name="LTHOMAS"> F  </i>
   <i type="logical" name="LMODELHF"> F  </i>
   <i type="logical" name="LFOCKACE"> F  </i>
   <i name="ENCUT4O">     -1.00000000</i>
   <i type="int" name="EXXOEP">     0</i>
   <i type="int" name="FOURORBIT">     0</i>
   <i name="AEXX">      0.00000000</i>
   <i name="HFALPHA">      0.00000000</i>
   <i name="MCALPHA">      0.00000000</i>
   <i name="ALDAX">      1.00000000</i>
   <i name="AGGAX">      1.00000000</i>
   <i name="ALDAC">      1.00000000</i>
   <i name="AGGAC">      1.00000000</i>
   <i type="int" name="NKREDX">     1</i>
   <i type="int" name="NKREDY">     1</i>
   <i type="int" name="NKREDZ">     1</i>
   <i type="logical" name="SHIFTRED"> F  </i>
   <i type="logical" name="ODDONLY"> F  </i>
   <i type="logical" name="EVENONLY"> F  </i>
   <i type="int" name="LMAXFOCK">     0</i>
   <i type="int" name="NMAXFOCKAE">     0</i>
   <i type="logical" name="LFOCKAEDFT"> F  </i>
   <i name="HFSCREEN">      0.00000000</i>
   <i name="HFSCREENC">      0.00000000</i>
   <i type="int" name="NBANDSGWLOW">     0</i>
  </separator>
  <separator name="vdW DFT" >
   <i type="logical" name="LUSE_VDW"> F  </i>
   <i type="int" name="IVDW_NL">     1</i>
   <i type="logical" name="LSPIN_VDW"> F  </i>
   <i name="Zab_VDW">     -0.84910000</i>
   <i name="PARAM1">      0.12340000</i>
   <i name="PARAM2">      1.00000000</i>
   <i name="PARAM3">      0.00000000</i>
  </separator>
  <separator name="model GW" >
   <i type="int" name="MODEL_GW">     0</i>
   <i name="MODEL_EPS0">     11.61750408</i>
   <i name="MODEL_ALPHA">      1.00000000</i>
  </separator>
  <separator name="linear response parameters" >
   <i type="logical" name="LEPSILON"> F  </i>
   <i type="logical" name="LRPA"> F  </i>
   <i type="logical" name="LNABLA"> F  </i>
   <i type="logical" name="LVEL"> F  </i>
   <i name="CSHIFT">      0.10000000</i>
   <i name="OMEGAMAX">     -1.00000000</i>
   <i name="DEG_THRESHOLD">      0.00200000</i>
   <i name="RTIME">     -0.10000000</i>
   <i name="WPLASMAI">      0.00000000</i>
   <v name="DFIELD">      0.00000000      0.00000000      0.00000000</v>
   <v name="WPLASMA">      0.00000000      0.00000000      0.00000000      0.00000000      0.00000000      0.00000000      0.00000000      0.00000000      0.00000000</v>
  </separator>
  <separator name="orbital magnetization" >
   <i type="logical" name="NUCIND"> F  </i>
   <v name="MAGPOS">      0.00000000      0.00000000      0.00000000</v>
   <i type="logical" name="LNICSALL"> T  </i>
   <i type="logical" name="ORBITALMAG"> F  </i>
   <i type="logical" name="LMAGBLOCH"> F  </i>
   <i type="logical" name="LCHIMAG"> F  </i>
   <i type="logical" name="LGAUGE"> T  </i>
   <i type="int" name="MAGATOM">     0</i>
   <v name="MAGDIPOL">      0.00000000      0.00000000      0.00000000</v>
   <v name="AVECCONST">      0.00000000      0.00000000      0.00000000</v>
  </separator>
  <separator name="response functions" >
   <i type="logical" name="LALL_IN_ONE"> F  </i>
   <i type="int" name="IALL_IN_ONE">    -1</i>
   <i type="int" name="NBANDS_WAVE">    -1</i>
   <i type="logical" name="LFINITE_TEMPERATURE"> F  </i>
   <i type="logical" name="LADDER"> F  </i>
   <i type="logical" name="LRPAFORCE"> F  </i>
   <i type="logical" name="LFXC"> F  </i>
   <i type="logical" name="LHARTREE"> T  </i>
   <i type="int" name="IBSE">     0</i>
   <v type="int" name="KPOINT">    -1     0     0     0</v>
   <i type="logical" name="LTCTC"> F  </i>
   <i type="logical" name="LTCTE"> F  </i>
   <i type="logical" name="LTETE"> F  </i>
   <i type="logical" name="LTRIPLET"> F  </i>
   <i type="logical" name="LFXCEPS"> F  </i>
   <i type="logical" name="LFXHEG"> F  </i>
   <i type="int" name="NATURALO">     2</i>
   <i type="logical" name="LHOLEGF"> F  </i>
   <i type="logical" name="L2ORDER"> F  </i>
   <i type="logical" name="LDMP1"> F  </i>
   <i type="logical" name="LMP2LT"> F  </i>
   <i type="logical" name="LSMP2LT"> F  </i>
   <i type="logical" name="LGWLF"> F  </i>
   <i name="ENCUTGW">     -1.60000002</i>
   <i name="ENCUTGWSOFT">     -1.60000002</i>
   <i name="ENCUTLF">     -1.00000000</i>
   <i type="logical" name="LESF_SPLINES"> F  </i>
   <i type="int" name="LMAXMP2">    -1</i>
   <i name="SCISSOR">      0.00000000</i>
   <i type="int" name="NOMEGA">     0</i>
   <i type="int" name="NOMEGAR">     0</i>
   <i type="int" name="NBANDSGW">    -1</i>
   <i type="int" name="NBANDSO">    -1</i>
   <i type="int" name="NBANDSV">    -1</i>
   <i type="int" name="NELMGW">     1</i>
   <i type="int" name="NELMHF">     1</i>
   <i type="int" name="DIM">     3</i>
   <i type="int" name="IESPILON">     4</i>
   <i type="int" name="ANTIRES">     0</i>
   <i name="OMEGAMAX">    -30.00000000</i>
   <i name="OMEGAMIN">    -30.00000000</i>
   <i name="OMEGATL">   -200.00000000</i>
   <i type="int" name="OMEGAGRID">     0</i>
   <i name="CSHIFT">     -0.10000000</i>
   <i type="logical" name="LSELFENERGY"> F  </i>
   <i type="logical" name="LSPECTRAL"> F  </i>
   <i type="logical" name="LSPECTRALGW"> F  </i>
   <i type="logical" name="LSINGLES"> F  </i>
   <i type="logical" name="LFERMIGW"> F  </i>
   <i type="logical" name="ODDONLYGW"> F  </i>
   <i type="logical" name="EVENONLYGW"> F  </i>
   <i type="int" name="NKREDLFX">     1</i>
   <i type="int" name="NKREDLFY">     1</i>
   <i type="int" name="NKREDLFZ">     1</i>
   <i type="int" name="MAXMEM">  2800</i>
   <i type="int" name="TELESCOPE">     0</i>
   <i type="int" name="NTAUPAR">    -1</i>
   <i type="int" name="NOMEGAPAR">    -1</i>
   <i name="DAMP_NEWTON">      0.80000001</i>
   <i name="LAMBDA">      1.00000000</i>
  </separator>
  <separator name="External order field" >
   <i name="OFIELD_KAPPA">      0.00000000</i>
   <v name="OFIELD_K">      0.00000000      0.00000000      0.00000000</v>
   <i name="OFIELD_Q6_NEAR">      0.00000000</i>
   <i name="OFIELD_Q6_FAR">      0.00000000</i>
   <i name="OFIELD_A">      0.00000000</i>
  </separator>
  <separator name="optional k-points parameters" >
   <i type="int" name="KPOINTS_OPT_MODE">     1</i>
   <i type="logical" name="LKPOINTS_OPT"> F  </i>
  </separator>
 </parameters>
 <atominfo>
  <atoms>      52 </atoms>
  <types>       4 </types>
  <array name="atoms" >
   <dimension dim="1">ion</dimension>
   <field type="string">element</field>
   <field type="int">atomtype</field>
   <set>
    <rc><c>Li</c><c>   1</c></rc>
    <rc><c>Li</c><c>   1</c></rc>
    <rc><c>Li</c><c>   1</c></rc>
    <rc><c>Li</c><c>   1</c></rc>
    <rc><c>Li</c><c>   1</c></rc>
    <rc><c>Li</c><c>   1</c></rc>
    <rc><c>Li</c><c>   1</c></rc>
    <rc><c>Li</c><c>   1</c></rc>
    <rc><c>Li</c><c>   1</c></rc>
    <rc><c>Li</c><c>   1</c></rc>
    <rc><c>Li</c><c>   1</c></rc>
    <rc><c>Li</c><c>   1</c></rc>
    <rc><c>Li</c><c>   1</c></rc>
    <rc><c>Li</c><c>   1</c></rc>
    <rc><c>Li</c><c>   1</c></rc>
    <rc><c>Li</c><c>   1</c></rc>
    <rc><c>Li</c><c>   1</c></rc>
    <rc><c>Li</c><c>   1</c></rc>
    <rc><c>Li</c><c>   1</c></rc>
    <rc><c>Li</c><c>   1</c></rc>
    <rc><c>Li</c><c>   1</c></rc>
    <rc><c>Li</c><c>   1</c></rc>
    <rc><c>Li</c><c>   1</c></rc>
    <rc><c>Li</c><c>   1</c></rc>
    <rc><c>P </c><c>   2</c></rc>
    <rc><c>P </c><c>   2</c></rc>
    <rc><c>P </c><c>   2</c></rc>
    <rc><c>P </c><c>   2</c></rc>
    <rc><c>S </c><c>   3</c></rc>
    <rc><c>S </c><c>   3</c></rc>
    <rc><c>S </c><c>   3</c></rc>
    <rc><c>S </c><c>   3</c></rc>
    <rc><c>S </c><c>   3</c></rc>
    <rc><c>S </c><c>   3</c></rc>
    <rc><c>S </c><c>   3</c></rc>
    <rc><c>S </c><c>   3</c></rc>
    <rc><c>S </c><c>   3</c></rc>
    <rc><c>S </c><c>   3</c></rc>
    <rc><c>S </c><c>   3</c></rc>
    <rc><c>S </c><c>   3</c></rc>
    <rc><c>S </c><c>   3</c></rc>
    <rc><c>S </c><c>   3</c></rc>
    <rc><c>S </c><c>   3</c></rc>
    <rc><c>S </c><c>   3</c></rc>
    <rc><c>S </c><c>   3</c></rc>
    <rc><c>S </c><c>   3</c></rc>
    <rc><c>S </c><c>   3</c></rc>
    <rc><c>S </c><c>   3</c></rc>
    <rc><c>Cl</c><c>   4</c></rc>
    <rc><c>Cl</c><c>   4</c></rc>
    <rc><c>Cl</c><c>   4</c></rc>
    <rc><c>Cl</c><c>   4</c></rc>
   </set>
  </array>
  <array name="atomtypes" >
   <dimension dim="1">type</dimension>
   <field type="int">atomspertype</field>
   <field type="string">element</field>
   <field>mass</field>
   <field>valence</field>
   <field type="string">pseudopotential</field>
   <set>
    <rc><c>  24</c><c>Li</c><c>      7.01000000</c><c>      3.00000000</c><c>  PAW_PBE Li_sv_GW 25Mar2010            </c></rc>
    <rc><c>   4</c><c>P </c><c>     30.97400000</c><c>      5.00000000</c><c>  PAW_PBE P_GW 19Mar2012                </c></rc>
    <rc><c>  20</c><c>S </c><c>     32.06600000</c><c>      6.00000000</c><c>  PAW_PBE S_GW 19Mar2012                </c></rc>
    <rc><c>   4</c><c>Cl</c><c>     35.45300000</c><c>      7.00000000</c><c>  PAW_PBE Cl_GW 19Mar2012               </c></rc>
   </set>
  </array>
 </atominfo>
 <structure name="initialpos" >
  <crystal>
   <varray name="basis" >
    <v>      10.02278257       0.00000000       0.00000000 </v>
    <v>       0.00000000      10.02278257       0.00000000 </v>
    <v>       0.00000000       0.00000000      10.02278257 </v>
   </varray>
   <i name="volume">   1006.85035394 </i>
   <varray name="rec_basis" >
    <v>       0.09977269       0.00000000       0.00000000 </v>
    <v>       0.00000000       0.09977269       0.00000000 </v>
    <v>       0.00000000       0.00000000       0.09977269 </v>
   </varray>
  </crystal>
  <varray name="positions" >
   <v>       0.96861799       0.17071518       0.17071518 </v>
   <v>       0.96861799       0.67071518       0.67071518 </v>
   <v>       0.02734767       0.26451098       0.76451098 </v>
   <v>       0.02734767       0.76451098       0.26451098 </v>
   <v>       0.31182348       0.29257481       0.97726085 </v>
   <v>       0.18697995       0.79916263       0.02514741 </v>
   <v>       0.68683637       0.29952298       0.02533564 </v>
   <v>       0.81194785       0.79273742       0.97735932 </v>
   <v>       0.31182348       0.97726085       0.29257481 </v>
   <v>       0.18697995       0.02514741       0.79916263 </v>
   <v>       0.81194785       0.97735932       0.79273742 </v>
   <v>       0.68683637       0.02533564       0.29952298 </v>
   <v>       0.31182348       0.79257481       0.47726085 </v>
   <v>       0.18697995       0.29916263       0.52514741 </v>
   <v>       0.68683637       0.79952298       0.52533564 </v>
   <v>       0.81194785       0.29273742       0.47735932 </v>
   <v>       0.31182348       0.47726085       0.79257481 </v>
   <v>       0.18697995       0.52514741       0.29916263 </v>
   <v>       0.81194785       0.47735932       0.29273742 </v>
   <v>       0.68683637       0.52533564       0.79952298 </v>
   <v>       0.46889236       0.17100701       0.67100701 </v>
   <v>       0.46889236       0.67100701       0.17100701 </v>
   <v>       0.52740741       0.26469298       0.26469298 </v>
   <v>       0.52740741       0.76469298       0.76469298 </v>
   <v>       0.50363123       0.49857733       0.49857733 </v>
   <v>       0.50363123       0.99857733       0.99857733 </v>
   <v>       0.00358484       0.49840868       0.99840868 </v>
   <v>       0.00358484       0.99840868       0.49840868 </v>
   <v>       0.11838697       0.87241713       0.61300926 </v>
   <v>       0.11838697       0.11300926       0.37241713 </v>
   <v>       0.87022667       0.88682150       0.38682150 </v>
   <v>       0.89363453       0.12228179       0.62228179 </v>
   <v>       0.89363453       0.62228179       0.12228179 </v>
   <v>       0.87022667       0.38682150       0.88682150 </v>
   <v>       0.11838697       0.61300926       0.87241713 </v>
   <v>       0.11838697       0.37241713       0.11300926 </v>
   <v>       0.61849225       0.11318729       0.87263174 </v>
   <v>       0.61849225       0.87263174       0.11318729 </v>
   <v>       0.39369459       0.12244575       0.12244575 </v>
   <v>       0.37031101       0.88696828       0.88696828 </v>
   <v>       0.61849225       0.61318729       0.37263174 </v>
   <v>       0.61849225       0.37263174       0.61318729 </v>
   <v>       0.39369459       0.62244575       0.62244575 </v>
   <v>       0.37031101       0.38696828       0.38696828 </v>
   <v>       0.75506236       0.74935365       0.74935365 </v>
   <v>       0.75506236       0.24935365       0.24935365 </v>
   <v>       0.25505567       0.74923340       0.24923340 </v>
   <v>       0.25505567       0.24923340       0.74923340 </v>
   <v>       0.99679539       0.97728093       0.97728093 </v>
   <v>       0.99679539       0.47728093       0.47728093 </v>
   <v>       0.49680453       0.97735604       0.47735604 </v>
   <v>       0.49680453       0.47735604       0.97735604 </v>
  </varray>
 </structure>
 <calculation>
  <scstep>
   <time name="dav">    2.15    2.21</time>
   <time name="total">    2.63    2.72</time>
   <energy>
    <i name="alphaZ">    269.61057581 </i>
    <i name="ewald">  -8389.51107143 </i>
    <i name="hartreedc">  -2329.20779266 </i>
    <i name="XCdc">    528.60420437 </i>
    <i name="pawpsdc">   8141.38806575 </i>
    <i name="pawaedc">  -8271.61346273 </i>
    <i name="eentropy">     -0.00964429 </i>
    <i name="bandstr">  -1078.06192526 </i>
    <i name="atom">  12703.13999606 </i>
    <i name="e_fr_energy">   1574.33894562 </i>
    <i name="e_wo_entrp">   1574.34858991 </i>
    <i name="e_0_energy">   1574.34376776 </i>
   </energy>
  </scstep>
  <scstep>
   <time name="dav">    2.45    2.48</time>
   <time name="total">    2.45    2.48</time>
   <energy>
    <i name="e_fr_energy">    -52.13263958 </i>
    <i name="e_wo_entrp">    -52.13263958 </i>
    <i name="e_0_energy">    -52.13263958 </i>
   </energy>
  </scstep>
  <scstep>
   <time name="dav">    2.44    2.46</time>
   <time name="total">    2.44    2.47</time>
   <energy>
    <i name="e_fr_energy">   -228.41886855 </i>
    <i name="e_wo_entrp">   -228.41886855 </i>
    <i name="e_0_energy">   -228.41886855 </i>
   </energy>
  </scstep>
  <scstep>
   <time name="dav">    2.92    2.95</time>
   <time name="total">    2.92    2.95</time>
   <energy>
    <i name="e_fr_energy">   -242.31744727 </i>
    <i name="e_wo_entrp">   -242.31744727 </i>
    <i name="e_0_energy">   -242.31744727 </i>
   </energy>
  </scstep>
  <scstep>
   <time name="dav">    2.81    2.84</time>
   <time name="total">    2.81    2.84</time>
   <energy>
    <i name="e_fr_energy">   -242.54113101 </i>
    <i name="e_wo_entrp">   -242.54113101 </i>
    <i name="e_0_energy">   -242.54113101 </i>
   </energy>
  </scstep>
  <scstep>
   <time name="dav">    2.86    2.89</time>
   <time name="total">    2.86    2.89</time>
   <energy>
    <i name="e_fr_energy">   -242.55277611 </i>
    <i name="e_wo_entrp">   -242.55277611 </i>
    <i name="e_0_energy">   -242.55277611 </i>
   </energy>
  </scstep>
  <scstep>
   <time name="dav">    2.84    2.87</time>
   <time name="total">    2.84    2.87</time>
   <energy>
    <i name="e_fr_energy">   -242.55313614 </i>
    <i name="e_wo_entrp">   -242.55313614 </i>
    <i name="e_0_energy">   -242.55313614 </i>
   </energy>
  </scstep>
  <scstep>
   <time name="dav">    2.84    2.88</time>
   <time name="total">    2.84    2.88</time>
   <energy>
    <i name="e_fr_energy">   -242.55315701 </i>
    <i name="e_wo_entrp">   -242.55315701 </i>
    <i name="e_0_energy">   -242.55315701 </i>
   </energy>
  </scstep>
  <scstep>
   <time name="dav">    2.65    2.68</time>
   <time name="total">    2.65    2.68</time>
   <energy>
    <i name="e_fr_energy">   -242.55315834 </i>
    <i name="e_wo_entrp">   -242.55315834 </i>
    <i name="e_0_energy">   -242.55315834 </i>
   </energy>
  </scstep>
  <scstep>
   <time name="dav">    1.83    1.85</time>
   <time name="total">    2.02    2.10</time>
   <energy>
    <i name="e_fr_energy">   -242.55315841 </i>
    <i name="e_wo_entrp">   -242.55315841 </i>
    <i name="e_0_energy">   -242.55315841 </i>
   </energy>
  </scstep>
  <scstep>
   <time name="diag">    0.29    0.29</time>
   <time name="diis">    1.20    1.21</time>
   <time name="orth">    0.05    0.05</time>
   <time name="total">    2.18    2.25</time>
   <energy>
    <i name="e_fr_energy">   -226.80312548 </i>
    <i name="e_wo_entrp">   -226.80312548 </i>
    <i name="e_0_energy">   -226.80312548 </i>
   </energy>
  </scstep>
  <scstep>
   <time name="diag">    0.29    0.29</time>
   <time name="diis">    1.25    1.27</time>
   <time name="orth">    0.05    0.05</time>
   <time name="total">    2.24    2.32</time>
   <energy>
    <i name="e_fr_energy">   -256.73669690 </i>
    <i name="e_wo_entrp">   -256.73669690 </i>
    <i name="e_0_energy">   -256.73669690 </i>
   </energy>
  </scstep>
  <scstep>
   <time name="diag">    0.29    0.29</time>
   <time name="diis">    1.22    1.23</time>
   <time name="orth">    0.05    0.05</time>
   <time name="total">    2.21    2.26</time>
   <energy>
    <i name="e_fr_energy">   -259.02553782 </i>
    <i name="e_wo_entrp">   -259.02553782 </i>
    <i name="e_0_energy">   -259.02553782 </i>
   </energy>
  </scstep>
  <scstep>
   <time name="diag">    0.29    0.29</time>
   <time name="diis">    1.47    1.49</time>
   <time name="orth">    0.05    0.05</time>
   <time name="total">    2.45    2.49</time>
   <energy>
    <i name="e_fr_energy">   -259.39514952 </i>
    <i name="e_wo_entrp">   -259.39514952 </i>
    <i name="e_0_energy">   -259.39514952 </i>
   </energy>
  </scstep>
  <scstep>
   <time name="diag">    0.29    0.29</time>
   <time name="diis">    1.32    1.34</time>
   <time name="orth">    0.05    0.05</time>
   <time name="total">    2.30    2.34</time>
   <energy>
    <i name="e_fr_energy">   -259.37605746 </i>
    <i name="e_wo_entrp">   -259.37605746 </i>
    <i name="e_0_energy">   -259.37605746 </i>
   </energy>
  </scstep>
  <scstep>
   <time name="diag">    0.29    0.29</time>
   <time name="diis">    1.38    1.41</time>
   <time name="orth">    0.05    0.05</time>
   <time name="total">    2.35    2.42</time>
   <energy>
    <i name="e_fr_energy">   -259.39795327 </i>
    <i name="e_wo_entrp">   -259.39795327 </i>
    <i name="e_0_energy">   -259.39795327 </i>
   </energy>
  </scstep>
  <scstep>
   <time name="diag">    0.29    0.29</time>
   <time name="diis">    1.47    1.48</time>
   <time name="orth">    0.05    0.05</time>
   <time name="total">    2.45    2.50</time>
   <energy>
    <i name="e_fr_energy">   -259.40436705 </i>
    <i name="e_wo_entrp">   -259.40436705 </i>
    <i name="e_0_energy">   -259.40436705 </i>
   </energy>
  </scstep>
  <scstep>
   <time name="diag">    0.29    0.29</time>
   <time name="diis">    1.47    1.49</time>
   <time name="orth">    0.05    0.05</time>
   <time name="total">    2.46    2.51</time>
   <energy>
    <i name="e_fr_energy">   -259.40627137 </i>
    <i name="e_wo_entrp">   -259.40627137 </i>
    <i name="e_0_energy">   -259.40627137 </i>
   </energy>
  </scstep>
  <scstep>
   <time name="diag">    0.29    0.29</time>
   <time name="diis">    1.73    1.75</time>
   <time name="orth">    0.05    0.05</time>
   <time name="total">    2.70    2.75</time>
   <energy>
    <i name="e_fr_energy">   -259.40680031 </i>
    <i name="e_wo_entrp">   -259.40680031 </i>
    <i name="e_0_energy">   -259.40680031 </i>
   </energy>
  </scstep>
  <scstep>
   <time name="diag">    0.29    0.29</time>
   <time name="diis">    1.53    1.55</time>
   <time name="orth">    0.05    0.05</time>
   <time name="total">    2.51    2.55</time>
   <energy>
    <i name="e_fr_energy">   -259.40690738 </i>
    <i name="e_wo_entrp">   -259.40690738 </i>
    <i name="e_0_energy">   -259.40690738 </i>
   </energy>
  </scstep>
  <scstep>
   <time name="diag">    0.29    0.29</time>
   <time name="diis">    1.50    1.52</time>
   <time name="orth">    0.05    0.05</time>
   <time name="total">    2.48    2.54</time>
   <energy>
    <i name="e_fr_energy">   -259.40693742 </i>
    <i name="e_wo_entrp">   -259.40693742 </i>
    <i name="e_0_energy">   -259.40693742 </i>
   </energy>
  </scstep>
  <scstep>
   <time name="diag">    0.29    0.29</time>
   <time name="diis">    1.59    1.61</time>
   <time name="orth">    0.05    0.05</time>
   <time name="total">    2.56    2.59</time>
   <energy>
    <i name="e_fr_energy">   -259.40694511 </i>
    <i name="e_wo_entrp">   -259.40694511 </i>
    <i name="e_0_energy">   -259.40694511 </i>
   </energy>
  </scstep>
  <scstep>
   <time name="diag">    0.29    0.29</time>
   <time name="diis">    1.39    1.41</time>
   <time name="orth">    0.05    0.05</time>
   <time name="total">    2.36    2.38</time>
   <energy>
    <i name="e_fr_energy">   -259.40694533 </i>
    <i name="e_wo_entrp">   -259.40694533 </i>
    <i name="e_0_energy">   -259.40694533 </i>
   </energy>
  </scstep>
  <scstep>
   <time name="diag">    0.29    0.29</time>
   <time name="diis">    0.97    0.98</time>
   <time name="orth">    0.05    0.05</time>
   <time name="total">    1.78    1.80</time>
   <energy>
    <i name="alphaZ">    269.61057581 </i>
    <i name="ewald">  -8389.51107143 </i>
    <i name="hartreedc">  -2442.22311237 </i>
    <i name="XCdc">    533.25303228 </i>
    <i name="pawpsdc">   9603.04759357 </i>
    <i name="pawaedc">  -9746.32785895 </i>
    <i name="eentropy">     -0.00000000 </i>
    <i name="bandstr">  -2790.39609986 </i>
    <i name="atom">  12703.13999606 </i>
    <i name="e_fr_energy">   -259.40694490 </i>
    <i name="e_wo_entrp">   -259.40694490 </i>
    <i name="e_0_energy">   -259.40694490 </i>
   </energy>
  </scstep>
  <structure>
   <crystal>
    <varray name="basis" >
     <v>      10.02278257       0.00000000       0.00000000 </v>
     <v>       0.00000000      10.02278257       0.00000000 </v>
     <v>       0.00000000       0.00000000      10.02278257 </v>
    </varray>
    <i name="volume">   1006.85035394 </i>
    <varray name="rec_basis" >
     <v>       0.09977269       0.00000000       0.00000000 </v>
     <v>       0.00000000       0.09977269       0.00000000 </v>
     <v>       0.00000000       0.00000000       0.09977269 </v>
    </varray>
   </crystal>
   <varray name="positions" >
    <v>       0.96861799       0.17071518       0.17071518 </v>
    <v>       0.96861799       0.67071518       0.67071518 </v>
    <v>       0.02734767       0.26451098       0.76451098 </v>
    <v>       0.02734767       0.76451098       0.26451098 </v>
    <v>       0.31182348       0.29257481       0.97726085 </v>
    <v>       0.18697995       0.79916263       0.02514741 </v>
    <v>       0.68683637       0.29952298       0.02533564 </v>
    <v>       0.81194785       0.79273742       0.97735932 </v>
    <v>       0.31182348       0.97726085       0.29257481 </v>
    <v>       0.18697995       0.02514741       0.79916263 </v>
    <v>       0.81194785       0.97735932       0.79273742 </v>
    <v>       0.68683637       0.02533564       0.29952298 </v>
    <v>       0.31182348       0.79257481       0.47726085 </v>
    <v>       0.18697995       0.29916263       0.52514741 </v>
    <v>       0.68683637       0.79952298       0.52533564 </v>
    <v>       0.81194785       0.29273742       0.47735932 </v>
    <v>       0.31182348       0.47726085       0.79257481 </v>
    <v>       0.18697995       0.52514741       0.29916263 </v>
    <v>       0.81194785       0.47735932       0.29273742 </v>
    <v>       0.68683637       0.52533564       0.79952298 </v>
    <v>       0.46889236       0.17100701       0.67100701 </v>
    <v>       0.46889236       0.67100701       0.17100701 </v>
    <v>       0.52740741       0.26469298       0.26469298 </v>
    <v>       0.52740741       0.76469298       0.76469298 </v>
    <v>       0.50363123       0.49857733       0.49857733 </v>
    <v>       0.50363123       0.99857733       0.99857733 </v>
    <v>       0.00358484       0.49840868       0.99840868 </v>
    <v>       0.00358484       0.99840868       0.49840868 </v>
    <v>       0.11838697       0.87241713       0.61300926 </v>
    <v>       0.11838697       0.11300926       0.37241713 </v>
    <v>       0.87022667       0.88682150       0.38682150 </v>
    <v>       0.89363453       0.12228179       0.62228179 </v>
    <v>       0.89363453       0.62228179       0.12228179 </v>
    <v>       0.87022667       0.38682150       0.88682150 </v>
    <v>       0.11838697       0.61300926       0.87241713 </v>
    <v>       0.11838697       0.37241713       0.11300926 </v>
    <v>       0.61849225       0.11318729       0.87263174 </v>
    <v>       0.61849225       0.87263174       0.11318729 </v>
    <v>       0.39369459       0.12244575       0.12244575 </v>
    <v>       0.37031101       0.88696828       0.88696828 </v>
    <v>       0.61849225       0.61318729       0.37263174 </v>
    <v>       0.61849225       0.37263174       0.61318729 </v>
    <v>       0.39369459       0.62244575       0.62244575 </v>
    <v>       0.37031101       0.38696828       0.38696828 </v>
    <v>       0.75506236       0.74935365       0.74935365 </v>
    <v>       0.75506236       0.24935365       0.24935365 </v>
    <v>       0.25505567       0.74923340       0.24923340 </v>
    <v>       0.25505567       0.24923340       0.74923340 </v>
    <v>       0.99679539       0.97728093       0.97728093 </v>
    <v>       0.99679539       0.47728093       0.47728093 </v>
    <v>       0.49680453       0.97735604       0.47735604 </v>
    <v>       0.49680453       0.47735604       0.97735604 </v>
   </varray>
  </structure>
  <varray name="forces" >
   <v>       0.00031944      -0.00036603      -0.00036603 </v>
   <v>       0.00031944      -0.00036603      -0.00036603 </v>
   <v>       0.00051363       0.00050757       0.00050757 </v>
   <v>       0.00051363       0.00050757       0.00050757 </v>
   <v>       0.00027572       0.00039303       0.00030761 </v>
   <v>      -0.00053662       0.00053800       0.00058780 </v>
   <v>       0.00018534      -0.00103242      -0.00051700 </v>
   <v>      -0.00032510      -0.00036640      -0.00003667 </v>
   <v>       0.00027572       0.00030761       0.00039303 </v>
   <v>      -0.00053662       0.00058780       0.00053800 </v>
   <v>      -0.00032510      -0.00003667      -0.00036640 </v>
   <v>       0.00018534      -0.00051700      -0.00103242 </v>
   <v>       0.00027572       0.00039303       0.00030761 </v>
   <v>      -0.00053662       0.00053800       0.00058780 </v>
   <v>       0.00018534      -0.00103242      -0.00051700 </v>
   <v>      -0.00032510      -0.00036640      -0.00003667 </v>
   <v>       0.00027572       0.00030761       0.00039303 </v>
   <v>      -0.00053662       0.00058780       0.00053800 </v>
   <v>      -0.00032510      -0.00003667      -0.00036640 </v>
   <v>       0.00018534      -0.00051700      -0.00103242 </v>
   <v>      -0.00059980      -0.00124621      -0.00124621 </v>
   <v>      -0.00059980      -0.00124621      -0.00124621 </v>
   <v>      -0.00001773      -0.00017104      -0.00017104 </v>
   <v>      -0.00001773      -0.00017104      -0.00017104 </v>
   <v>       0.00139966       0.00050659       0.00050659 </v>
   <v>       0.00139966       0.00050659       0.00050659 </v>
   <v>      -0.00023646       0.00024454       0.00024454 </v>
   <v>      -0.00023646       0.00024454       0.00024454 </v>
   <v>       0.00076508      -0.00016577       0.00083559 </v>
   <v>       0.00076508       0.00083559      -0.00016577 </v>
   <v>       0.00017511       0.00053324       0.00053324 </v>
   <v>       0.00065590       0.00025138       0.00025138 </v>
   <v>       0.00065590       0.00025138       0.00025138 </v>
   <v>       0.00017511       0.00053324       0.00053324 </v>
   <v>       0.00076508       0.00083559      -0.00016577 </v>
   <v>       0.00076508      -0.00016577       0.00083559 </v>
   <v>      -0.00089834      -0.00084980      -0.00026616 </v>
   <v>      -0.00089834      -0.00026616      -0.00084980 </v>
   <v>      -0.00022636       0.00002843       0.00002843 </v>
   <v>      -0.00086193      -0.00082945      -0.00082945 </v>
   <v>      -0.00089834      -0.00084980      -0.00026616 </v>
   <v>      -0.00089834      -0.00026616      -0.00084980 </v>
   <v>      -0.00022636       0.00002843       0.00002843 </v>
   <v>      -0.00086193      -0.00082945      -0.00082945 </v>
   <v>       0.00027980      -0.00026989      -0.00026989 </v>
   <v>       0.00027980      -0.00026989      -0.00026989 </v>
   <v>      -0.00003948       0.00021805       0.00021805 </v>
   <v>      -0.00003948       0.00021805       0.00021805 </v>
   <v>      -0.00025682       0.00096272       0.00096272 </v>
   <v>      -0.00025682       0.00096272       0.00096272 </v>
   <v>      -0.00003716       0.00020228       0.00020228 </v>
   <v>      -0.00003716       0.00020228       0.00020228 </v>
  </varray>
  <varray name="stress" >
   <v>     -29.70378531      -3.83480092      -3.83480092 </v>
   <v>      -3.83479928     -23.88525951      -5.59666719 </v>
   <v>      -3.83479928      -5.59666719     -23.88525951 </v>
  </varray>
  <energy>
   <i name="e_fr_energy">   -271.47517894 </i>
   <i name="e_wo_entrp">   -271.47517894 </i>
   <i name="e_0_energy">   -271.47517894 </i>
  </energy>
  <time name="totalsc">   62.51   63.66</time>
 </calculation>
 <calculation>
  <scstep>
   <time name="dav">    2.16    2.19</time>
   <time name="total">    2.80    2.89</time>
   <energy>
    <i name="alphaZ">    269.61057581 </i>
    <i name="ewald">  -8389.51893223 </i>
    <i name="hartreedc">  -2442.22122846 </i>
    <i name="XCdc">    533.25302001 </i>
    <i name="pawpsdc">   9603.04182824 </i>
    <i name="pawaedc">  -9746.32191563 </i>
    <i name="eentropy">     -0.00000000 </i>
    <i name="bandstr">  -2790.39028964 </i>
    <i name="atom">  12703.13999606 </i>
    <i name="e_fr_energy">   -259.40694584 </i>
    <i name="e_wo_entrp">   -259.40694584 </i>
    <i name="e_0_energy">   -259.40694584 </i>
   </energy>
  </scstep>
  <scstep>
   <time name="diag">    0.29    0.30</time>
   <time name="diis">    0.85    0.86</time>
   <time name="orth">    0.05    0.05</time>
   <time name="total">    1.67    1.68</time>
   <energy>
    <i name="alphaZ">    269.61057581 </i>
    <i name="ewald">  -8389.51893223 </i>
    <i name="hartreedc">  -2442.22248770 </i>
    <i name="XCdc">    533.25279810 </i>
    <i name="pawpsdc">   9603.01543981 </i>
    <i name="pawaedc">  -9746.29492350 </i>
    <i name="eentropy">     -0.00000000 </i>
    <i name="bandstr">  -2790.38941239 </i>
    <i name="atom">  12703.13999606 </i>
    <i name="e_fr_energy">   -259.40694604 </i>
    <i name="e_wo_entrp">   -259.40694604 </i>
    <i name="e_0_energy">   -259.40694604 </i>
   </energy>
  </scstep>
  <structure>
   <crystal>
    <varray name="basis" >
     <v>      10.02278257       0.00000000       0.00000000 </v>
     <v>       0.00000000      10.02278257       0.00000000 </v>
     <v>       0.00000000       0.00000000      10.02278257 </v>
    </varray>
    <i name="volume">   1006.85035394 </i>
    <varray name="rec_basis" >
     <v>       0.09977269       0.00000000       0.00000000 </v>
     <v>       0.00000000       0.09977269       0.00000000 </v>
     <v>       0.00000000       0.00000000       0.09977269 </v>
    </varray>
   </crystal>
   <varray name="positions" >
    <v>       0.96861860       0.17071447       0.17071447 </v>
    <v>       0.96861860       0.67071447       0.67071447 </v>
    <v>       0.02734865       0.26451195       0.76451195 </v>
    <v>       0.02734865       0.76451195       0.26451195 </v>
    <v>       0.31182401       0.29257556       0.97726144 </v>
    <v>       0.18697892       0.79916367       0.02514854 </v>
    <v>       0.68683673       0.29952099       0.02533464 </v>
    <v>       0.81194722       0.79273672       0.97735925 </v>
    <v>       0.31182401       0.97726144       0.29257556 </v>
    <v>       0.18697892       0.02514854       0.79916367 </v>
    <v>       0.81194722       0.97735925       0.79273672 </v>
    <v>       0.68683673       0.02533464       0.29952099 </v>
    <v>       0.31182401       0.79257556       0.47726144 </v>
    <v>       0.18697892       0.29916367       0.52514854 </v>
    <v>       0.68683673       0.79952099       0.52533464 </v>
    <v>       0.81194722       0.29273672       0.47735925 </v>
    <v>       0.31182401       0.47726144       0.79257556 </v>
    <v>       0.18697892       0.52514854       0.29916367 </v>
    <v>       0.81194722       0.47735925       0.29273672 </v>
    <v>       0.68683673       0.52533464       0.79952099 </v>
    <v>       0.46889120       0.17100461       0.67100461 </v>
    <v>       0.46889120       0.67100461       0.17100461 </v>
    <v>       0.52740737       0.26469266       0.26469266 </v>
    <v>       0.52740737       0.76469266       0.76469266 </v>
    <v>       0.50363393       0.49857830       0.49857830 </v>
    <v>       0.50363393       0.99857830       0.99857830 </v>
    <v>       0.00358438       0.49840915       0.99840915 </v>
    <v>       0.00358438       0.99840915       0.49840915 </v>
    <v>       0.11838844       0.87241681       0.61301087 </v>
    <v>       0.11838844       0.11301087       0.37241681 </v>
    <v>       0.87022701       0.88682253       0.38682253 </v>
    <v>       0.89363579       0.12228228       0.62228228 </v>
    <v>       0.89363579       0.62228228       0.12228228 </v>
    <v>       0.87022701       0.38682253       0.88682253 </v>
    <v>       0.11838844       0.61301087       0.87241681 </v>
    <v>       0.11838844       0.37241681       0.11301087 </v>
    <v>       0.61849052       0.11318565       0.87263122 </v>
    <v>       0.61849052       0.87263122       0.11318565 </v>
    <v>       0.39369415       0.12244581       0.12244581 </v>
    <v>       0.37030935       0.88696668       0.88696668 </v>
    <v>       0.61849052       0.61318565       0.37263122 </v>
    <v>       0.61849052       0.37263122       0.61318565 </v>
    <v>       0.39369415       0.62244581       0.62244581 </v>
    <v>       0.37030935       0.38696668       0.38696668 </v>
    <v>       0.75506290       0.74935313       0.74935313 </v>
    <v>       0.75506290       0.24935313       0.24935313 </v>
    <v>       0.25505560       0.74923382       0.24923382 </v>
    <v>       0.25505560       0.24923382       0.74923382 </v>
    <v>       0.99679490       0.97728279       0.97728279 </v>
    <v>       0.99679490       0.47728279       0.47728279 </v>
    <v>       0.49680446       0.97735643       0.47735643 </v>
    <v>       0.49680446       0.47735643       0.97735643 </v>
   </varray>
  </structure>
  <varray name="forces" >
   <v>       0.00023211      -0.00022487      -0.00022487 </v>
   <v>       0.00023211      -0.00022487      -0.00022487 </v>
   <v>       0.00028319       0.00033172       0.00033172 </v>
   <v>       0.00028319       0.00033172       0.00033172 </v>
   <v>       0.00012214       0.00023714       0.00020752 </v>
   <v>      -0.00026220       0.00036063       0.00028894 </v>
   <v>       0.00008419      -0.00054898      -0.00024549 </v>
   <v>      -0.00015481      -0.00016733      -0.00002932 </v>
   <v>       0.00012214       0.00020752       0.00023714 </v>
   <v>      -0.00026220       0.00028894       0.00036063 </v>
   <v>      -0.00015481      -0.00002932      -0.00016733 </v>
   <v>       0.00008419      -0.00024549      -0.00054898 </v>
   <v>       0.00012214       0.00023714       0.00020752 </v>
   <v>      -0.00026220       0.00036063       0.00028894 </v>
   <v>       0.00008419      -0.00054898      -0.00024549 </v>
   <v>      -0.00015481      -0.00016733      -0.00002932 </v>
   <v>       0.00012214       0.00020752       0.00023714 </v>
   <v>      -0.00026220       0.00028894       0.00036063 </v>
   <v>      -0.00015481      -0.00002932      -0.00016733 </v>
   <v>       0.00008419      -0.00024549      -0.00054898 </v>
   <v>      -0.00046331      -0.00079159      -0.00079159 </v>
   <v>      -0.00046331      -0.00079159      -0.00079159 </v>
   <v>      -0.00006960      -0.00002519      -0.00002519 </v>
   <v>      -0.00006960      -0.00002519      -0.00002519 </v>
   <v>       0.00018361       0.00010276       0.00010276 </v>
   <v>       0.00018361       0.00010276       0.00010276 </v>
   <v>       0.00033541       0.00026291       0.00026291 </v>
   <v>       0.00033541       0.00026291       0.00026291 </v>
   <v>       0.00031578       0.00011002       0.00037504 </v>
   <v>       0.00031578       0.00037504       0.00011002 </v>
   <v>       0.00010768       0.00022720       0.00022720 </v>
   <v>       0.00033697       0.00025422       0.00025422 </v>
   <v>       0.00033697       0.00025422       0.00025422 </v>
   <v>       0.00010768       0.00022720       0.00022720 </v>
   <v>       0.00031578       0.00037504       0.00011002 </v>
   <v>       0.00031578       0.00011002       0.00037504 </v>
   <v>      -0.00030846      -0.00028059      -0.00030353 </v>
   <v>      -0.00030846      -0.00030353      -0.00028059 </v>
   <v>      -0.00007688       0.00000725       0.00000725 </v>
   <v>      -0.00012172      -0.00018457      -0.00018457 </v>
   <v>      -0.00030846      -0.00028059      -0.00030353 </v>
   <v>      -0.00030846      -0.00030353      -0.00028059 </v>
   <v>      -0.00007688       0.00000725       0.00000725 </v>
   <v>      -0.00012172      -0.00018457      -0.00018457 </v>
   <v>       0.00007555      -0.00011642      -0.00011642 </v>
   <v>       0.00007555      -0.00011642      -0.00011642 </v>
   <v>      -0.00007062       0.00017827       0.00017827 </v>
   <v>      -0.00007062       0.00017827       0.00017827 </v>
   <v>      -0.00018443       0.00012912       0.00012912 </v>
   <v>      -0.00018443       0.00012912       0.00012912 </v>
   <v>      -0.00016124      -0.00015489      -0.00015489 </v>
   <v>      -0.00016124      -0.00015489      -0.00015489 </v>
  </varray>
  <varray name="stress" >
   <v>     -29.71059518      -3.83599378      -3.83599378 </v>
   <v>      -3.83599228     -23.89202845      -5.59867645 </v>
   <v>      -3.83599228      -5.59867645     -23.89202845 </v>
  </varray>
  <energy>
   <i name="e_fr_energy">   -271.47518019 </i>
   <i name="e_wo_entrp">   -271.47518019 </i>
   <i name="e_0_energy">   -271.47518019 </i>
  </energy>
  <time name="totalsc">    7.50    7.69</time>
 </calculation>
 <calculation>
  <scstep>
   <time name="dav">    2.12    2.15</time>
   <time name="total">    2.75    2.83</time>
   <energy>
    <i name="alphaZ">    269.61057581 </i>
    <i name="ewald">  -8389.52447460 </i>
    <i name="hartreedc">  -2442.21841478 </i>
    <i name="XCdc">    533.25257449 </i>
    <i name="pawpsdc">   9602.99847272 </i>
    <i name="pawaedc">  -9746.27761270 </i>
    <i name="eentropy">     -0.00000000 </i>
    <i name="bandstr">  -2790.38806340 </i>
    <i name="atom">  12703.13999606 </i>
    <i name="e_fr_energy">   -259.40694640 </i>
    <i name="e_wo_entrp">   -259.40694640 </i>
    <i name="e_0_energy">   -259.40694640 </i>
   </energy>
  </scstep>
  <scstep>
   <time name="diag">    0.29    0.30</time>
   <time name="diis">    0.82    0.82</time>
   <time name="orth">    0.05    0.05</time>
   <time name="total">    1.63    1.64</time>
   <energy>
    <i name="alphaZ">    269.61057581 </i>
    <i name="ewald">  -8389.52447460 </i>
    <i name="hartreedc">  -2442.21809272 </i>
    <i name="XCdc">    533.25244975 </i>
    <i name="pawpsdc">   9602.98318094 </i>
    <i name="pawaedc">  -9746.26211444 </i>
    <i name="eentropy">     -0.00000000 </i>
    <i name="bandstr">  -2790.38846726 </i>
    <i name="atom">  12703.13999606 </i>
    <i name="e_fr_energy">   -259.40694646 </i>
    <i name="e_wo_entrp">   -259.40694646 </i>
    <i name="e_0_energy">   -259.40694646 </i>
   </energy>
  </scstep>
  <structure>
   <crystal>
    <varray name="basis" >
     <v>      10.02278257       0.00000000       0.00000000 </v>
     <v>       0.00000000      10.02278257       0.00000000 </v>
     <v>       0.00000000       0.00000000      10.02278257 </v>
    </varray>
    <i name="volume">   1006.85035394 </i>
    <varray name="rec_basis" >
     <v>       0.09977269       0.00000000       0.00000000 </v>
     <v>       0.00000000       0.09977269       0.00000000 </v>
     <v>       0.00000000       0.00000000       0.09977269 </v>
    </varray>
   </crystal>
   <varray name="positions" >
    <v>       0.96861904       0.17071398       0.17071398 </v>
    <v>       0.96861904       0.67071398       0.67071398 </v>
    <v>       0.02734935       0.26451264       0.76451264 </v>
    <v>       0.02734935       0.76451264       0.26451264 </v>
    <v>       0.31182438       0.29257610       0.97726186 </v>
    <v>       0.18697819       0.79916440       0.02514934 </v>
    <v>       0.68683698       0.29951959       0.02533394 </v>
    <v>       0.81194678       0.79273622       0.97735920 </v>
    <v>       0.31182438       0.97726186       0.29257610 </v>
    <v>       0.18697819       0.02514934       0.79916440 </v>
    <v>       0.81194678       0.97735920       0.79273622 </v>
    <v>       0.68683698       0.02533394       0.29951959 </v>
    <v>       0.31182438       0.79257610       0.47726186 </v>
    <v>       0.18697819       0.29916440       0.52514934 </v>
    <v>       0.68683698       0.79951959       0.52533394 </v>
    <v>       0.81194678       0.29273622       0.47735920 </v>
    <v>       0.31182438       0.47726186       0.79257610 </v>
    <v>       0.18697819       0.52514934       0.29916440 </v>
    <v>       0.81194678       0.47735920       0.29273622 </v>
    <v>       0.68683698       0.52533394       0.79951959 </v>
    <v>       0.46889039       0.17100292       0.67100292 </v>
    <v>       0.46889039       0.67100292       0.17100292 </v>
    <v>       0.52740735       0.26469242       0.26469242 </v>
    <v>       0.52740735       0.76469242       0.76469242 </v>
    <v>       0.50363583       0.49857899       0.49857899 </v>
    <v>       0.50363583       0.99857899       0.99857899 </v>
    <v>       0.00358406       0.49840948       0.99840948 </v>
    <v>       0.00358406       0.99840948       0.49840948 </v>
    <v>       0.11838948       0.87241659       0.61301201 </v>
    <v>       0.11838948       0.11301201       0.37241659 </v>
    <v>       0.87022725       0.88682326       0.38682326 </v>
    <v>       0.89363668       0.12228262       0.62228262 </v>
    <v>       0.89363668       0.62228262       0.12228262 </v>
    <v>       0.87022725       0.38682326       0.88682326 </v>
    <v>       0.11838948       0.61301201       0.87241659 </v>
    <v>       0.11838948       0.37241659       0.11301201 </v>
    <v>       0.61848930       0.11318450       0.87263086 </v>
    <v>       0.61848930       0.87263086       0.11318450 </v>
    <v>       0.39369385       0.12244585       0.12244585 </v>
    <v>       0.37030818       0.88696556       0.88696556 </v>
    <v>       0.61848930       0.61318450       0.37263086 </v>
    <v>       0.61848930       0.37263086       0.61318450 </v>
    <v>       0.39369385       0.62244585       0.62244585 </v>
    <v>       0.37030818       0.38696556       0.38696556 </v>
    <v>       0.75506328       0.74935276       0.74935276 </v>
    <v>       0.75506328       0.24935276       0.24935276 </v>
    <v>       0.25505554       0.74923411       0.24923411 </v>
    <v>       0.25505554       0.24923411       0.74923411 </v>
    <v>       0.99679455       0.97728409       0.97728409 </v>
    <v>       0.99679455       0.47728409       0.47728409 </v>
    <v>       0.49680441       0.97735671       0.47735671 </v>
    <v>       0.49680441       0.47735671       0.97735671 </v>
   </varray>
  </structure>
  <varray name="forces" >
   <v>       0.00029434      -0.00024596      -0.00024596 </v>
   <v>       0.00029434      -0.00024596      -0.00024596 </v>
   <v>       0.00035131       0.00039790       0.00039790 </v>
   <v>       0.00035131       0.00039790       0.00039790 </v>
   <v>       0.00015856       0.00029352       0.00025512 </v>
   <v>      -0.00031060       0.00046552       0.00036272 </v>
   <v>       0.00013444      -0.00072463      -0.00031377 </v>
   <v>      -0.00017997      -0.00021726      -0.00003344 </v>
   <v>       0.00015856       0.00025512       0.00029352 </v>
   <v>      -0.00031060       0.00036272       0.00046552 </v>
   <v>      -0.00017997      -0.00003344      -0.00021726 </v>
   <v>       0.00013444      -0.00031377      -0.00072463 </v>
   <v>       0.00015856       0.00029352       0.00025512 </v>
   <v>      -0.00031060       0.00046552       0.00036272 </v>
   <v>       0.00013444      -0.00072463      -0.00031377 </v>
   <v>      -0.00017997      -0.00021726      -0.00003344 </v>
   <v>       0.00015856       0.00025512       0.00029352 </v>
   <v>      -0.00031060       0.00036272       0.00046552 </v>
   <v>      -0.00017997      -0.00003344      -0.00021726 </v>
   <v>       0.00013444      -0.00031377      -0.00072463 </v>
   <v>      -0.00059648      -0.00102695      -0.00102695 </v>
   <v>      -0.00059648      -0.00102695      -0.00102695 </v>
   <v>      -0.00009473      -0.00003948      -0.00003948 </v>
   <v>      -0.00009473      -0.00003948      -0.00003948 </v>
   <v>      -0.00069891      -0.00021701      -0.00021701 </v>
   <v>      -0.00069891      -0.00021701      -0.00021701 </v>
   <v>       0.00071235       0.00023967       0.00023967 </v>
   <v>       0.00071235       0.00023967       0.00023967 </v>
   <v>       0.00024617       0.00023141       0.00031707 </v>
   <v>       0.00024617       0.00031707       0.00023141 </v>
   <v>       0.00008222       0.00021232       0.00021232 </v>
   <v>       0.00034042       0.00032816       0.00032816 </v>
   <v>       0.00034042       0.00032816       0.00032816 </v>
   <v>       0.00008222       0.00021232       0.00021232 </v>
   <v>       0.00024617       0.00031707       0.00023141 </v>
   <v>       0.00024617       0.00023141       0.00031707 </v>
   <v>      -0.00017512      -0.00017116      -0.00046710 </v>
   <v>      -0.00017512      -0.00046710      -0.00017116 </v>
   <v>      -0.00002424      -0.00001933      -0.00001933 </v>
   <v>       0.00012192       0.00000873       0.00000873 </v>
   <v>      -0.00017512      -0.00017116      -0.00046710 </v>
   <v>      -0.00017512      -0.00046710      -0.00017116 </v>
   <v>      -0.00002424      -0.00001933      -0.00001933 </v>
   <v>       0.00012192       0.00000873       0.00000873 </v>
   <v>       0.00015763      -0.00017397      -0.00017397 </v>
   <v>       0.00015763      -0.00017397      -0.00017397 </v>
   <v>      -0.00001890       0.00021673       0.00021673 </v>
   <v>      -0.00001890       0.00021673       0.00021673 </v>
   <v>      -0.00023385       0.00038112       0.00038112 </v>
   <v>      -0.00023385       0.00038112       0.00038112 </v>
   <v>      -0.00014002      -0.00005992      -0.00005992 </v>
   <v>      -0.00014002      -0.00005992      -0.00005992 </v>
  </varray>
  <varray name="stress" >
   <v>     -29.71468874      -3.83662359      -3.83662359 </v>
   <v>      -3.83662195     -23.89630539      -5.59960085 </v>
   <v>      -3.83662195      -5.59960085     -23.89630539 </v>
  </varray>
  <energy>
   <i name="e_fr_energy">   -271.47518068 </i>
   <i name="e_wo_entrp">   -271.47518068 </i>
   <i name="e_0_energy">   -271.47518068 </i>
  </energy>
  <time name="totalsc">    7.38    7.57</time>
 </calculation>
 <calculation>
  <scstep>
   <time name="dav">    2.22    2.24</time>
   <time name="total">    2.84    2.87</time>
   <energy>
    <i name="alphaZ">    269.61057581 </i>
    <i name="ewald">  -8389.53555717 </i>
    <i name="hartreedc">  -2442.20858921 </i>
    <i name="XCdc">    533.25221321 </i>
    <i name="pawpsdc">   9602.97386295 </i>
    <i name="pawaedc">  -9746.25266238 </i>
    <i name="eentropy">     -0.00000000 </i>
    <i name="bandstr">  -2790.38678583 </i>
    <i name="atom">  12703.13999606 </i>
    <i name="e_fr_energy">   -259.40694656 </i>
    <i name="e_wo_entrp">   -259.40694656 </i>
    <i name="e_0_energy">   -259.40694656 </i>
   </energy>
  </scstep>
  <scstep>
   <time name="diag">    0.29    0.30</time>
   <time name="diis">    0.89    0.90</time>
   <time name="orth">    0.05    0.05</time>
   <time name="total">    1.70    1.72</time>
   <energy>
    <i name="alphaZ">    269.61057581 </i>
    <i name="ewald">  -8389.53555717 </i>
    <i name="hartreedc">  -2442.20804350 </i>
    <i name="XCdc">    533.25215771 </i>
    <i name="pawpsdc">   9602.96404686 </i>
    <i name="pawaedc">  -9746.24277977 </i>
    <i name="eentropy">     -0.00000000 </i>
    <i name="bandstr">  -2790.38734280 </i>
    <i name="atom">  12703.13999606 </i>
    <i name="e_fr_energy">   -259.40694681 </i>
    <i name="e_wo_entrp">   -259.40694681 </i>
    <i name="e_0_energy">   -259.40694681 </i>
   </energy>
  </scstep>
  <structure>
   <crystal>
    <varray name="basis" >
     <v>      10.02278257       0.00000000       0.00000000 </v>
     <v>       0.00000000      10.02278257       0.00000000 </v>
     <v>       0.00000000       0.00000000      10.02278257 </v>
    </varray>
    <i name="volume">   1006.85035394 </i>
    <varray name="rec_basis" >
     <v>       0.09977269       0.00000000       0.00000000 </v>
     <v>       0.00000000       0.09977269       0.00000000 </v>
     <v>       0.00000000       0.00000000       0.09977269 </v>
    </varray>
   </crystal>
   <varray name="positions" >
    <v>       0.96861990       0.17071298       0.17071298 </v>
    <v>       0.96861990       0.67071298       0.67071298 </v>
    <v>       0.02735075       0.26451402       0.76451402 </v>
    <v>       0.02735075       0.76451402       0.26451402 </v>
    <v>       0.31182513       0.29257716       0.97726269 </v>
    <v>       0.18697673       0.79916586       0.02515094 </v>
    <v>       0.68683749       0.29951679       0.02533254 </v>
    <v>       0.81194590       0.79273522       0.97735910 </v>
    <v>       0.31182513       0.97726269       0.29257716 </v>
    <v>       0.18697673       0.02515094       0.79916586 </v>
    <v>       0.81194590       0.97735910       0.79273522 </v>
    <v>       0.68683749       0.02533254       0.29951679 </v>
    <v>       0.31182513       0.79257716       0.47726269 </v>
    <v>       0.18697673       0.29916586       0.52515094 </v>
    <v>       0.68683749       0.79951679       0.52533254 </v>
    <v>       0.81194590       0.29273522       0.47735910 </v>
    <v>       0.31182513       0.47726269       0.79257716 </v>
    <v>       0.18697673       0.52515094       0.29916586 </v>
    <v>       0.81194590       0.47735910       0.29273522 </v>
    <v>       0.68683749       0.52533254       0.79951679 </v>
    <v>       0.46888876       0.17099954       0.67099954 </v>
    <v>       0.46888876       0.67099954       0.17099954 </v>
    <v>       0.52740730       0.26469196       0.26469196 </v>
    <v>       0.52740730       0.76469196       0.76469196 </v>
    <v>       0.50363963       0.49858037       0.49858037 </v>
    <v>       0.50363963       0.99858037       0.99858037 </v>
    <v>       0.00358342       0.49841015       0.99841015 </v>
    <v>       0.00358342       0.99841015       0.49841015 </v>
    <v>       0.11839156       0.87241614       0.61301428 </v>
    <v>       0.11839156       0.11301428       0.37241614 </v>
    <v>       0.87022772       0.88682470       0.38682470 </v>
    <v>       0.89363846       0.12228330       0.62228330 </v>
    <v>       0.89363846       0.62228330       0.12228330 </v>
    <v>       0.87022772       0.38682470       0.88682470 </v>
    <v>       0.11839156       0.61301428       0.87241614 </v>
    <v>       0.11839156       0.37241614       0.11301428 </v>
    <v>       0.61848686       0.11318219       0.87263014 </v>
    <v>       0.61848686       0.87263014       0.11318219 </v>
    <v>       0.39369323       0.12244592       0.12244592 </v>
    <v>       0.37030584       0.88696330       0.88696330 </v>
    <v>       0.61848686       0.61318219       0.37263014 </v>
    <v>       0.61848686       0.37263014       0.61318219 </v>
    <v>       0.39369323       0.62244592       0.62244592 </v>
    <v>       0.37030584       0.38696330       0.38696330 </v>
    <v>       0.75506404       0.74935203       0.74935203 </v>
    <v>       0.75506404       0.24935203       0.24935203 </v>
    <v>       0.25505544       0.74923471       0.24923471 </v>
    <v>       0.25505544       0.24923471       0.74923471 </v>
    <v>       0.99679385       0.97728671       0.97728671 </v>
    <v>       0.99679385       0.47728671       0.47728671 </v>
    <v>       0.49680431       0.97735726       0.47735726 </v>
    <v>       0.49680431       0.47735726       0.97735726 </v>
   </varray>
  </structure>
  <varray name="forces" >
   <v>       0.00025474      -0.00015779      -0.00015779 </v>
   <v>       0.00025474      -0.00015779      -0.00015779 </v>
   <v>       0.00023536       0.00030527       0.00030527 </v>
   <v>       0.00023536       0.00030527       0.00030527 </v>
   <v>       0.00006360       0.00019955       0.00018730 </v>
   <v>      -0.00010816       0.00034575       0.00013055 </v>
   <v>       0.00005926      -0.00038662      -0.00010793 </v>
   <v>      -0.00009012      -0.00013815      -0.00006842 </v>
   <v>       0.00006360       0.00018730       0.00019955 </v>
   <v>      -0.00010816       0.00013055       0.00034575 </v>
   <v>      -0.00009012      -0.00006842      -0.00013815 </v>
   <v>       0.00005926      -0.00010793      -0.00038662 </v>
   <v>       0.00006360       0.00019955       0.00018730 </v>
   <v>      -0.00010816       0.00034575       0.00013055 </v>
   <v>       0.00005926      -0.00038662      -0.00010793 </v>
   <v>      -0.00009012      -0.00013815      -0.00006842 </v>
   <v>       0.00006360       0.00018730       0.00019955 </v>
   <v>      -0.00010816       0.00013055       0.00034575 </v>
   <v>      -0.00009012      -0.00006842      -0.00013815 </v>
   <v>       0.00005926      -0.00010793      -0.00038662 </v>
   <v>      -0.00053334      -0.00068221      -0.00068221 </v>
   <v>      -0.00053334      -0.00068221      -0.00068221 </v>
   <v>      -0.00015231       0.00002613       0.00002613 </v>
   <v>      -0.00015231       0.00002613       0.00002613 </v>
   <v>      -0.00249266      -0.00084716      -0.00084716 </v>
   <v>      -0.00249266      -0.00084716      -0.00084716 </v>
   <v>       0.00152165       0.00021373       0.00021373 </v>
   <v>       0.00152165       0.00021373       0.00021373 </v>
   <v>      -0.00026371       0.00054284      -0.00018829 </v>
   <v>      -0.00026371      -0.00018829       0.00054284 </v>
   <v>      -0.00005404      -0.00006269      -0.00006269 </v>
   <v>       0.00003727       0.00036033       0.00036033 </v>
   <v>       0.00003727       0.00036033       0.00036033 </v>
   <v>      -0.00005404      -0.00006269      -0.00006269 </v>
   <v>      -0.00026371      -0.00018829       0.00054284 </v>
   <v>      -0.00026371       0.00054284      -0.00018829 </v>
   <v>       0.00047521       0.00043118      -0.00071338 </v>
   <v>       0.00047521      -0.00071338       0.00043118 </v>
   <v>       0.00016387      -0.00010438      -0.00010438 </v>
   <v>       0.00099389       0.00080823       0.00080823 </v>
   <v>       0.00047521       0.00043118      -0.00071338 </v>
   <v>       0.00047521      -0.00071338       0.00043118 </v>
   <v>       0.00016387      -0.00010438      -0.00010438 </v>
   <v>       0.00099389       0.00080823       0.00080823 </v>
   <v>       0.00004356      -0.00012169      -0.00012169 </v>
   <v>       0.00004356      -0.00012169      -0.00012169 </v>
   <v>       0.00000896       0.00015881       0.00015881 </v>
   <v>       0.00000896       0.00015881       0.00015881 </v>
   <v>      -0.00013902       0.00001109       0.00001109 </v>
   <v>      -0.00013902       0.00001109       0.00001109 </v>
   <v>      -0.00016008      -0.00014205      -0.00014205 </v>
   <v>      -0.00016008      -0.00014205      -0.00014205 </v>
  </varray>
  <varray name="stress" >
   <v>     -29.71664280      -3.83838694      -3.83838694 </v>
   <v>      -3.83838535     -23.89803083      -5.60210746 </v>
   <v>      -3.83838535      -5.60210746     -23.89803083 </v>
  </varray>
  <energy>
   <i name="e_fr_energy">   -271.47518117 </i>
   <i name="e_wo_entrp">   -271.47518117 </i>
   <i name="e_0_energy">   -271.47518117 </i>
  </energy>
  <time name="totalsc">    7.56    7.68</time>
 </calculation>
 <calculation>
  <scstep>
   <time name="dav">    6.27    6.34</time>
   <time name="total">    6.90    6.98</time>
   <energy>
    <i name="alphaZ">    269.61057581 </i>
    <i name="ewald">  -8389.53231767 </i>
    <i name="hartreedc">  -2442.21048200 </i>
    <i name="XCdc">    533.25216088 </i>
    <i name="pawpsdc">   9602.95757192 </i>
    <i name="pawaedc">  -9746.23625553 </i>
    <i name="eentropy">     -0.00000000 </i>
    <i name="bandstr">  -2790.38819624 </i>
    <i name="atom">  12703.13999606 </i>
    <i name="e_fr_energy">   -259.40694677 </i>
    <i name="e_wo_entrp">   -259.40694677 </i>
    <i name="e_0_energy">   -259.40694677 </i>
   </energy>
  </scstep>
  <scstep>
   <time name="diag">    0.29    0.29</time>
   <time name="diis">    0.73    0.74</time>
   <time name="orth">    0.05    0.05</time>
   <time name="total">    1.54    1.56</time>
   <energy>
    <i name="alphaZ">    269.61057581 </i>
    <i name="ewald">  -8389.53231767 </i>
    <i name="hartreedc">  -2442.21039456 </i>
    <i name="XCdc">    533.25215273 </i>
    <i name="pawpsdc">   9602.95711494 </i>
    <i name="pawaedc">  -9746.23578022 </i>
    <i name="eentropy">     -0.00000000 </i>
    <i name="bandstr">  -2790.38829389 </i>
    <i name="atom">  12703.13999606 </i>
    <i name="e_fr_energy">   -259.40694680 </i>
    <i name="e_wo_entrp">   -259.40694680 </i>
    <i name="e_0_energy">   -259.40694680 </i>
   </energy>
  </scstep>
  <structure>
   <crystal>
    <varray name="basis" >
     <v>      10.02278257       0.00000000       0.00000000 </v>
     <v>       0.00000000      10.02278257       0.00000000 </v>
     <v>       0.00000000       0.00000000      10.02278257 </v>
    </varray>
    <i name="volume">   1006.85035394 </i>
    <varray name="rec_basis" >
     <v>       0.09977269       0.00000000       0.00000000 </v>
     <v>       0.00000000       0.09977269       0.00000000 </v>
     <v>       0.00000000       0.00000000       0.09977269 </v>
    </varray>
   </crystal>
   <varray name="positions" >
    <v>       0.96861965       0.17071327       0.17071327 </v>
    <v>       0.96861965       0.67071327       0.67071327 </v>
    <v>       0.02735034       0.26451362       0.76451362 </v>
    <v>       0.02735034       0.76451362       0.26451362 </v>
    <v>       0.31182491       0.29257685       0.97726245 </v>
    <v>       0.18697716       0.79916543       0.02515047 </v>
    <v>       0.68683734       0.29951761       0.02533295 </v>
    <v>       0.81194616       0.79273551       0.97735913 </v>
    <v>       0.31182491       0.97726245       0.29257685 </v>
    <v>       0.18697716       0.02515047       0.79916543 </v>
    <v>       0.81194616       0.97735913       0.79273551 </v>
    <v>       0.68683734       0.02533295       0.29951761 </v>
    <v>       0.31182491       0.79257685       0.47726245 </v>
    <v>       0.18697716       0.29916543       0.52515047 </v>
    <v>       0.68683734       0.79951761       0.52533295 </v>
    <v>       0.81194616       0.29273551       0.47735913 </v>
    <v>       0.31182491       0.47726245       0.79257685 </v>
    <v>       0.18697716       0.52515047       0.29916543 </v>
    <v>       0.81194616       0.47735913       0.29273551 </v>
    <v>       0.68683734       0.52533295       0.79951761 </v>
    <v>       0.46888923       0.17100053       0.67100053 </v>
    <v>       0.46888923       0.67100053       0.17100053 </v>
    <v>       0.52740732       0.26469209       0.26469209 </v>
    <v>       0.52740732       0.76469209       0.76469209 </v>
    <v>       0.50363852       0.49857996       0.49857996 </v>
    <v>       0.50363852       0.99857996       0.99857996 </v>
    <v>       0.00358361       0.49840995       0.99840995 </v>
    <v>       0.00358361       0.99840995       0.49840995 </v>
    <v>       0.11839095       0.87241627       0.61301361 </v>
    <v>       0.11839095       0.11301361       0.37241627 </v>
    <v>       0.87022758       0.88682428       0.38682428 </v>
    <v>       0.89363794       0.12228310       0.62228310 </v>
    <v>       0.89363794       0.62228310       0.12228310 </v>
    <v>       0.87022758       0.38682428       0.88682428 </v>
    <v>       0.11839095       0.61301361       0.87241627 </v>
    <v>       0.11839095       0.37241627       0.11301361 </v>
    <v>       0.61848758       0.11318287       0.87263035 </v>
    <v>       0.61848758       0.87263035       0.11318287 </v>
    <v>       0.39369341       0.12244590       0.12244590 </v>
    <v>       0.37030653       0.88696396       0.88696396 </v>
    <v>       0.61848758       0.61318287       0.37263035 </v>
    <v>       0.61848758       0.37263035       0.61318287 </v>
    <v>       0.39369341       0.62244590       0.62244590 </v>
    <v>       0.37030653       0.38696396       0.38696396 </v>
    <v>       0.75506382       0.74935224       0.74935224 </v>
    <v>       0.75506382       0.24935224       0.24935224 </v>
    <v>       0.25505547       0.74923453       0.24923453 </v>
    <v>       0.25505547       0.24923453       0.74923453 </v>
    <v>       0.99679406       0.97728594       0.97728594 </v>
    <v>       0.99679406       0.47728594       0.47728594 </v>
    <v>       0.49680434       0.97735710       0.47735710 </v>
    <v>       0.49680434       0.47735710       0.97735710 </v>
   </varray>
  </structure>
  <varray name="forces" >
   <v>       0.00054760      -0.00049845      -0.00049845 </v>
   <v>       0.00054760      -0.00049845      -0.00049845 </v>
   <v>       0.00066064       0.00072931       0.00072931 </v>
   <v>       0.00066064       0.00072931       0.00072931 </v>
   <v>       0.00035884       0.00056196       0.00044352 </v>
   <v>      -0.00056712       0.00077199       0.00066656 </v>
   <v>       0.00024927      -0.00123338      -0.00055963 </v>
   <v>      -0.00036679      -0.00046314      -0.00006291 </v>
   <v>       0.00035884       0.00044352       0.00056196 </v>
   <v>      -0.00056712       0.00066656       0.00077199 </v>
   <v>      -0.00036679      -0.00006291      -0.00046314 </v>
   <v>       0.00024927      -0.00055963      -0.00123338 </v>
   <v>       0.00035884       0.00056196       0.00044352 </v>
   <v>      -0.00056712       0.00077199       0.00066656 </v>
   <v>       0.00024927      -0.00123338      -0.00055963 </v>
   <v>      -0.00036679      -0.00046314      -0.00006291 </v>
   <v>       0.00035884       0.00044352       0.00056196 </v>
   <v>      -0.00056712       0.00066656       0.00077199 </v>
   <v>      -0.00036679      -0.00006291      -0.00046314 </v>
   <v>       0.00024927      -0.00055963      -0.00123338 </v>
   <v>      -0.00091274      -0.00161635      -0.00161635 </v>
   <v>      -0.00091274      -0.00161635      -0.00161635 </v>
   <v>      -0.00010177      -0.00014233      -0.00014233 </v>
   <v>      -0.00010177      -0.00014233      -0.00014233 </v>
   <v>      -0.00167884      -0.00057170      -0.00057170 </v>
   <v>      -0.00167884      -0.00057170      -0.00057170 </v>
   <v>       0.00124502       0.00026727       0.00026727 </v>
   <v>       0.00124502       0.00026727       0.00026727 </v>
   <v>       0.00036986       0.00039051       0.00050245 </v>
   <v>       0.00036986       0.00050245       0.00039051 </v>
   <v>       0.00003060       0.00033588       0.00033588 </v>
   <v>       0.00057629       0.00052384       0.00052384 </v>
   <v>       0.00057629       0.00052384       0.00052384 </v>
   <v>       0.00003060       0.00033588       0.00033588 </v>
   <v>       0.00036986       0.00050245       0.00039051 </v>
   <v>       0.00036986       0.00039051       0.00050245 </v>
   <v>      -0.00024090      -0.00033022      -0.00077694 </v>
   <v>      -0.00024090      -0.00077694      -0.00033022 </v>
   <v>       0.00005439      -0.00004156      -0.00004156 </v>
   <v>       0.00021845      -0.00001947      -0.00001947 </v>
   <v>      -0.00024090      -0.00033022      -0.00077694 </v>
   <v>      -0.00024090      -0.00077694      -0.00033022 </v>
   <v>       0.00005439      -0.00004156      -0.00004156 </v>
   <v>       0.00021845      -0.00001947      -0.00001947 </v>
   <v>       0.00033444      -0.00035504      -0.00035504 </v>
   <v>       0.00033444      -0.00035504      -0.00035504 </v>
   <v>      -0.00002009       0.00035457       0.00035457 </v>
   <v>      -0.00002009       0.00035457       0.00035457 </v>
   <v>      -0.00045198       0.00103684       0.00103684 </v>
   <v>      -0.00045198       0.00103684       0.00103684 </v>
   <v>      -0.00010831       0.00008643       0.00008643 </v>
   <v>      -0.00010831       0.00008643       0.00008643 </v>
  </varray>
  <varray name="stress" >
   <v>     -29.71534519      -3.83749949      -3.83749949 </v>
   <v>      -3.83749803     -23.89744322      -5.60049263 </v>
   <v>      -3.83749803      -5.60049263     -23.89744322 </v>
  </varray>
  <energy>
   <i name="e_fr_energy">   -271.47518111 </i>
   <i name="e_wo_entrp">   -271.47518111 </i>
   <i name="e_0_energy">   -271.47518111 </i>
  </energy>
  <time name="totalsc">   11.45   11.61</time>
 </calculation>
 <calculation>
  <scstep>
   <time name="dav">    1.72    1.74</time>
   <time name="total">    2.34    2.37</time>
   <energy>
[...]
       <r>     6.9676    12.2179   143.3996 </r>
       <r>     7.1599     7.8721   144.9133 </r>
       <r>     7.3522    16.2138   148.0311 </r>
       <r>     7.5445    15.6187   151.0358 </r>
       <r>     7.7368    11.1872   153.1874 </r>
       <r>     7.9291    14.8824   156.0495 </r>
       <r>     8.1213    17.4673   159.4082 </r>
       <r>     8.3136    23.7285   163.9710 </r>
       <r>     8.5059    18.0576   167.4432 </r>
       <r>     8.6982    25.9730   172.4376 </r>
       <r>     8.8905    14.6656   175.2637 </r>
       <r>     9.0828     3.8267   176.0000 </r>
       <r>     9.2751     0.0000   176.0000 </r>
       <r>     9.4674     0.0000   176.0000 </r>
       <r>     9.6597     0.0000   176.0000 </r>
       <r>     9.8519     0.0000   176.0000 </r>
       <r>    10.0442     0.0000   176.0000 </r>
       <r>    10.2365     0.0000   176.0000 </r>
       <r>    10.4288     0.0000   176.0000 </r>
       <r>    10.6211     0.0000   176.0000 </r>
       <r>    10.8134     0.0000   176.0000 </r>
       <r>    11.0057     0.0000   176.0000 </r>
       <r>    11.1980     0.0000   176.0000 </r>
       <r>    11.3903     0.0000   176.0000 </r>
       <r>    11.5825     0.0000   176.0000 </r>
      </set>
      <set comment="spin 2">
       <r>   -46.1041     0.0000     0.0000 </r>
       <r>   -45.9118     0.0000     0.0000 </r>
       <r>   -45.7195     0.0000     0.0000 </r>
       <r>   -45.5272     0.0000     0.0000 </r>
       <r>   -45.3349     0.0000     0.0000 </r>
       <r>   -45.1426     0.0000     0.0000 </r>
       <r>   -44.9503     0.0000     0.0000 </r>
       <r>   -44.7580     0.0000     0.0000 </r>
       <r>   -44.5657     0.0000     0.0000 </r>
       <r>   -44.3735     0.0000     0.0000 </r>
       <r>   -44.1812     0.0000     0.0000 </r>
       <r>   -43.9889     0.0000     0.0000 </r>
       <r>   -43.7966     0.0000     0.0000 </r>
       <r>   -43.6043     0.0000     0.0000 </r>
       <r>   -43.4120    20.7912     3.9979 </r>
       <r>   -43.2197    78.7226    19.1375 </r>
       <r>   -43.0274    25.2835    24.0000 </r>
       <r>   -42.8351     0.0000    24.0000 </r>
       <r>   -42.6429     0.0000    24.0000 </r>
       <r>   -42.4506     0.0000    24.0000 </r>
       <r>   -42.2583     0.0000    24.0000 </r>
       <r>   -42.0660     0.0000    24.0000 </r>
       <r>   -41.8737     0.0000    24.0000 </r>
       <r>   -41.6814     0.0000    24.0000 </r>
       <r>   -41.4891     0.0000    24.0000 </r>
       <r>   -41.2968     0.0000    24.0000 </r>
       <r>   -41.1045     0.0000    24.0000 </r>
       <r>   -40.9123     0.0000    24.0000 </r>
       <r>   -40.7200     0.0000    24.0000 </r>
       <r>   -40.5277     0.0000    24.0000 </r>
       <r>   -40.3354     0.0000    24.0000 </r>
       <r>   -40.1431     0.0000    24.0000 </r>
       <r>   -39.9508     0.0000    24.0000 </r>
       <r>   -39.7585     0.0000    24.0000 </r>
       <r>   -39.5662     0.0000    24.0000 </r>
       <r>   -39.3740     0.0000    24.0000 </r>
       <r>   -39.1817     0.0000    24.0000 </r>
       <r>   -38.9894     0.0000    24.0000 </r>
       <r>   -38.7971     0.0000    24.0000 </r>
       <r>   -38.6048     0.0000    24.0000 </r>
       <r>   -38.4125     0.0000    24.0000 </r>
       <r>   -38.2202     0.0000    24.0000 </r>
       <r>   -38.0279     0.0000    24.0000 </r>
       <r>   -37.8356     0.0000    24.0000 </r>
       <r>   -37.6434     0.0000    24.0000 </r>
       <r>   -37.4511     0.0000    24.0000 </r>
       <r>   -37.2588     0.0000    24.0000 </r>
       <r>   -37.0665     0.0000    24.0000 </r>
       <r>   -36.8742     0.0000    24.0000 </r>
       <r>   -36.6819     0.0000    24.0000 </r>
       <r>   -36.4896     0.0000    24.0000 </r>
       <r>   -36.2973     0.0000    24.0000 </r>
       <r>   -36.1050     0.0000    24.0000 </r>
       <r>   -35.9128     0.0000    24.0000 </r>
       <r>   -35.7205     0.0000    24.0000 </r>
       <r>   -35.5282     0.0000    24.0000 </r>
       <r>   -35.3359     0.0000    24.0000 </r>
       <r>   -35.1436     0.0000    24.0000 </r>
       <r>   -34.9513     0.0000    24.0000 </r>
       <r>   -34.7590     0.0000    24.0000 </r>
       <r>   -34.5667     0.0000    24.0000 </r>
       <r>   -34.3744     0.0000    24.0000 </r>
       <r>   -34.1822     0.0000    24.0000 </r>
       <r>   -33.9899     0.0000    24.0000 </r>
       <r>   -33.7976     0.0000    24.0000 </r>
       <r>   -33.6053     0.0000    24.0000 </r>
       <r>   -33.4130     0.0000    24.0000 </r>
       <r>   -33.2207     0.0000    24.0000 </r>
       <r>   -33.0284     0.0000    24.0000 </r>
       <r>   -32.8361     0.0000    24.0000 </r>
       <r>   -32.6438     0.0000    24.0000 </r>
       <r>   -32.4516     0.0000    24.0000 </r>
       <r>   -32.2593     0.0000    24.0000 </r>
       <r>   -32.0670     0.0000    24.0000 </r>
       <r>   -31.8747     0.0000    24.0000 </r>
       <r>   -31.6824     0.0000    24.0000 </r>
       <r>   -31.4901     0.0000    24.0000 </r>
       <r>   -31.2978     0.0000    24.0000 </r>
       <r>   -31.1055     0.0000    24.0000 </r>
       <r>   -30.9133     0.0000    24.0000 </r>
       <r>   -30.7210     0.0000    24.0000 </r>
       <r>   -30.5287     0.0000    24.0000 </r>
       <r>   -30.3364     0.0000    24.0000 </r>
       <r>   -30.1441     0.0000    24.0000 </r>
       <r>   -29.9518     0.0000    24.0000 </r>
       <r>   -29.7595     0.0000    24.0000 </r>
       <r>   -29.5672     0.0000    24.0000 </r>
       <r>   -29.3749     0.0000    24.0000 </r>
       <r>   -29.1827     0.0000    24.0000 </r>
       <r>   -28.9904     0.0000    24.0000 </r>
       <r>   -28.7981     0.0000    24.0000 </r>
       <r>   -28.6058     0.0000    24.0000 </r>
       <r>   -28.4135     0.0000    24.0000 </r>
       <r>   -28.2212     0.0000    24.0000 </r>
       <r>   -28.0289     0.0000    24.0000 </r>
       <r>   -27.8366     0.0000    24.0000 </r>
       <r>   -27.6443     0.0000    24.0000 </r>
       <r>   -27.4521     0.0000    24.0000 </r>
       <r>   -27.2598     0.0000    24.0000 </r>
       <r>   -27.0675     0.0000    24.0000 </r>
       <r>   -26.8752     0.0000    24.0000 </r>
       <r>   -26.6829     0.0000    24.0000 </r>
       <r>   -26.4906     0.0000    24.0000 </r>
       <r>   -26.2983     0.0000    24.0000 </r>
       <r>   -26.1060     0.0000    24.0000 </r>
       <r>   -25.9137     0.0000    24.0000 </r>
       <r>   -25.7215     0.0000    24.0000 </r>
       <r>   -25.5292     0.0000    24.0000 </r>
       <r>   -25.3369     0.0000    24.0000 </r>
       <r>   -25.1446     0.0000    24.0000 </r>
       <r>   -24.9523     0.0000    24.0000 </r>
       <r>   -24.7600     0.0000    24.0000 </r>
       <r>   -24.5677     0.0000    24.0000 </r>
       <r>   -24.3754     0.0000    24.0000 </r>
       <r>   -24.1831     0.0000    24.0000 </r>
       <r>   -23.9909     0.0000    24.0000 </r>
       <r>   -23.7986     0.0000    24.0000 </r>
       <r>   -23.6063     0.0000    24.0000 </r>
       <r>   -23.4140     0.0000    24.0000 </r>
       <r>   -23.2217     0.0000    24.0000 </r>
       <r>   -23.0294     0.0000    24.0000 </r>
       <r>   -22.8371     0.0000    24.0000 </r>
       <r>   -22.6448     0.0000    24.0000 </r>
       <r>   -22.4525     0.0000    24.0000 </r>
       <r>   -22.2603     0.0000    24.0000 </r>
       <r>   -22.0680     0.0000    24.0000 </r>
       <r>   -21.8757     0.0000    24.0000 </r>
       <r>   -21.6834     0.0000    24.0000 </r>
       <r>   -21.4911     0.0000    24.0000 </r>
       <r>   -21.2988     0.0000    24.0000 </r>
       <r>   -21.1065     0.0000    24.0000 </r>
       <r>   -20.9142     0.0000    24.0000 </r>
       <r>   -20.7220     0.0000    24.0000 </r>
       <r>   -20.5297     0.0000    24.0000 </r>
       <r>   -20.3374     0.0000    24.0000 </r>
       <r>   -20.1451     0.0000    24.0000 </r>
       <r>   -19.9528     0.0000    24.0000 </r>
       <r>   -19.7605     0.0000    24.0000 </r>
       <r>   -19.5682     0.0000    24.0000 </r>
       <r>   -19.3759     0.0000    24.0000 </r>
       <r>   -19.1836     0.0000    24.0000 </r>
       <r>   -18.9914     0.0000    24.0000 </r>
       <r>   -18.7991     0.0000    24.0000 </r>
       <r>   -18.6068     0.0000    24.0000 </r>
       <r>   -18.4145     0.0000    24.0000 </r>
       <r>   -18.2222     0.0000    24.0000 </r>
       <r>   -18.0299     0.0000    24.0000 </r>
       <r>   -17.8376     0.0000    24.0000 </r>
       <r>   -17.6453     0.0000    24.0000 </r>
       <r>   -17.4530     0.0000    24.0000 </r>
       <r>   -17.2608     0.0000    24.0000 </r>
       <r>   -17.0685     0.0000    24.0000 </r>
       <r>   -16.8762     0.0000    24.0000 </r>
       <r>   -16.6839     0.0000    24.0000 </r>
       <r>   -16.4916     0.0000    24.0000 </r>
       <r>   -16.2993     0.0000    24.0000 </r>
       <r>   -16.1070     0.0000    24.0000 </r>
       <r>   -15.9147     0.0000    24.0000 </r>
       <r>   -15.7224     0.0000    24.0000 </r>
       <r>   -15.5302     0.0000    24.0000 </r>
       <r>   -15.3379     0.0000    24.0000 </r>
       <r>   -15.1456     0.0000    24.0000 </r>
       <r>   -14.9533     0.0000    24.0000 </r>
       <r>   -14.7610     0.0000    24.0000 </r>
       <r>   -14.5687     0.0000    24.0000 </r>
       <r>   -14.3764     0.0000    24.0000 </r>
       <r>   -14.1841     0.0000    24.0000 </r>
       <r>   -13.9918     0.0000    24.0000 </r>
       <r>   -13.7996     0.0000    24.0000 </r>
       <r>   -13.6073    17.5365    27.3721 </r>
       <r>   -13.4150     3.2656    28.0000 </r>
       <r>   -13.2227     0.0000    28.0000 </r>
       <r>   -13.0304     0.0000    28.0000 </r>
       <r>   -12.8381     0.0102    28.0020 </r>
       <r>   -12.6458    20.7918    32.0000 </r>
       <r>   -12.4535     0.0000    32.0000 </r>
       <r>   -12.2613     0.0000    32.0000 </r>
       <r>   -12.0690     0.0000    32.0000 </r>
       <r>   -11.8767     0.0000    32.0000 </r>
       <r>   -11.6844     0.0000    32.0000 </r>
       <r>   -11.4921     0.0000    32.0000 </r>
       <r>   -11.2998     0.0000    32.0000 </r>
       <r>   -11.1075     0.0000    32.0000 </r>
       <r>   -10.9152     0.1003    32.0193 </r>
       <r>   -10.7229    25.1009    36.8459 </r>
       <r>   -10.5307    37.1998    44.0000 </r>
       <r>   -10.3384     0.0000    44.0000 </r>
       <r>   -10.1461     0.0000    44.0000 </r>
       <r>    -9.9538     0.0000    44.0000 </r>
       <r>    -9.7615     0.0000    44.0000 </r>
       <r>    -9.5692     0.0000    44.0000 </r>
       <r>    -9.3769     0.0000    44.0000 </r>
       <r>    -9.1846     0.0000    44.0000 </r>
       <r>    -8.9923    15.9591    47.0688 </r>
       <r>    -8.8001     4.8429    48.0000 </r>
       <r>    -8.6078     0.0000    48.0000 </r>
       <r>    -8.4155     0.0000    48.0000 </r>
       <r>    -8.2232     0.0000    48.0000 </r>
       <r>    -8.0309     0.0000    48.0000 </r>
       <r>    -7.8386     0.0000    48.0000 </r>
       <r>    -7.6463     0.0000    48.0000 </r>
       <r>    -7.4540     0.0000    48.0000 </r>
       <r>    -7.2617     0.0000    48.0000 </r>
       <r>    -7.0695     0.0000    48.0000 </r>
       <r>    -6.8772     0.0000    48.0000 </r>
       <r>    -6.6849     5.1308    48.9866 </r>
       <r>    -6.4926     0.1173    49.0125 </r>
       <r>    -6.3003    15.5365    52.0000 </r>
       <r>    -6.1080     0.0000    52.0000 </r>
       <r>    -5.9157     0.0000    52.0000 </r>
       <r>    -5.7234     0.0000    52.0000 </r>
       <r>    -5.5311     0.0000    52.0000 </r>
       <r>    -5.3389     0.0000    52.0000 </r>
       <r>    -5.1466     0.0000    52.0000 </r>
       <r>    -4.9543     0.0000    52.0000 </r>
       <r>    -4.7620     0.0000    52.0000 </r>
       <r>    -4.5697     0.0000    52.0000 </r>
       <r>    -4.3774     0.0000    52.0000 </r>
       <r>    -4.1851     0.0000    52.0000 </r>
       <r>    -3.9928     0.0000    52.0000 </r>
       <r>    -3.8005     0.1042    52.0200 </r>
       <r>    -3.6083    15.4978    55.0001 </r>
       <r>    -3.4160     5.0303    55.9674 </r>
       <r>    -3.2237    15.3196    58.9138 </r>
       <r>    -3.0314    26.4221    63.9997 </r>
       <r>    -2.8391     0.0000    64.0000 </r>
       <r>    -2.6468     0.0000    64.0000 </r>
       <r>    -2.4545     0.0000    64.0000 </r>
       <r>    -2.2622     0.0000    64.0000 </r>
       <r>    -2.0700     0.0000    64.0000 </r>
       <r>    -1.8777     0.0000    64.0000 </r>
       <r>    -1.6854     0.3288    64.0632 </r>
       <r>    -1.4931    40.3559    71.8232 </r>
       <r>    -1.3008    21.5634    75.9702 </r>
       <r>    -1.1085     0.1947    76.0110 </r>
       <r>    -0.9162    15.6212    79.0148 </r>
       <r>    -0.7239    15.7706    82.0473 </r>
       <r>    -0.5316    31.7022    88.1436 </r>
       <r>    -0.3394    39.8169    95.8055 </r>
       <r>    -0.1471     0.9974    96.0000 </r>
       <r>     0.0452     0.3300    96.0634 </r>
       <r>     0.2375    22.3914   100.3691 </r>
       <r>     0.4298    30.8206   106.3001 </r>
       <r>     0.6221    29.3950   111.9593 </r>
       <r>     0.8144    37.4237   119.1610 </r>
       <r>     1.0067     4.3511   119.9982 </r>
       <r>     1.1990     0.0000   120.0000 </r>
       <r>     1.3912     0.0000   120.0000 </r>
       <r>     1.5835     0.0000   120.0000 </r>
       <r>     1.7758     0.0000   120.0000 </r>
       <r>     1.9681     0.0000   120.0000 </r>
       <r>     2.1604     0.0000   120.0000 </r>
       <r>     2.3527     0.0000   120.0000 </r>
       <r>     2.5450     0.0000   120.0000 </r>
       <r>     2.7373     0.0000   120.0000 </r>
       <r>     2.9296     0.0000   120.0000 </r>
       <r>     3.1218     0.0000   120.0000 </r>
       <r>     3.3141     0.0000   120.0000 </r>
       <r>     3.5064     0.0000   120.0000 </r>
       <r>     3.6987     5.1869   120.9974 </r>
       <r>     3.8910     0.0000   121.0000 </r>
       <r>     4.0833     0.0000   121.0000 </r>
       <r>     4.2756     0.0000   121.0000 </r>
       <r>     4.4679    15.0967   123.9029 </r>
       <r>     4.6602     0.4891   124.0000 </r>
       <r>     4.8524     0.0000   124.0000 </r>
       <r>     5.0447     0.5001   124.0962 </r>
       <r>     5.2370    19.9287   127.9282 </r>
       <r>     5.4293     8.2357   129.5128 </r>
       <r>     5.6216     5.6194   130.5934 </r>
       <r>     5.8139    12.1601   132.9316 </r>
       <r>     6.0062    16.5968   136.1230 </r>
       <r>     6.1985     4.5493   137.0000 </r>
       <r>     6.3907     0.0243   137.0047 </r>
       <r>     6.5830    14.2385   139.7426 </r>
       <r>     6.7753     6.7749   141.0458 </r>
       <r>     6.9676    12.2179   143.3996 </r>
       <r>     7.1599     7.8721   144.9133 </r>
       <r>     7.3522    16.2138   148.0311 </r>
       <r>     7.5445    15.6187   151.0358 </r>
       <r>     7.7368    11.1872   153.1874 </r>
       <r>     7.9291    14.8824   156.0495 </r>
       <r>     8.1213    17.4673   159.4082 </r>
       <r>     8.3136    23.7286   163.9710 </r>
       <r>     8.5059    18.0500   167.4418 </r>
       <r>     8.6982    25.9232   172.4266 </r>
       <r>     8.8905    15.2558   175.3630 </r>
       <r>     9.0828     3.3097   176.0000 </r>
       <r>     9.2751     0.0000   176.0000 </r>
       <r>     9.4674     0.0000   176.0000 </r>
       <r>     9.6597     0.0000   176.0000 </r>
       <r>     9.8519     0.0000   176.0000 </r>
       <r>    10.0442     0.0000   176.0000 </r>
       <r>    10.2365     0.0000   176.0000 </r>
       <r>    10.4288     0.0000   176.0000 </r>
       <r>    10.6211     0.0000   176.0000 </r>
       <r>    10.8134     0.0000   176.0000 </r>
       <r>    11.0057     0.0000   176.0000 </r>
       <r>    11.1980     0.0000   176.0000 </r>
       <r>    11.3903     0.0000   176.0000 </r>
       <r>    11.5825     0.0000   176.0000 </r>
      </set>
     </set>
    </array>
   </total>
  </dos>
 </calculation>
 <structure name="finalpos" >
  <crystal>
   <varray name="basis" >
    <v>      10.02278257       0.00000000       0.00000000 </v>
    <v>       0.00000000      10.02278257       0.00000000 </v>
    <v>       0.00000000       0.00000000      10.02278257 </v>
   </varray>
   <i name="volume">   1006.85035394 </i>
   <varray name="rec_basis" >
    <v>       0.09977269       0.00000000       0.00000000 </v>
    <v>       0.00000000       0.09977269       0.00000000 </v>
    <v>       0.00000000       0.00000000       0.09977269 </v>
   </varray>
  </crystal>
  <varray name="positions" >
   <v>       0.96862225       0.17071089       0.17071089 </v>
   <v>       0.96862225       0.67071089       0.67071089 </v>
   <v>       0.02735365       0.26451734       0.76451734 </v>
   <v>       0.02735365       0.76451734       0.26451734 </v>
   <v>       0.31182662       0.29257955       0.97726459 </v>
   <v>       0.18697405       0.79916942       0.02515405 </v>
   <v>       0.68683852       0.29951103       0.02532985 </v>
   <v>       0.81194429       0.79273322       0.97735876 </v>
   <v>       0.31182662       0.97726459       0.29257955 </v>
   <v>       0.18697405       0.02515405       0.79916942 </v>
   <v>       0.81194429       0.97735876       0.79273322 </v>
   <v>       0.68683852       0.02532985       0.29951103 </v>
   <v>       0.31182662       0.79257955       0.47726459 </v>
   <v>       0.18697405       0.29916942       0.52515405 </v>
   <v>       0.68683852       0.79951103       0.52532985 </v>
   <v>       0.81194429       0.29273322       0.47735876 </v>
   <v>       0.31182662       0.47726459       0.79257955 </v>
   <v>       0.18697405       0.52515405       0.29916942 </v>
   <v>       0.81194429       0.47735876       0.29273322 </v>
   <v>       0.68683852       0.52532985       0.79951103 </v>
   <v>       0.46888441       0.17099199       0.67099199 </v>
   <v>       0.46888441       0.67099199       0.17099199 </v>
   <v>       0.52740692       0.26469134       0.26469134 </v>
   <v>       0.52740692       0.76469134       0.76469134 </v>
   <v>       0.50363388       0.49857859       0.49857859 </v>
   <v>       0.50363388       0.99857859       0.99857859 </v>
   <v>       0.00358891       0.49841166       0.99841166 </v>
   <v>       0.00358891       0.99841166       0.49841166 </v>
   <v>       0.11839329       0.87241774       0.61301664 </v>
   <v>       0.11839329       0.11301664       0.37241774 </v>
   <v>       0.87022798       0.88682646       0.38682646 </v>
   <v>       0.89364106       0.12228574       0.62228574 </v>
   <v>       0.89364106       0.62228574       0.12228574 </v>
   <v>       0.87022798       0.38682646       0.88682646 </v>
   <v>       0.11839329       0.61301664       0.87241774 </v>
   <v>       0.11839329       0.37241774       0.11301664 </v>
   <v>       0.61848542       0.11318073       0.87262635 </v>
   <v>       0.61848542       0.87262635       0.11318073 </v>
   <v>       0.39369322       0.12244556       0.12244556 </v>
   <v>       0.37030647       0.88696327       0.88696327 </v>
   <v>       0.61848542       0.61318073       0.37262635 </v>
   <v>       0.61848542       0.37262635       0.61318073 </v>
   <v>       0.39369322       0.62244556       0.62244556 </v>
   <v>       0.37030647       0.38696327       0.38696327 </v>
   <v>       0.75506531       0.74935068       0.74935068 </v>
   <v>       0.75506531       0.24935068       0.24935068 </v>
   <v>       0.25505570       0.74923618       0.24923618 </v>
   <v>       0.25505570       0.24923618       0.74923618 </v>
   <v>       0.99679179       0.97729088       0.97729088 </v>
   <v>       0.99679179       0.47729088       0.47729088 </v>
   <v>       0.49680409       0.97735748       0.47735748 </v>
   <v>       0.49680409       0.47735748       0.97735748 </v>
  </varray>
 </structure>
</modeling>
