unknown system                          
           1
    10.022783    0.000000    0.000000
     0.000000   10.022783    0.000000
     0.000000    0.000000   10.022783
   Li   P    S    Cl
    24     4    20     4
Direct configuration=     1
   0.96861799  0.17071518  0.17071518
   0.96861799  0.67071518  0.67071518
   0.02734767  0.26451098  0.76451098
   0.02734767  0.76451098  0.26451098
   0.31182348  0.29257481  0.97726085
   0.18697995  0.79916263  0.02514741
   0.68683637  0.29952298  0.02533564
   0.81194785  0.79273742  0.97735932
   0.31182348  0.97726085  0.29257481
   0.18697995  0.02514741  0.79916263
   0.81194785  0.97735932  0.79273742
   0.68683637  0.02533564  0.29952298
   0.31182348  0.79257481  0.47726085
   0.18697995  0.29916263  0.52514741
   0.68683637  0.79952298  0.52533564
   0.81194785  0.29273742  0.47735932
   0.31182348  0.47726085  0.79257481
   0.18697995  0.52514741  0.29916263
   0.81194785  0.47735932  0.29273742
   0.68683637  0.52533564  0.79952298
   0.46889236  0.17100701  0.67100701
   0.46889236  0.67100701  0.17100701
   0.52740741  0.26469298  0.26469298
   0.52740741  0.76469298  0.76469298
   0.50363123  0.49857733  0.49857733
   0.50363123  0.99857733  0.99857733
   0.00358484  0.49840868  0.99840868
   0.00358484  0.99840868  0.49840868
   0.11838697  0.87241713  0.61300926
   0.11838697  0.11300926  0.37241713
   0.87022667  0.88682150  0.38682150
   0.89363453  0.12228179  0.62228179
   0.89363453  0.62228179  0.12228179
   0.87022667  0.38682150  0.88682150
   0.11838697  0.61300926  0.87241713
   0.11838697  0.37241713  0.11300926
   0.61849225  0.11318729  0.87263174
   0.61849225  0.87263174  0.11318729
   0.39369459  0.12244575  0.12244575
   0.37031101  0.88696828  0.88696828
   0.61849225  0.61318729  0.37263174
   0.61849225  0.37263174  0.61318729
   0.39369459  0.62244575  0.62244575
   0.37031101  0.38696828  0.38696828
   0.75506236  0.74935365  0.74935365
   0.75506236  0.24935365  0.24935365
   0.25505567  0.74923340  0.24923340
   0.25505567  0.24923340  0.74923340
   0.99679539  0.97728093  0.97728093
   0.99679539  0.47728093  0.47728093
   0.49680453  0.97735604  0.47735604
   0.49680453  0.47735604  0.97735604
Direct configuration=     2
   0.96861860  0.17071447  0.17071447
   0.96861860  0.67071447  0.67071447
   0.02734865  0.26451195  0.76451195
   0.02734865  0.76451195  0.26451195
   0.31182401  0.29257556  0.97726144
   0.18697892  0.79916367  0.02514854
   0.68683673  0.29952099  0.02533464
   0.81194722  0.79273672  0.97735925
   0.31182401  0.97726144  0.29257556
   0.18697892  0.02514854  0.79916367
   0.81194722  0.97735925  0.79273672
   0.68683673  0.02533464  0.29952099
   0.31182401  0.79257556  0.47726144
   0.18697892  0.29916367  0.52514854
   0.68683673  0.79952099  0.52533464
   0.81194722  0.29273672  0.47735925
   0.31182401  0.47726144  0.79257556
   0.18697892  0.52514854  0.29916367
   0.81194722  0.47735925  0.29273672
   0.68683673  0.52533464  0.79952099
   0.46889120  0.17100461  0.67100461
   0.46889120  0.67100461  0.17100461
   0.52740737  0.26469266  0.26469266
   0.52740737  0.76469266  0.76469266
   0.50363393  0.49857830  0.49857830
   0.50363393  0.99857830  0.99857830
   0.00358438  0.49840915  0.99840915
   0.00358438  0.99840915  0.49840915
   0.11838844  0.87241681  0.61301087
   0.11838844  0.11301087  0.37241681
   0.87022701  0.88682253  0.38682253
   0.89363579  0.12228228  0.62228228
   0.89363579  0.62228228  0.12228228
   0.87022701  0.38682253  0.88682253
   0.11838844  0.61301087  0.87241681
   0.11838844  0.37241681  0.11301087
   0.61849052  0.11318565  0.87263122
   0.61849052  0.87263122  0.11318565
   0.39369415  0.12244581  0.12244581
   0.37030935  0.88696668  0.88696668
   0.61849052  0.61318565  0.37263122
   0.61849052  0.37263122  0.61318565
   0.39369415  0.62244581  0.62244581
   0.37030935  0.38696668  0.38696668
   0.75506290  0.74935313  0.74935313
   0.75506290  0.24935313  0.24935313
   0.25505560  0.74923382  0.24923382
   0.25505560  0.24923382  0.74923382
   0.99679490  0.97728279  0.97728279
   0.99679490  0.47728279  0.47728279
   0.49680446  0.97735643  0.47735643
   0.49680446  0.47735643  0.97735643
Direct configuration=     3
   0.96861904  0.17071398  0.17071398
   0.96861904  0.67071398  0.67071398
   0.02734935  0.26451264  0.76451264
   0.02734935  0.76451264  0.26451264
   0.31182438  0.29257610  0.97726186
   0.18697819  0.79916440  0.02514934
   0.68683698  0.29951959  0.02533394
   0.81194678  0.79273622  0.97735920
   0.31182438  0.97726186  0.29257610
   0.18697819  0.02514934  0.79916440
   0.81194678  0.97735920  0.79273622
   0.68683698  0.02533394  0.29951959
   0.31182438  0.79257610  0.47726186
   0.18697819  0.29916440  0.52514934
   0.68683698  0.79951959  0.52533394
   0.81194678  0.29273622  0.47735920
   0.31182438  0.47726186  0.79257610
   0.18697819  0.52514934  0.29916440
   0.81194678  0.47735920  0.29273622
   0.68683698  0.52533394  0.79951959
   0.46889039  0.17100292  0.67100292
   0.46889039  0.67100292  0.17100292
   0.52740735  0.26469242  0.26469242
   0.52740735  0.76469242  0.76469242
   0.50363583  0.49857899  0.49857899
   0.50363583  0.99857899  0.99857899
   0.00358406  0.49840948  0.99840948
   0.00358406  0.99840948  0.49840948
   0.11838948  0.87241659  0.61301201
   0.11838948  0.11301201  0.37241659
   0.87022725  0.88682326  0.38682326
   0.89363668  0.12228262  0.62228262
   0.89363668  0.62228262  0.12228262
   0.87022725  0.38682326  0.88682326
   0.11838948  0.61301201  0.87241659
   0.11838948  0.37241659  0.11301201
   0.61848930  0.11318450  0.87263086
   0.61848930  0.87263086  0.11318450
   0.39369385  0.12244585  0.12244585
   0.37030818  0.88696556  0.88696556
   0.61848930  0.61318450  0.37263086
   0.61848930  0.37263086  0.61318450
   0.39369385  0.62244585  0.62244585
   0.37030818  0.38696556  0.38696556
   0.75506328  0.74935276  0.74935276
   0.75506328  0.24935276  0.24935276
   0.25505554  0.74923411  0.24923411
   0.25505554  0.24923411  0.74923411
   0.99679455  0.97728409  0.97728409
   0.99679455  0.47728409  0.47728409
   0.49680441  0.97735671  0.47735671
   0.49680441  0.47735671  0.97735671
Direct configuration=     4
   0.96861990  0.17071298  0.17071298
   0.96861990  0.67071298  0.67071298
   0.02735075  0.26451402  0.76451402
   0.02735075  0.76451402  0.26451402
   0.31182513  0.29257716  0.97726269
   0.18697673  0.79916586  0.02515094
   0.68683749  0.29951679  0.02533254
   0.81194590  0.79273522  0.97735910
   0.31182513  0.97726269  0.29257716
   0.18697673  0.02515094  0.79916586
   0.81194590  0.97735910  0.79273522
   0.68683749  0.02533254  0.29951679
   0.31182513  0.79257716  0.47726269
   0.18697673  0.29916586  0.52515094
   0.68683749  0.79951679  0.52533254
   0.81194590  0.29273522  0.47735910
   0.31182513  0.47726269  0.79257716
   0.18697673  0.52515094  0.29916586
   0.81194590  0.47735910  0.29273522
   0.68683749  0.52533254  0.79951679
   0.46888876  0.17099954  0.67099954
   0.46888876  0.67099954  0.17099954
   0.52740730  0.26469196  0.26469196
   0.52740730  0.76469196  0.76469196
   0.50363963  0.49858037  0.49858037
   0.50363963  0.99858037  0.99858037
   0.00358342  0.49841015  0.99841015
   0.00358342  0.99841015  0.49841015
   0.11839156  0.87241614  0.61301428
   0.11839156  0.11301428  0.37241614
   0.87022772  0.88682470  0.38682470
   0.89363846  0.12228330  0.62228330
   0.89363846  0.62228330  0.12228330
   0.87022772  0.38682470  0.88682470
   0.11839156  0.61301428  0.87241614
   0.11839156  0.37241614  0.11301428
   0.61848686  0.11318219  0.87263014
   0.61848686  0.87263014  0.11318219
   0.39369323  0.12244592  0.12244592
   0.37030584  0.88696330  0.88696330
   0.61848686  0.61318219  0.37263014
   0.61848686  0.37263014  0.61318219
   0.39369323  0.62244592  0.62244592
   0.37030584  0.38696330  0.38696330
   0.75506404  0.74935203  0.74935203
   0.75506404  0.24935203  0.24935203
   0.25505544  0.74923471  0.24923471
   0.25505544  0.24923471  0.74923471
   0.99679385  0.97728671  0.97728671
   0.99679385  0.47728671  0.47728671
   0.49680431  0.97735726  0.47735726
   0.49680431  0.47735726  0.97735726
Direct configuration=     5
   0.96861965  0.17071327  0.17071327
   0.96861965  0.67071327  0.67071327
   0.02735034  0.26451362  0.76451362
   0.02735034  0.76451362  0.26451362
   0.31182491  0.29257685  0.97726245
   0.18697716  0.79916543  0.02515047
   0.68683734  0.29951761  0.02533295
   0.81194616  0.79273551  0.97735913
   0.31182491  0.97726245  0.29257685
   0.18697716  0.02515047  0.79916543
   0.81194616  0.97735913  0.79273551
   0.68683734  0.02533295  0.29951761
   0.31182491  0.79257685  0.47726245
   0.18697716  0.29916543  0.52515047
   0.68683734  0.79951761  0.52533295
   0.81194616  0.29273551  0.47735913
   0.31182491  0.47726245  0.79257685
   0.18697716  0.52515047  0.29916543
   0.81194616  0.47735913  0.29273551
   0.68683734  0.52533295  0.79951761
   0.46888923  0.17100053  0.67100053
   0.46888923  0.67100053  0.17100053
   0.52740732  0.26469209  0.26469209
   0.52740732  0.76469209  0.76469209
   0.50363852  0.49857996  0.49857996
   0.50363852  0.99857996  0.99857996
   0.00358361  0.49840995  0.99840995
   0.00358361  0.99840995  0.49840995
   0.11839095  0.87241627  0.61301361
   0.11839095  0.11301361  0.37241627
   0.87022758  0.88682428  0.38682428
   0.89363794  0.12228310  0.62228310
   0.89363794  0.62228310  0.12228310
   0.87022758  0.38682428  0.88682428
   0.11839095  0.61301361  0.87241627
   0.11839095  0.37241627  0.11301361
   0.61848758  0.11318287  0.87263035
   0.61848758  0.87263035  0.11318287
   0.39369341  0.12244590  0.12244590
   0.37030653  0.88696396  0.88696396
   0.61848758  0.61318287  0.37263035
   0.61848758  0.37263035  0.61318287
   0.39369341  0.62244590  0.62244590
   0.37030653  0.38696396  0.38696396
   0.75506382  0.74935224  0.74935224
   0.75506382  0.24935224  0.24935224
   0.25505547  0.74923453  0.24923453
   0.25505547  0.24923453  0.74923453
   0.99679406  0.97728594  0.97728594
   0.99679406  0.47728594  0.47728594
   0.49680434  0.97735710  0.47735710
   0.49680434  0.47735710  0.97735710
Direct configuration=     6
   0.96861985  0.17071304  0.17071304
   0.96861985  0.67071304  0.67071304
   0.02735067  0.26451394  0.76451394
   0.02735067  0.76451394  0.26451394
   0.31182509  0.29257710  0.97726265
   0.18697682  0.79916578  0.02515085
   0.68683746  0.29951695  0.02533262
   0.81194595  0.79273528  0.97735911
   0.31182509  0.97726265  0.29257710
   0.18697682  0.02515085  0.79916578
   0.81194595  0.97735911  0.79273528
   0.68683746  0.02533262  0.29951695
   0.31182509  0.79257710  0.47726265
   0.18697682  0.29916578  0.52515085
   0.68683746  0.79951695  0.52533262
   0.81194595  0.29273528  0.47735911
   0.31182509  0.47726265  0.79257710
   0.18697682  0.52515085  0.29916578
   0.81194595  0.47735911  0.29273528
   0.68683746  0.52533262  0.79951695
   0.46888885  0.17099973  0.67099973
   0.46888885  0.67099973  0.17099973
   0.52740730  0.26469199  0.26469199
   0.52740730  0.76469199  0.76469199
   0.50363941  0.49858029  0.49858029
   0.50363941  0.99858029  0.99858029
   0.00358346  0.49841011  0.99841011
   0.00358346  0.99841011  0.49841011
   0.11839144  0.87241616  0.61301415
   0.11839144  0.11301415  0.37241616
   0.87022770  0.88682462  0.38682462
   0.89363836  0.12228326  0.62228326
   0.89363836  0.62228326  0.12228326
   0.87022770  0.38682462  0.88682462
   0.11839144  0.61301415  0.87241616
   0.11839144  0.37241616  0.11301415
   0.61848700  0.11318232  0.87263018
   0.61848700  0.87263018  0.11318232
   0.39369327  0.12244592  0.12244592
   0.37030598  0.88696343  0.88696343
   0.61848700  0.61318232  0.37263018
   0.61848700  0.37263018  0.61318232
   0.39369327  0.62244592  0.62244592
   0.37030598  0.38696343  0.38696343
   0.75506400  0.74935207  0.74935207
   0.75506400  0.24935207  0.24935207
   0.25505544  0.74923467  0.24923467
   0.25505544  0.24923467  0.74923467
   0.99679389  0.97728656  0.97728656
   0.99679389  0.47728656  0.47728656
   0.49680431  0.97735723  0.47735723
   0.49680431  0.47735723  0.97735723
Direct configuration=     7
   0.96862090  0.17071210  0.17071210
   0.96862090  0.67071210  0.67071210
   0.02735197  0.26451543  0.76451543
   0.02735197  0.76451543  0.26451543
   0.31182576  0.29257817  0.97726350
   0.18697560  0.79916737  0.02515225
   0.68683792  0.29951436  0.02533141
   0.81194522  0.79273438  0.97735896
   0.31182576  0.97726350  0.29257817
   0.18697560  0.02515225  0.79916737
   0.81194522  0.97735896  0.79273438
   0.68683792  0.02533141  0.29951436
   0.31182576  0.79257817  0.47726350
   0.18697560  0.29916737  0.52515225
   0.68683792  0.79951436  0.52533141
   0.81194522  0.29273438  0.47735896
   0.31182576  0.47726350  0.79257817
   0.18697560  0.52515225  0.29916737
   0.81194522  0.47735896  0.29273438
   0.68683792  0.52533141  0.79951436
   0.46888691  0.17099634  0.67099634
   0.46888691  0.67099634  0.17099634
   0.52740714  0.26469170  0.26469170
   0.52740714  0.76469170  0.76469170
   0.50363699  0.49857954  0.49857954
   0.50363699  0.99857954  0.99857954
   0.00358584  0.49841079  0.99841079
   0.00358584  0.99841079  0.49841079
   0.11839225  0.87241686  0.61301524
   0.11839225  0.11301524  0.37241686
   0.87022782  0.88682543  0.38682543
   0.89363954  0.12228435  0.62228435
   0.89363954  0.62228435  0.12228435
   0.87022782  0.38682543  0.88682543
   0.11839225  0.61301524  0.87241686
   0.11839225  0.37241686  0.11301524
   0.61848631  0.11318162  0.87262850
   0.61848631  0.87262850  0.11318162
   0.39369325  0.12244576  0.12244576
   0.37030620  0.88696336  0.88696336
   0.61848631  0.61318162  0.37262850
   0.61848631  0.37262850  0.61318162
   0.39369325  0.62244576  0.62244576
   0.37030620  0.38696336  0.38696336
   0.75506457  0.74935146  0.74935146
   0.75506457  0.24935146  0.24935146
   0.25505555  0.74923533  0.24923533
   0.25505555  0.24923533  0.74923533
   0.99679297  0.97728845  0.97728845
   0.99679297  0.47728845  0.47728845
   0.49680421  0.97735734  0.47735734
   0.49680421  0.47735734  0.97735734
Direct configuration=     8
   0.96862225  0.17071089  0.17071089
   0.96862225  0.67071089  0.67071089
   0.02735365  0.26451734  0.76451734
   0.02735365  0.76451734  0.26451734
   0.31182662  0.29257955  0.97726459
   0.18697405  0.79916942  0.02515405
   0.68683852  0.29951103  0.02532985
   0.81194429  0.79273322  0.97735876
   0.31182662  0.97726459  0.29257955
   0.18697405  0.02515405  0.79916942
   0.81194429  0.97735876  0.79273322
   0.68683852  0.02532985  0.29951103
   0.31182662  0.79257955  0.47726459
   0.18697405  0.29916942  0.52515405
   0.68683852  0.79951103  0.52532985
   0.81194429  0.29273322  0.47735876
   0.31182662  0.47726459  0.79257955
   0.18697405  0.52515405  0.29916942
   0.81194429  0.47735876  0.29273322
   0.68683852  0.52532985  0.79951103
   0.46888441  0.17099199  0.67099199
   0.46888441  0.67099199  0.17099199
   0.52740692  0.26469134  0.26469134
   0.52740692  0.76469134  0.76469134
   0.50363388  0.49857859  0.49857859
   0.50363388  0.99857859  0.99857859
   0.00358891  0.49841166  0.99841166
   0.00358891  0.99841166  0.49841166
   0.11839329  0.87241774  0.61301664
   0.11839329  0.11301664  0.37241774
   0.87022798  0.88682646  0.38682646
   0.89364106  0.12228574  0.62228574
   0.89364106  0.62228574  0.12228574
   0.87022798  0.38682646  0.88682646
   0.11839329  0.61301664  0.87241774
   0.11839329  0.37241774  0.11301664
   0.61848542  0.11318073  0.87262635
   0.61848542  0.87262635  0.11318073
   0.39369322  0.12244556  0.12244556
   0.37030647  0.88696327  0.88696327
   0.61848542  0.61318073  0.37262635
   0.61848542  0.37262635  0.61318073
   0.39369322  0.62244556  0.62244556
   0.37030647  0.38696327  0.38696327
   0.75506531  0.74935068  0.74935068
   0.75506531  0.24935068  0.24935068
   0.25505570  0.74923618  0.24923618
   0.25505570  0.24923618  0.74923618
   0.99679179  0.97729088  0.97729088
   0.99679179  0.47729088  0.47729088
   0.49680409  0.97735748  0.47735748
   0.49680409  0.47735748  0.97735748
