Li6PS5Cl-bulk 0298 Kelvin 520eV equil N 
           1
    10.090596   -0.386949    0.015215
     0.000000   10.093490    0.200119
    -0.000000    0.000000    9.924446
   Li   P    S    Cl
    24     4    20     4
Direct configuration=    10
   0.09245428  0.37473136  0.08551228
   0.13931708  0.49002133  0.54068205
   0.13926113  0.70629869  0.27101875
   0.23287184  0.25971247  0.36385702
   0.92200729  0.43690977  0.28466212
   0.36236841  0.54581833  0.25463602
   0.05085922  0.93159809  0.58367305
   0.20217037  0.94356410  0.01167489
   0.17148908  0.19501212  0.75432914
   0.12819688  0.74199960  0.77735799
   0.92819978  0.98294051  0.88812133
   0.38820330  0.02863514  0.75546372
   0.48387205  0.43928095  0.61354675
   0.72446976  0.48972574  0.00404171
   0.70388940  0.72334726  0.71408823
   0.68577808  0.25098174  0.81932766
   0.43055311  0.54417784  0.88314673
   0.82113675  0.50169574  0.63746427
   0.62075131  0.79235244  0.14736740
   0.61835008  0.06993221  0.51141674
   0.64995324  0.16419183  0.14360935
   0.70334969  0.78903012  0.41295837
   0.41330003  0.93910020  0.26055120
   0.87544972  0.01868252  0.26448858
   0.39135119  0.24080309  0.05675675
   0.40358325  0.72807977  0.55210522
   0.90065813  0.23963944  0.56028810
   0.88276239  0.73849778  0.04400855
   0.99916571  0.60181461  0.95043632
   0.78644728  0.62632700  0.19056848
   0.25953447  0.33125319  0.92903547
   0.50757576  0.34667185  0.17858861
   0.14660112  0.48178928  0.30629258
   0.02426001  0.11820321  0.43286199
   0.78567998  0.10134289  0.67189604
   0.27244775  0.83586442  0.44075942
   0.52899349  0.86704658  0.64085396
   0.15370006  0.98769805  0.78981027
   0.52149782  0.60862322  0.43697148
   0.30181278  0.61407903  0.69495548
   0.76483700  0.33764795  0.45912736
   0.00565707  0.37238347  0.68661495
   0.64092898  0.50610067  0.79936597
   0.50758157  0.11996235  0.94409261
   0.27882480  0.11091339  0.18128645
   0.74335789  0.83433708  0.92317691
   0.01508493  0.87814984  0.13579188
   0.66035410  0.97666090  0.29231287
   0.88793364  0.27668197  0.10957279
   0.89772656  0.72713540  0.56079730
   0.35840360  0.23729948  0.59162996
   0.39193541  0.74434909  0.08224103
Li6PS5Cl-bulk 0298 Kelvin 520eV equil N 
           1
    10.094215   -0.407473    0.022346
     0.000000   10.099454    0.202278
    -0.000000    0.000000    9.943155
   Li   P    S    Cl
    24     4    20     4
Direct configuration=    20
   0.10139052  0.37745620  0.09858984
   0.14522829  0.50370642  0.54673450
   0.13013577  0.71553107  0.27274073
   0.22777733  0.26831742  0.33713764
   0.91566326  0.43302382  0.28288246
   0.37065732  0.54828815  0.24016960
   0.04378271  0.93437600  0.57572184
   0.20307138  0.94373634  0.01841017
   0.17093019  0.20578519  0.73440387
   0.12898638  0.74288330  0.79180149
   0.93963862  0.98530647  0.89494610
   0.38271019  0.03420191  0.75332596
   0.49895696  0.43273373  0.60166622
   0.70862337  0.48283551  0.00101425
   0.69780588  0.72405519  0.73044714
   0.66617414  0.25445439  0.81641586
   0.42875602  0.54586338  0.88606552
   0.82464575  0.50728126  0.63091512
   0.62633809  0.79594778  0.13263948
   0.60255629  0.07766702  0.49984349
   0.65366110  0.14912077  0.14680322
   0.70465056  0.78865827  0.41625921
   0.42428943  0.91570738  0.25766636
   0.89043068  0.02713067  0.25402138
   0.38299145  0.23666673  0.04949980
   0.40340549  0.73577538  0.55176827
   0.89874749  0.22541660  0.54871628
   0.88621744  0.73492818  0.04266636
   0.99679824  0.60629266  0.95445650
   0.78055227  0.62246455  0.18788115
   0.26353624  0.34070581  0.93177565
   0.50069406  0.34675010  0.18203224
   0.15253006  0.48787900  0.30184346
   0.01855543  0.12826623  0.43777457
   0.79126569  0.10072206  0.66761082
   0.26878335  0.83358058  0.44447412
   0.52687580  0.87188474  0.63935492
   0.16017011  0.96933872  0.79150643
   0.51913322  0.61393204  0.43185922
   0.30453309  0.62018868  0.69523854
   0.76336245  0.34281769  0.45839771
  -0.00087944  0.36164306  0.68826055
   0.64221026  0.50935441  0.78936203
   0.50566865  0.11755505  0.93683110
   0.27628243  0.10982018  0.17817119
   0.74433473  0.83382647  0.92877343
   0.01365060  0.87493000  0.14092010
   0.66029678  0.97572299  0.28895204
   0.88510061  0.27796210  0.10798445
   0.90067253  0.72410905  0.57010535
   0.35868359  0.23244174  0.58420621
   0.38713274  0.74785174  0.09199687
Li6PS5Cl-bulk 0298 Kelvin 520eV equil N 
           1
    10.098140   -0.428617    0.027848
     0.000000   10.106774    0.203024
    -0.000000    0.000000    9.964738
   Li   P    S    Cl
    24     4    20     4
Direct configuration=    30
   0.09939113  0.39123746  0.10543087
   0.15515881  0.51723233  0.53772688
   0.13377028  0.71568015  0.27292240
   0.22428306  0.28289047  0.33460745
   0.90872271  0.44111725  0.28554949
   0.38915306  0.55260103  0.22779958
   0.04872357  0.93111255  0.58287247
   0.21855637  0.94089011  0.02019274
   0.17465375  0.22028904  0.71733489
   0.12677160  0.73767147  0.80803719
   0.95365077  0.99444566  0.88087757
   0.37278494  0.02923788  0.73522514
   0.51489738  0.42927966  0.59744805
   0.70619034  0.46981648  0.02380100
   0.69955084  0.73239584  0.73971449
   0.65156811  0.28002131  0.80312657
   0.42993477  0.54331781  0.89302882
   0.81764126  0.50026566  0.63256994
   0.62187512  0.80281608  0.12548823
   0.59058896  0.08632291  0.48055324
   0.65067514  0.15450055  0.14824732
   0.71070751  0.77857322  0.42197314
   0.43187255  0.90991947  0.26207542
   0.89391380  0.05071539  0.24376967
   0.38413163  0.22827692  0.04742518
   0.40582684  0.74210975  0.54702230
   0.89064228  0.23089185  0.55443560
   0.88704309  0.73178464  0.05005507
   0.99985509  0.60889933  0.94863861
   0.77215218  0.62540828  0.18723027
   0.26730459  0.35455292  0.93346853
   0.49628484  0.34555152  0.17575484
   0.15666156  0.49121890  0.29822375
   0.02176227  0.13537783  0.43035199
   0.79291573  0.09267776  0.67420824
   0.26017874  0.83528198  0.44354801
   0.52863050  0.87911034  0.64155223
   0.16022493  0.95341044  0.79415027
   0.51347722  0.62429466  0.43157561
   0.30255330  0.62169293  0.69363768
   0.76008957  0.34728443  0.45024412
  -0.00712302  0.34120415  0.68112533
   0.63795800  0.50426072  0.77888993
   0.50501269  0.11862833  0.93353575
   0.27143304  0.10641724  0.17165985
   0.75733643  0.83731855  0.93951111
   0.00549411  0.86859034  0.14460088
   0.65603840  0.97145609  0.28863270
   0.87914566  0.27544937  0.10551765
   0.90121385  0.72347966  0.57910121
   0.36359238  0.22910908  0.57405854
   0.38059186  0.75003003  0.10124653
