  52  52   0   4
  0.1739267E+02  0.9670670E-09  0.9670670E-09  0.9670670E-09  0.2000000E-15
  1.000000000000000E-004
  CAR 
 unknown system                          
     12.53162266    -45.25824007  301      1.98497271      1.00000000
    -45.258  0.0000E+00  0.0000E+00  0.0000E+00  0.0000E+00
    -45.066  0.0000E+00  0.0000E+00  0.0000E+00  0.0000E+00
    -44.873  0.0000E+00  0.0000E+00  0.0000E+00  0.0000E+00
    -44.680  0.0000E+00  0.0000E+00  0.0000E+00  0.0000E+00
    -44.488  0.0000E+00  0.0000E+00  0.0000E+00  0.0000E+00
    -44.295  0.0000E+00  0.0000E+00  0.0000E+00  0.0000E+00
    -44.102  0.0000E+00  0.0000E+00  0.0000E+00  0.0000E+00
    -43.910  0.0000E+00  0.0000E+00  0.0000E+00  0.0000E+00
    -43.717  0.0000E+00  0.0000E+00  0.0000E+00  0.0000E+00
    -43.525  0.0000E+00  0.0000E+00  0.0000E+00  0.0000E+00
    -43.332  0.0000E+00  0.0000E+00  0.0000E+00  0.0000E+00
    -43.139  0.0000E+00  0.0000E+00  0.0000E+00  0.0000E+00
    -42.947  0.0000E+00  0.0000E+00  0.0000E+00  0.0000E+00
    -42.754  0.1954E-10  0.1954E-10  0.3764E-11  0.3763E-11
    -42.561  0.5265E-02  0.5265E-02  0.1014E-02  0.1014E-02
    -42.369  0.7180E-01  0.7180E-01  0.1485E-01  0.1485E-01
    -42.176  0.4724E-01  0.4724E-01  0.2399E-01  0.2399E-01
    -41.983  0.7072E-04  0.7072E-04  0.2400E-01  0.2400E-01
    -41.791  0.0000E+00  0.0000E+00  0.2400E-01  0.2400E-01
    -41.598  0.0000E+00  0.0000E+00  0.2400E-01  0.2400E-01
    -41.406  0.0000E+00  0.0000E+00  0.2400E-01  0.2400E-01
    -41.213  0.0000E+00  0.0000E+00  0.2400E-01  0.2400E-01
    -41.020  0.0000E+00  0.0000E+00  0.2400E-01  0.2400E-01
    -40.828  0.0000E+00  0.0000E+00  0.2400E-01  0.2400E-01
    -40.635  0.0000E+00  0.0000E+00  0.2400E-01  0.2400E-01
    -40.442  0.0000E+00  0.0000E+00  0.2400E-01  0.2400E-01
    -40.250  0.0000E+00  0.0000E+00  0.2400E-01  0.2400E-01
    -40.057  0.0000E+00  0.0000E+00  0.2400E-01  0.2400E-01
    -39.865  0.0000E+00  0.0000E+00  0.2400E-01  0.2400E-01
    -39.672  0.0000E+00  0.0000E+00  0.2400E-01  0.2400E-01
    -39.479  0.0000E+00  0.0000E+00  0.2400E-01  0.2400E-01
    -39.287  0.0000E+00  0.0000E+00  0.2400E-01  0.2400E-01
    -39.094  0.0000E+00  0.0000E+00  0.2400E-01  0.2400E-01
    -38.901  0.0000E+00  0.0000E+00  0.2400E-01  0.2400E-01
    -38.709  0.0000E+00  0.0000E+00  0.2400E-01  0.2400E-01
    -38.516  0.0000E+00  0.0000E+00  0.2400E-01  0.2400E-01
    -38.323  0.0000E+00  0.0000E+00  0.2400E-01  0.2400E-01
    -38.131  0.0000E+00  0.0000E+00  0.2400E-01  0.2400E-01
    -37.938  0.0000E+00  0.0000E+00  0.2400E-01  0.2400E-01
    -37.746  0.0000E+00  0.0000E+00  0.2400E-01  0.2400E-01
    -37.553  0.0000E+00  0.0000E+00  0.2400E-01  0.2400E-01
    -37.360  0.0000E+00  0.0000E+00  0.2400E-01  0.2400E-01
    -37.168  0.0000E+00  0.0000E+00  0.2400E-01  0.2400E-01
    -36.975  0.0000E+00  0.0000E+00  0.2400E-01  0.2400E-01
    -36.782  0.0000E+00  0.0000E+00  0.2400E-01  0.2400E-01
    -36.590  0.0000E+00  0.0000E+00  0.2400E-01  0.2400E-01
    -36.397  0.0000E+00  0.0000E+00  0.2400E-01  0.2400E-01
    -36.204  0.0000E+00  0.0000E+00  0.2400E-01  0.2400E-01
    -36.012  0.0000E+00  0.0000E+00  0.2400E-01  0.2400E-01
    -35.819  0.0000E+00  0.0000E+00  0.2400E-01  0.2400E-01
    -35.627  0.0000E+00  0.0000E+00  0.2400E-01  0.2400E-01
    -35.434  0.0000E+00  0.0000E+00  0.2400E-01  0.2400E-01
    -35.241  0.0000E+00  0.0000E+00  0.2400E-01  0.2400E-01
    -35.049  0.0000E+00  0.0000E+00  0.2400E-01  0.2400E-01
    -34.856  0.0000E+00  0.0000E+00  0.2400E-01  0.2400E-01
    -34.663  0.0000E+00  0.0000E+00  0.2400E-01  0.2400E-01
    -34.471  0.0000E+00  0.0000E+00  0.2400E-01  0.2400E-01
    -34.278  0.0000E+00  0.0000E+00  0.2400E-01  0.2400E-01
    -34.086  0.0000E+00  0.0000E+00  0.2400E-01  0.2400E-01
    -33.893  0.0000E+00  0.0000E+00  0.2400E-01  0.2400E-01
    -33.700  0.0000E+00  0.0000E+00  0.2400E-01  0.2400E-01
    -33.508  0.0000E+00  0.0000E+00  0.2400E-01  0.2400E-01
    -33.315  0.0000E+00  0.0000E+00  0.2400E-01  0.2400E-01
    -33.122  0.0000E+00  0.0000E+00  0.2400E-01  0.2400E-01
    -32.930  0.0000E+00  0.0000E+00  0.2400E-01  0.2400E-01
    -32.737  0.0000E+00  0.0000E+00  0.2400E-01  0.2400E-01
    -32.544  0.0000E+00  0.0000E+00  0.2400E-01  0.2400E-01
    -32.352  0.0000E+00  0.0000E+00  0.2400E-01  0.2400E-01
    -32.159  0.0000E+00  0.0000E+00  0.2400E-01  0.2400E-01
    -31.967  0.0000E+00  0.0000E+00  0.2400E-01  0.2400E-01
    -31.774  0.0000E+00  0.0000E+00  0.2400E-01  0.2400E-01
    -31.581  0.0000E+00  0.0000E+00  0.2400E-01  0.2400E-01
    -31.389  0.0000E+00  0.0000E+00  0.2400E-01  0.2400E-01
    -31.196  0.0000E+00  0.0000E+00  0.2400E-01  0.2400E-01
    -31.003  0.0000E+00  0.0000E+00  0.2400E-01  0.2400E-01
    -30.811  0.0000E+00  0.0000E+00  0.2400E-01  0.2400E-01
    -30.618  0.0000E+00  0.0000E+00  0.2400E-01  0.2400E-01
    -30.426  0.0000E+00  0.0000E+00  0.2400E-01  0.2400E-01
    -30.233  0.0000E+00  0.0000E+00  0.2400E-01  0.2400E-01
    -30.040  0.0000E+00  0.0000E+00  0.2400E-01  0.2400E-01
    -29.848  0.0000E+00  0.0000E+00  0.2400E-01  0.2400E-01
    -29.655  0.0000E+00  0.0000E+00  0.2400E-01  0.2400E-01
    -29.462  0.0000E+00  0.0000E+00  0.2400E-01  0.2400E-01
    -29.270  0.0000E+00  0.0000E+00  0.2400E-01  0.2400E-01
    -29.077  0.0000E+00  0.0000E+00  0.2400E-01  0.2400E-01
    -28.884  0.0000E+00  0.0000E+00  0.2400E-01  0.2400E-01
    -28.692  0.0000E+00  0.0000E+00  0.2400E-01  0.2400E-01
    -28.499  0.0000E+00  0.0000E+00  0.2400E-01  0.2400E-01
    -28.307  0.0000E+00  0.0000E+00  0.2400E-01  0.2400E-01
    -28.114  0.0000E+00  0.0000E+00  0.2400E-01  0.2400E-01
    -27.921  0.0000E+00  0.0000E+00  0.2400E-01  0.2400E-01
    -27.729  0.0000E+00  0.0000E+00  0.2400E-01  0.2400E-01
    -27.536  0.0000E+00  0.0000E+00  0.2400E-01  0.2400E-01
    -27.343  0.0000E+00  0.0000E+00  0.2400E-01  0.2400E-01
    -27.151  0.0000E+00  0.0000E+00  0.2400E-01  0.2400E-01
    -26.958  0.0000E+00  0.0000E+00  0.2400E-01  0.2400E-01
    -26.765  0.0000E+00  0.0000E+00  0.2400E-01  0.2400E-01
    -26.573  0.0000E+00  0.0000E+00  0.2400E-01  0.2400E-01
    -26.380  0.0000E+00  0.0000E+00  0.2400E-01  0.2400E-01
    -26.188  0.0000E+00  0.0000E+00  0.2400E-01  0.2400E-01
    -25.995  0.0000E+00  0.0000E+00  0.2400E-01  0.2400E-01
    -25.802  0.0000E+00  0.0000E+00  0.2400E-01  0.2400E-01
    -25.610  0.0000E+00  0.0000E+00  0.2400E-01  0.2400E-01
    -25.417  0.0000E+00  0.0000E+00  0.2400E-01  0.2400E-01
    -25.224  0.0000E+00  0.0000E+00  0.2400E-01  0.2400E-01
    -25.032  0.0000E+00  0.0000E+00  0.2400E-01  0.2400E-01
    -24.839  0.0000E+00  0.0000E+00  0.2400E-01  0.2400E-01
    -24.647  0.0000E+00  0.0000E+00  0.2400E-01  0.2400E-01
    -24.454  0.0000E+00  0.0000E+00  0.2400E-01  0.2400E-01
    -24.261  0.0000E+00  0.0000E+00  0.2400E-01  0.2400E-01
    -24.069  0.0000E+00  0.0000E+00  0.2400E-01  0.2400E-01
    -23.876  0.0000E+00  0.0000E+00  0.2400E-01  0.2400E-01
    -23.683  0.0000E+00  0.0000E+00  0.2400E-01  0.2400E-01
    -23.491  0.0000E+00  0.0000E+00  0.2400E-01  0.2400E-01
    -23.298  0.0000E+00  0.0000E+00  0.2400E-01  0.2400E-01
    -23.105  0.0000E+00  0.0000E+00  0.2400E-01  0.2400E-01
    -22.913  0.0000E+00  0.0000E+00  0.2400E-01  0.2400E-01
    -22.720  0.0000E+00  0.0000E+00  0.2400E-01  0.2400E-01
    -22.528  0.0000E+00  0.0000E+00  0.2400E-01  0.2400E-01
    -22.335  0.0000E+00  0.0000E+00  0.2400E-01  0.2400E-01
    -22.142  0.0000E+00  0.0000E+00  0.2400E-01  0.2400E-01
    -21.950  0.0000E+00  0.0000E+00  0.2400E-01  0.2400E-01
    -21.757  0.0000E+00  0.0000E+00  0.2400E-01  0.2400E-01
    -21.564  0.0000E+00  0.0000E+00  0.2400E-01  0.2400E-01
    -21.372  0.0000E+00  0.0000E+00  0.2400E-01  0.2400E-01
    -21.179  0.0000E+00  0.0000E+00  0.2400E-01  0.2400E-01
    -20.986  0.0000E+00  0.0000E+00  0.2400E-01  0.2400E-01
    -20.794  0.0000E+00  0.0000E+00  0.2400E-01  0.2400E-01
    -20.601  0.0000E+00  0.0000E+00  0.2400E-01  0.2400E-01
    -20.409  0.0000E+00  0.0000E+00  0.2400E-01  0.2400E-01
    -20.216  0.0000E+00  0.0000E+00  0.2400E-01  0.2400E-01
    -20.023  0.0000E+00  0.0000E+00  0.2400E-01  0.2400E-01
    -19.831  0.0000E+00  0.0000E+00  0.2400E-01  0.2400E-01
    -19.638  0.0000E+00  0.0000E+00  0.2400E-01  0.2400E-01
    -19.445  0.0000E+00  0.0000E+00  0.2400E-01  0.2400E-01
    -19.253  0.0000E+00  0.0000E+00  0.2400E-01  0.2400E-01
    -19.060  0.0000E+00  0.0000E+00  0.2400E-01  0.2400E-01
    -18.868  0.0000E+00  0.0000E+00  0.2400E-01  0.2400E-01
    -18.675  0.0000E+00  0.0000E+00  0.2400E-01  0.2400E-01
    -18.482  0.0000E+00  0.0000E+00  0.2400E-01  0.2400E-01
    -18.290  0.0000E+00  0.0000E+00  0.2400E-01  0.2400E-01
    -18.097  0.0000E+00  0.0000E+00  0.2400E-01  0.2400E-01
    -17.904  0.0000E+00  0.0000E+00  0.2400E-01  0.2400E-01
    -17.712  0.0000E+00  0.0000E+00  0.2400E-01  0.2400E-01
    -17.519  0.0000E+00  0.0000E+00  0.2400E-01  0.2400E-01
    -17.326  0.0000E+00  0.0000E+00  0.2400E-01  0.2400E-01
    -17.134  0.0000E+00  0.0000E+00  0.2400E-01  0.2400E-01
    -16.941  0.0000E+00  0.0000E+00  0.2400E-01  0.2400E-01
    -16.749  0.0000E+00  0.0000E+00  0.2400E-01  0.2400E-01
    -16.556  0.0000E+00  0.0000E+00  0.2400E-01  0.2400E-01
    -16.363  0.0000E+00  0.0000E+00  0.2400E-01  0.2400E-01
    -16.171  0.0000E+00  0.0000E+00  0.2400E-01  0.2400E-01
    -15.978  0.0000E+00  0.0000E+00  0.2400E-01  0.2400E-01
    -15.785  0.0000E+00  0.0000E+00  0.2400E-01  0.2400E-01
    -15.593  0.0000E+00  0.0000E+00  0.2400E-01  0.2400E-01
    -15.400  0.0000E+00  0.0000E+00  0.2400E-01  0.2400E-01
    -15.208  0.0000E+00  0.0000E+00  0.2400E-01  0.2400E-01
    -15.015  0.0000E+00  0.0000E+00  0.2400E-01  0.2400E-01
    -14.822  0.0000E+00  0.0000E+00  0.2400E-01  0.2400E-01
    -14.630  0.0000E+00  0.0000E+00  0.2400E-01  0.2400E-01
    -14.437  0.0000E+00  0.0000E+00  0.2400E-01  0.2400E-01
    -14.244  0.0000E+00  0.0000E+00  0.2400E-01  0.2400E-01
    -14.052  0.0000E+00  0.0000E+00  0.2400E-01  0.2400E-01
    -13.859  0.0000E+00  0.0000E+00  0.2400E-01  0.2400E-01
    -13.666  0.0000E+00  0.0000E+00  0.2400E-01  0.2400E-01
    -13.474  0.0000E+00  0.0000E+00  0.2400E-01  0.2400E-01
    -13.281  0.0000E+00  0.0000E+00  0.2400E-01  0.2400E-01
    -13.089  0.3838E-03  0.3838E-03  0.2407E-01  0.2407E-01
    -12.896  0.2037E-01  0.2037E-01  0.2800E-01  0.2800E-01
    -12.703  0.1619E-02  0.1619E-02  0.2831E-01  0.2831E-01
    -12.511  0.1775E-01  0.1775E-01  0.3173E-01  0.3173E-01
    -12.318  0.1398E-02  0.1398E-02  0.3200E-01  0.3200E-01
    -12.125  0.0000E+00  0.0000E+00  0.3200E-01  0.3200E-01
    -11.933  0.0000E+00  0.0000E+00  0.3200E-01  0.3200E-01
    -11.740  0.0000E+00  0.0000E+00  0.3200E-01  0.3200E-01
    -11.547  0.0000E+00  0.0000E+00  0.3200E-01  0.3200E-01
    -11.355  0.0000E+00  0.0000E+00  0.3200E-01  0.3200E-01
    -11.162  0.0000E+00  0.0000E+00  0.3200E-01  0.3200E-01
    -10.970  0.0000E+00  0.0000E+00  0.3200E-01  0.3200E-01
    -10.777  0.0000E+00  0.0000E+00  0.3200E-01  0.3200E-01
    -10.584  0.0000E+00  0.0000E+00  0.3200E-01  0.3200E-01
    -10.392  0.8403E-08  0.8403E-08  0.3200E-01  0.3200E-01
    -10.199  0.1539E-01  0.1539E-01  0.3496E-01  0.3496E-01
    -10.006  0.2044E-01  0.2044E-01  0.3890E-01  0.3890E-01
     -9.814  0.2643E-01  0.2643E-01  0.4400E-01  0.4400E-01
     -9.621  0.0000E+00  0.0000E+00  0.4400E-01  0.4400E-01
     -9.429  0.0000E+00  0.0000E+00  0.4400E-01  0.4400E-01
     -9.236  0.0000E+00  0.0000E+00  0.4400E-01  0.4400E-01
     -9.043  0.0000E+00  0.0000E+00  0.4400E-01  0.4400E-01
     -8.851  0.0000E+00  0.0000E+00  0.4400E-01  0.4400E-01
     -8.658  0.0000E+00  0.0000E+00  0.4400E-01  0.4400E-01
     -8.465  0.1218E-03  0.1218E-03  0.4402E-01  0.4402E-01
     -8.273  0.1967E-01  0.1967E-01  0.4781E-01  0.4781E-01
     -8.080  0.9775E-03  0.9775E-03  0.4800E-01  0.4800E-01
     -7.887  0.0000E+00  0.0000E+00  0.4800E-01  0.4800E-01
     -7.695  0.0000E+00  0.0000E+00  0.4800E-01  0.4800E-01
     -7.502  0.0000E+00  0.0000E+00  0.4800E-01  0.4800E-01
     -7.310  0.0000E+00  0.0000E+00  0.4800E-01  0.4800E-01
     -7.117  0.0000E+00  0.0000E+00  0.4800E-01  0.4800E-01
     -6.924  0.0000E+00  0.0000E+00  0.4800E-01  0.4800E-01
     -6.732  0.0000E+00  0.0000E+00  0.4800E-01  0.4800E-01
     -6.539  0.0000E+00  0.0000E+00  0.4800E-01  0.4800E-01
     -6.346  0.0000E+00  0.0000E+00  0.4800E-01  0.4800E-01
     -6.154  0.1204E-02  0.1204E-02  0.4823E-01  0.4823E-01
     -5.961  0.3988E-02  0.3988E-02  0.4900E-01  0.4900E-01
     -5.769  0.8597E-03  0.8597E-03  0.4917E-01  0.4917E-01
     -5.576  0.1446E-01  0.1446E-01  0.5195E-01  0.5195E-01
     -5.383  0.2493E-03  0.2493E-03  0.5200E-01  0.5200E-01
     -5.191  0.0000E+00  0.0000E+00  0.5200E-01  0.5200E-01
     -4.998  0.0000E+00  0.0000E+00  0.5200E-01  0.5200E-01
     -4.805  0.0000E+00  0.0000E+00  0.5200E-01  0.5200E-01
     -4.613  0.0000E+00  0.0000E+00  0.5200E-01  0.5200E-01
     -4.420  0.0000E+00  0.0000E+00  0.5200E-01  0.5200E-01
     -4.227  0.0000E+00  0.0000E+00  0.5200E-01  0.5200E-01
     -4.035  0.0000E+00  0.0000E+00  0.5200E-01  0.5200E-01
     -3.842  0.0000E+00  0.0000E+00  0.5200E-01  0.5200E-01
     -3.650  0.0000E+00  0.0000E+00  0.5200E-01  0.5200E-01
     -3.457  0.0000E+00  0.0000E+00  0.5200E-01  0.5200E-01
     -3.264  0.6358E-03  0.6358E-03  0.5212E-01  0.5212E-01
     -3.072  0.1494E-01  0.1494E-01  0.5500E-01  0.5500E-01
     -2.879  0.1493E-02  0.1493E-02  0.5529E-01  0.5529E-01
     -2.686  0.1168E-01  0.1168E-01  0.5754E-01  0.5754E-01
     -2.494  0.1249E-01  0.1249E-01  0.5994E-01  0.5994E-01
     -2.301  0.1659E-01  0.1659E-01  0.6314E-01  0.6314E-01
     -2.108  0.4445E-02  0.4445E-02  0.6400E-01  0.6400E-01
     -1.916  0.0000E+00  0.0000E+00  0.6400E-01  0.6400E-01
     -1.723  0.0000E+00  0.0000E+00  0.6400E-01  0.6400E-01
     -1.531  0.4932E-03  0.4932E-03  0.6410E-01  0.6410E-01
     -1.338  0.3380E-01  0.3380E-01  0.7061E-01  0.7061E-01
     -1.145  0.2085E-01  0.2085E-01  0.7463E-01  0.7463E-01
     -0.953  0.7072E-02  0.7072E-02  0.7600E-01  0.7600E-01
     -0.760  0.5403E-16  0.5403E-16  0.7600E-01  0.7600E-01
     -0.567  0.4338E-02  0.4338E-02  0.7684E-01  0.7684E-01
     -0.375  0.1280E-01  0.1280E-01  0.7930E-01  0.7930E-01
     -0.182  0.1073E-01  0.1073E-01  0.8137E-01  0.8137E-01
      0.010  0.2740E-01  0.2740E-01  0.8665E-01  0.8665E-01
      0.203  0.2702E-01  0.2702E-01  0.9185E-01  0.9185E-01
      0.396  0.1932E-01  0.1932E-01  0.9558E-01  0.9558E-01
      0.588  0.2175E-02  0.2175E-02  0.9600E-01  0.9600E-01
      0.781  0.9102E-02  0.9102E-02  0.9775E-01  0.9775E-01
      0.974  0.1979E-01  0.1979E-01  0.1016E+00  0.1016E+00
      1.166  0.2365E-01  0.2365E-01  0.1061E+00  0.1061E+00
      1.359  0.2523E-01  0.2523E-01  0.1110E+00  0.1110E+00
      1.552  0.2948E-01  0.2948E-01  0.1167E+00  0.1167E+00
      1.744  0.1665E-01  0.1665E-01  0.1199E+00  0.1199E+00
      1.937  0.6424E-03  0.6424E-03  0.1200E+00  0.1200E+00
      2.129  0.0000E+00  0.0000E+00  0.1200E+00  0.1200E+00
      2.322  0.0000E+00  0.0000E+00  0.1200E+00  0.1200E+00
      2.515  0.0000E+00  0.0000E+00  0.1200E+00  0.1200E+00
      2.707  0.0000E+00  0.0000E+00  0.1200E+00  0.1200E+00
      2.900  0.0000E+00  0.0000E+00  0.1200E+00  0.1200E+00
      3.093  0.0000E+00  0.0000E+00  0.1200E+00  0.1200E+00
      3.285  0.0000E+00  0.0000E+00  0.1200E+00  0.1200E+00
      3.478  0.0000E+00  0.0000E+00  0.1200E+00  0.1200E+00
      3.671  0.0000E+00  0.0000E+00  0.1200E+00  0.1200E+00
      3.863  0.0000E+00  0.0000E+00  0.1200E+00  0.1200E+00
      4.056  0.0000E+00  0.0000E+00  0.1200E+00  0.1200E+00
      4.248  0.9366E-17  0.9366E-17  0.1200E+00  0.1200E+00
      4.441  0.4213E-02  0.4213E-02  0.1208E+00  0.1208E+00
      4.634  0.9785E-03  0.9785E-03  0.1210E+00  0.1210E+00
      4.826  0.0000E+00  0.0000E+00  0.1210E+00  0.1210E+00
      5.019  0.0000E+00  0.0000E+00  0.1210E+00  0.1210E+00
      5.212  0.2179E-02  0.2179E-02  0.1214E+00  0.1214E+00
      5.404  0.1337E-01  0.1337E-01  0.1240E+00  0.1240E+00
      5.597  0.2215E-04  0.2215E-04  0.1240E+00  0.1240E+00
      5.789  0.3469E-05  0.3469E-05  0.1240E+00  0.1240E+00
      5.982  0.1093E-01  0.1093E-01  0.1261E+00  0.1261E+00
      6.175  0.1270E-01  0.1270E-01  0.1286E+00  0.1286E+00
      6.367  0.7507E-02  0.7507E-02  0.1300E+00  0.1300E+00
      6.560  0.8486E-02  0.8486E-02  0.1316E+00  0.1316E+00
      6.753  0.8371E-02  0.8371E-02  0.1332E+00  0.1332E+00
      6.945  0.1420E-01  0.1420E-01  0.1360E+00  0.1360E+00
      7.138  0.5100E-02  0.5100E-02  0.1370E+00  0.1370E+00
      7.331  0.1718E-02  0.1718E-02  0.1373E+00  0.1373E+00
      7.523  0.8833E-02  0.8833E-02  0.1390E+00  0.1390E+00
      7.716  0.1509E-01  0.1509E-01  0.1419E+00  0.1419E+00
      7.908  0.8737E-02  0.8737E-02  0.1436E+00  0.1436E+00
      8.101  0.1128E-01  0.1128E-01  0.1458E+00  0.1458E+00
      8.294  0.1539E-01  0.1539E-01  0.1487E+00  0.1487E+00
      8.486  0.1750E-01  0.1750E-01  0.1521E+00  0.1521E+00
      8.679  0.1613E-01  0.1613E-01  0.1552E+00  0.1552E+00
      8.872  0.1531E-01  0.1531E-01  0.1582E+00  0.1582E+00
      9.064  0.1543E-01  0.1543E-01  0.1611E+00  0.1611E+00
      9.257  0.1731E-01  0.1731E-01  0.1645E+00  0.1645E+00
      9.449  0.1917E-01  0.1917E-01  0.1682E+00  0.1682E+00
      9.642  0.1632E-01  0.1635E-01  0.1713E+00  0.1713E+00
      9.835  0.1775E-01  0.1756E-01  0.1747E+00  0.1747E+00
     10.027  0.6523E-02  0.6679E-02  0.1760E+00  0.1760E+00
     10.220  0.0000E+00  0.0000E+00  0.1760E+00  0.1760E+00
     10.413  0.0000E+00  0.0000E+00  0.1760E+00  0.1760E+00
     10.605  0.0000E+00  0.0000E+00  0.1760E+00  0.1760E+00
     10.798  0.0000E+00  0.0000E+00  0.1760E+00  0.1760E+00
     10.991  0.0000E+00  0.0000E+00  0.1760E+00  0.1760E+00
     11.183  0.0000E+00  0.0000E+00  0.1760E+00  0.1760E+00
     11.376  0.0000E+00  0.0000E+00  0.1760E+00  0.1760E+00
     11.568  0.0000E+00  0.0000E+00  0.1760E+00  0.1760E+00
     11.761  0.0000E+00  0.0000E+00  0.1760E+00  0.1760E+00
     11.954  0.0000E+00  0.0000E+00  0.1760E+00  0.1760E+00
     12.146  0.0000E+00  0.0000E+00  0.1760E+00  0.1760E+00
     12.339  0.0000E+00  0.0000E+00  0.1760E+00  0.1760E+00
     12.532  0.0000E+00  0.0000E+00  0.1760E+00  0.1760E+00
