       N       E                     dE             d eps       ncg     rms          rms(c)
DAV:   1     0.158796754666E+04    0.15880E+04   -0.11361E+05  3080   0.126E+03
DAV:   2    -0.580923875287E+02   -0.16461E+04   -0.15497E+04  3856   0.361E+02
DAV:   3    -0.228823211914E+03   -0.17073E+03   -0.16874E+03  3760   0.117E+02
DAV:   4    -0.242165721072E+03   -0.13343E+02   -0.13320E+02  4768   0.330E+01
DAV:   5    -0.242382697654E+03   -0.21698E+00   -0.21688E+00  4456   0.444E+00
DAV:   6    -0.242393624984E+03   -0.10927E-01   -0.10926E-01  4648   0.111E+00
DAV:   7    -0.242393994332E+03   -0.36935E-03   -0.36932E-03  4560   0.210E-01
DAV:   8    -0.242394015957E+03   -0.21625E-04   -0.21624E-04  4584   0.616E-02
DAV:   9    -0.242394017356E+03   -0.13990E-05   -0.13991E-05  4504   0.134E-02
DAV:  10    -0.242394017415E+03   -0.58739E-07   -0.58763E-07  2680   0.422E-03    0.644E+01
RMM:  11    -0.236333947378E+03    0.60601E+01   -0.47364E+01  2816   0.194E+01    0.331E+01
RMM:  12    -0.256196854319E+03   -0.19863E+02   -0.21792E+01  2958   0.135E+01    0.203E+01
RMM:  13    -0.258679848915E+03   -0.24830E+01   -0.89856E+00  2897   0.541E+00    0.671E+00
RMM:  14    -0.258882174936E+03   -0.20233E+00   -0.20036E+00  3757   0.340E+00    0.323E+00
RMM:  15    -0.258854909229E+03    0.27266E-01   -0.32531E-01  3047   0.165E+00    0.706E-01
RMM:  16    -0.258874790074E+03   -0.19881E-01   -0.11020E-01  3101   0.902E-01    0.314E-01
RMM:  17    -0.258881020836E+03   -0.62308E-02   -0.26383E-02  3464   0.462E-01    0.173E-01
RMM:  18    -0.258882264409E+03   -0.12436E-02   -0.68650E-03  3407   0.209E-01    0.912E-02
RMM:  19    -0.258882787929E+03   -0.52352E-03   -0.19376E-03  3845   0.111E-01    0.439E-02
RMM:  20    -0.258882892028E+03   -0.10410E-03   -0.52054E-04  3827   0.499E-02    0.250E-02
RMM:  21    -0.258882911359E+03   -0.19331E-04   -0.15090E-04  3463   0.276E-02    0.104E-02
RMM:  22    -0.258882917938E+03   -0.65788E-05   -0.49728E-05  3791   0.154E-02    0.592E-03
RMM:  23    -0.258882917910E+03    0.27809E-07   -0.14079E-05  2984   0.819E-03    0.278E-03
RMM:  24    -0.258882917329E+03    0.58101E-06   -0.49767E-06  2220   0.604E-03
   1 F= -.27241463E+03 E0= -.27241463E+03  d E =-.272415E+03  mag=    -0.0004
       N       E                     dE             d eps       ncg     rms          rms(c)
DAV:   1    -0.258882917328E+03    0.58225E-06   -0.46796E-05  3312   0.136E-02    0.182E-03
RMM:   2    -0.258882917519E+03   -0.19122E-06   -0.19917E-06  1892   0.512E-03
   2 F= -.27241463E+03 E0= -.27241463E+03  d E =-.133272E-05  mag=    -0.0001
       N       E                     dE             d eps       ncg     rms          rms(c)
DAV:   1    -0.258882917265E+03    0.63401E-07   -0.15370E-05  3144   0.800E-03    0.836E-04
RMM:   2    -0.258882917276E+03   -0.11796E-07   -0.85694E-07  1854   0.350E-03
   3 F= -.27241463E+03 E0= -.27241463E+03  d E =-.170758E-05  mag=    -0.0000
       N       E                     dE             d eps       ncg     rms          rms(c)
DAV:   1    -0.258882916249E+03    0.10156E-05   -0.52742E-05  3384   0.140E-02    0.122E-03
RMM:   2    -0.258882916365E+03   -0.11638E-06   -0.22903E-06  1911   0.561E-03
   4 F= -.27241463E+03 E0= -.27241463E+03  d E =-.203381E-05  mag=    -0.0000
       N       E                     dE             d eps       ncg     rms          rms(c)
DAV:   1    -0.258882915608E+03    0.64100E-06   -0.10909E-04  3424   0.180E-02    0.155E-03
RMM:   2    -0.258882915894E+03   -0.28640E-06   -0.34482E-06  1903   0.675E-03
   5 F= -.27241463E+03 E0= -.27241463E+03  d E =-.869994E-06  mag=    -0.0000
       N       E                     dE             d eps       ncg     rms          rms(c)
DAV:   1    -0.258882915268E+03    0.34041E-06   -0.10784E-04  3432   0.180E-02    0.150E-03
RMM:   2    -0.258882915564E+03   -0.29651E-06   -0.35297E-06  1930   0.704E-03
   6 F= -.27241463E+03 E0= -.27241463E+03  d E =-.185557E-05  mag=    -0.0000
       N       E                     dE             d eps       ncg     rms          rms(c)
DAV:   1    -0.258882913199E+03    0.20681E-05   -0.41575E-04  3416   0.344E-02    0.304E-03
RMM:   2    -0.258882914442E+03   -0.12427E-05   -0.13854E-05  3022   0.126E-02    0.929E-04
RMM:   3    -0.258882914624E+03   -0.18144E-06   -0.32320E-06  1982   0.568E-03
   7 F= -.27241463E+03 E0= -.27241463E+03  d E =-.354627E-05  mag=    -0.0000
       N       E                     dE             d eps       ncg     rms          rms(c)
DAV:   1    -0.258882915168E+03   -0.72605E-06   -0.22056E-04  3416   0.240E-02    0.209E-03
RMM:   2    -0.258882915887E+03   -0.71908E-06   -0.71142E-06  2320   0.968E-03
   8 F= -.27241463E+03 E0= -.27241463E+03  d E =-.141587E-05  mag=    -0.0000
