 vasp.6.4.1 05Apr23 (build Jun 07 2023 15:38:11) complex                        
  
 executed on             LinuxIFC date 2023.10.23  15:05:20
 running  128 mpi-ranks, with    1 threads/rank, on    1 nodes
 distrk:  each k-point on  128 cores,    1 groups
 distr:  one band on NCORE=  32 cores,    4 groups


--------------------------------------------------------------------------------------------------------


 INCAR:
   GGA = PE
   PREC = Accu
   EDIFF = 1.e-6
   EDIFFG = -1.e-3
   ENCUT = 520.
   NELM = 100
   NELMDL = -10
   LASPH = .TRUE.
   LREAL = Auto
   LMAXMIX = 4
   ISPIN = 2
   LDIAG = .TRUE.
   LPLANE = .TRUE.
   IVDW = 12
   SIGMA = 0.03
   ISMEAR = 0
   NSW = 1000    number of steps for IOM
   IBRION = 2    ionic relax: 0-MD 1-quasi-New 2-CG
   ISIF = 2    ionic relaxation + stress tensor calcn.
   LCHARG = .FALSE.
   LWAVE = .FALSE.
   ALGO = F
   KPAR = 1
   NPAR = 4
   POTIM = 0.2

 POTCAR:    PAW_PBE Li_sv_GW 25Mar2010            
 POTCAR:    PAW_PBE P_GW 19Mar2012                
 POTCAR:    PAW_PBE S_GW 19Mar2012                
 POTCAR:    PAW_PBE Cl_GW 19Mar2012               
 -----------------------------------------------------------------------------
|                                                                             |
|           W    W    AA    RRRRR   N    N  II  N    N   GGGG   !!!           |
|           W    W   A  A   R    R  NN   N  II  NN   N  G    G  !!!           |
|           W    W  A    A  R    R  N N  N  II  N N  N  G       !!!           |
|           W WW W  AAAAAA  RRRRR   N  N N  II  N  N N  G  GGG   !            |
|           WW  WW  A    A  R   R   N   NN  II  N   NN  G    G                |
|           W    W  A    A  R    R  N    N  II  N    N   GGGG   !!!           |
|                                                                             |
|     You use a magnetic or noncollinear calculation, but did not specify     |
|     the initial magnetic moment with the MAGMOM tag. Note that a            |
|     default of 1 will be used for all atoms. This ferromagnetic setup       |
|     may break the symmetry of the crystal, in particular it may rule        |
|     out finding an antiferromagnetic solution. Thence, we recommend         |
|     setting the initial magnetic moment manually or verifying carefully     |
|     that this magnetic setup is desired.                                    |
|                                                                             |
 -----------------------------------------------------------------------------

 POTCAR:    PAW_PBE Li_sv_GW 25Mar2010            
   SHA256 =  24a6ace15a582615486b36ce4dc781b048409f4015b7684ed1273ae395fa2fdc Li_sv_GW/POTCAR       
   COPYR  = (c) Copyright 25Mar2010 Georg Kresse                                                    
   COPYR  = This file is part of the software VASP. Any use, copying, and all other rights are regul
   COPYR  = If you do not have a valid VASP license, you may not use, copy or distribute this file. 
   VRHFIN =Li: 1s2s                                                                                 
   LEXCH  = PE                                                                                      
   EATOM  =   200.9989 eV,   14.7730 Ry                                                             
                                                                                                    
   TITEL  = PAW_PBE Li_sv_GW 25Mar2010                                                              
   LULTRA =        F    use ultrasoft PP ?                                                          
   IUNSCR =        0    unscreen: 0-lin 1-nonlin 2-no                                               
   RPACOR =    0.000    partial core radius                                                         
   POMASS =    7.010; ZVAL   =    3.000    mass and valenz                                          
   RCORE  =    1.500    outmost cutoff radius                                                       
   RWIGS  =    1.600; RWIGS  =    0.847    wigner-seitz radius (au A)                               
   ENMAX  =  433.699; ENMIN  =  325.274 eV                                                          
   RCLOC  =    1.003    cutoff for local pot                                                        
   LCOR   =        T    correct aug charges                                                         
   LPAW   =        T    paw PP                                                                      
   EAUG   = 1041.699                                                                                
   RMAX   =    1.536    core radius for proj-oper                                                   
   RAUG   =    1.300    factor for augmentation sphere                                              
   RDEP   =    1.520    radius for radial grids                                                     
   RDEPT  =    1.300    core radius for aug-charge                                                  
                                                                                                    
   Atomic configuration                                                                             
    4 entries                                                                                       
     n  l   j            E        occ.                                                              
     1  0  0.50       -53.3604   2.0000                                                             
     1  0  0.50       -52.0001   0.0000                                                             
     2  1  0.50        -1.5636   1.0000                                                             
     3  2  1.50        -1.3606   0.0000                                                             
   Description                                                                                      
     l       E           TYP  RCUT    TYP  RCUT                                                     
     0    -53.3603633     23  1.200                                                                 
     0    -52.0001064     23  1.200                                                                 
     0    176.8757380     23  1.300                                                                 
     1     -1.5635925     23  1.500                                                                 
     1    108.8466080     23  1.500                                                                 
     2     81.6349560     23  1.500                                                                 
  local pseudopotential read in
  kinetic energy density of atom read in
  atomic valenz-charges read in
  non local Contribution for L=           0  read in
    real space projection operators read in
  non local Contribution for L=           0  read in
    real space projection operators read in
  non local Contribution for L=           0  read in
    real space projection operators read in
  non local Contribution for L=           1  read in
    real space projection operators read in
  non local Contribution for L=           1  read in
    real space projection operators read in
  non local Contribution for L=           2  read in
    real space projection operators read in
    PAW grid and wavefunctions read in
 
   number of l-projection  operators is LMAX  =           6
   number of lm-projection operators is LMMAX =          14
 
 POTCAR:    PAW_PBE P_GW 19Mar2012                
   SHA256 =  715c28f2291d37b61637ce89646c59f66f71c8b8d8bfba631e5feb9f7b42defe P_GW/POTCAR           
   COPYR  = (c) Copyright 19Mar2012 Georg Kresse                                                    
   COPYR  = This file is part of the software VASP. Any use, copying, and all other rights are regul
   COPYR  = If you do not have a valid VASP license, you may not use, copy or distribute this file. 
   VRHFIN =P : s2p3                                                                                 
   LEXCH  = PE                                                                                      
   EATOM  =   176.0430 eV,   12.9388 Ry                                                             
                                                                                                    
   TITEL  = PAW_PBE P_GW 19Mar2012                                                                  
   LULTRA =        F    use ultrasoft PP ?                                                          
   IUNSCR =        1    unscreen: 0-lin 1-nonlin 2-no                                               
   RPACOR =    1.400    partial core radius                                                         
   POMASS =   30.974; ZVAL   =    5.000    mass and valenz                                          
   RCORE  =    2.000    outmost cutoff radius                                                       
   RWIGS  =    1.900; RWIGS  =    1.005    wigner-seitz radius (au A)                               
   ENMAX  =  255.040; ENMIN  =  191.280 eV                                                          
   ICORE  =        3    local potential                                                             
   LCOR   =        T    correct aug charges                                                         
   LPAW   =        T    paw PP                                                                      
   EAUG   =  499.732                                                                                
   DEXC   =    0.000                                                                                
   RMAX   =    2.047    core radius for proj-oper                                                   
   RAUG   =    1.300    factor for augmentation sphere                                              
   RDEP   =    2.059    radius for radial grids                                                     
   RDEPT  =    1.900    core radius for aug-charge                                                  
                                                                                                    
   Atomic configuration                                                                             
    7 entries                                                                                       
     n  l   j            E        occ.                                                              
     1  0  0.50     -2084.0982   2.0000                                                             
     2  0  0.50      -173.9859   2.0000                                                             
     2  1  1.50      -124.4865   6.0000                                                             
     3  0  0.50       -13.9692   2.0000                                                             
     3  1  0.50        -5.5067   3.0000                                                             
     3  2  1.50        -6.8029   0.0000                                                             
     4  3  2.50        -1.3606   0.0000                                                             
   Description                                                                                      
     l       E           TYP  RCUT    TYP  RCUT                                                     
     0    -13.9691528     23  1.900                                                                 
     0    102.0436950     23  1.900                                                                 
     1     -5.5066939     23  1.900                                                                 
     1    102.0436950     23  1.900                                                                 
     2     -8.1634956     23  2.000                                                                 
     2     81.6349560     23  2.000                                                                 
     3     27.2116520     23  2.000                                                                 
  local pseudopotential read in
  partial core-charges read in
  partial kinetic energy density read in
  kinetic energy density of atom read in
  atomic valenz-charges read in
  non local Contribution for L=           0  read in
    real space projection operators read in
  non local Contribution for L=           0  read in
    real space projection operators read in
  non local Contribution for L=           1  read in
    real space projection operators read in
  non local Contribution for L=           1  read in
    real space projection operators read in
  non local Contribution for L=           2  read in
    real space projection operators read in
  non local Contribution for L=           2  read in
    real space projection operators read in
    PAW grid and wavefunctions read in
 
   number of l-projection  operators is LMAX  =           6
   number of lm-projection operators is LMMAX =          18
 
 POTCAR:    PAW_PBE S_GW 19Mar2012                
   SHA256 =  357db9cfb0783579b2eebe03197c2d807131fea8ea663b1fcfb6ce2fa75af011 S_GW/POTCAR           
   COPYR  = (c) Copyright 19Mar2012 Georg Kresse                                                    
   COPYR  = This file is part of the software VASP. Any use, copying, and all other rights are regul
   COPYR  = If you do not have a valid VASP license, you may not use, copy or distribute this file. 
   VRHFIN =S : s2p4                                                                                 
   LEXCH  = PE                                                                                      
   EATOM  =   276.8230 eV,   20.3459 Ry                                                             
                                                                                                    
   TITEL  = PAW_PBE S_GW 19Mar2012                                                                  
   LULTRA =        F    use ultrasoft PP ?                                                          
   IUNSCR =        1    unscreen: 0-lin 1-nonlin 2-no                                               
   RPACOR =    1.400    partial core radius                                                         
   POMASS =   32.066; ZVAL   =    6.000    mass and valenz                                          
   RCORE  =    1.900    outmost cutoff radius                                                       
   RWIGS  =    1.900; RWIGS  =    1.005    wigner-seitz radius (au A)                               
   ENMAX  =  258.689; ENMIN  =  194.016 eV                                                          
   ICORE  =        3    local potential                                                             
   LCOR   =        T    correct aug charges                                                         
   LPAW   =        T    paw PP                                                                      
   EAUG   =  488.319                                                                                
   DEXC   =    0.000                                                                                
   RMAX   =    1.942    core radius for proj-oper                                                   
   RAUG   =    1.300    factor for augmentation sphere                                              
   RDEP   =    1.954    radius for radial grids                                                     
   RDEPT  =    1.900    core radius for aug-charge                                                  
                                                                                                    
   Atomic configuration                                                                             
    7 entries                                                                                       
     n  l   j            E        occ.                                                              
     1  0  0.50     -2405.8406   2.0000                                                             
     2  0  0.50      -211.7007   2.0000                                                             
     2  1  1.50      -156.4958   6.0000                                                             
     3  0  0.50       -17.2562   2.0000                                                             
     3  1  0.50        -7.0085   4.0000                                                             
     3  2  1.50        -8.1635   0.0000                                                             
     4  3  2.50        -1.3606   0.0000                                                             
   Description                                                                                      
     l       E           TYP  RCUT    TYP  RCUT                                                     
     0    -17.2561639     23  1.700                                                                 
     0     88.4378690     23  1.900                                                                 
     1     -7.0085399     23  1.900                                                                 
     1     88.4378690     23  1.900                                                                 
     2    -10.8846608     23  1.900                                                                 
     2     54.4233040     23  1.900                                                                 
     3     27.2116520     23  1.800                                                                 
  local pseudopotential read in
  partial core-charges read in
  partial kinetic energy density read in
  kinetic energy density of atom read in
  atomic valenz-charges read in
  non local Contribution for L=           0  read in
    real space projection operators read in
  non local Contribution for L=           0  read in
    real space projection operators read in
  non local Contribution for L=           1  read in
    real space projection operators read in
  non local Contribution for L=           1  read in
    real space projection operators read in
  non local Contribution for L=           2  read in
    real space projection operators read in
  non local Contribution for L=           2  read in
    real space projection operators read in
    PAW grid and wavefunctions read in
 
   number of l-projection  operators is LMAX  =           6
   number of lm-projection operators is LMMAX =          18
 
 POTCAR:    PAW_PBE Cl_GW 19Mar2012               
   SHA256 =  3ef3b3169d6a9a89979f58b4cf17d927a58518fc660d8883d88cacaee8175441 Cl_GW/POTCAR          
   COPYR  = (c) Copyright 19Mar2012 Georg Kresse                                                    
   COPYR  = This file is part of the software VASP. Any use, copying, and all other rights are regul
   COPYR  = If you do not have a valid VASP license, you may not use, copy or distribute this file. 
   VRHFIN =Cl: s2p5                                                                                 
   LEXCH  = PE                                                                                      
   EATOM  =   409.7259 eV,   30.1140 Ry                                                             
                                                                                                    
   TITEL  = PAW_PBE Cl_GW 19Mar2012                                                                 
   LULTRA =        F    use ultrasoft PP ?                                                          
   IUNSCR =        1    unscreen: 0-lin 1-nonlin 2-no                                               
   RPACOR =    1.400    partial core radius                                                         
   POMASS =   35.453; ZVAL   =    7.000    mass and valenz                                          
   RCORE  =    1.900    outmost cutoff radius                                                       
   RWIGS  =    1.900; RWIGS  =    1.005    wigner-seitz radius (au A)                               
   ENMAX  =  262.472; ENMIN  =  196.854 eV                                                          
   ICORE  =        3    local potential                                                             
   LCOR   =        T    correct aug charges                                                         
   LPAW   =        T    paw PP                                                                      
   EAUG   =  456.703                                                                                
   DEXC   =    0.000                                                                                
   RMAX   =    1.945    core radius for proj-oper                                                   
   RAUG   =    1.300    factor for augmentation sphere                                              
   RDEP   =    2.020    radius for radial grids                                                     
   RDEPT  =    1.900    core radius for aug-charge                                                  
                                                                                                    
   Atomic configuration                                                                             
    7 entries                                                                                       
     n  l   j            E        occ.                                                              
     1  0  0.50     -2751.1850   2.0000                                                             
     2  0  0.50      -252.6861   2.0000                                                             
     2  1  1.50      -191.6157   6.0000                                                             
     3  0  0.50       -20.6916   2.0000                                                             
     3  1  0.50        -8.5949   5.0000                                                             
     3  2  1.50        -9.5241   0.0000                                                             
     4  3  2.50        -9.5241   0.0000                                                             
   Description                                                                                      
     l       E           TYP  RCUT    TYP  RCUT                                                     
     0    -20.6915657     23  1.700                                                                 
     0     95.2407820     23  1.800                                                                 
     1     -8.5948577     23  1.900                                                                 
     1     95.2407820     23  1.900                                                                 
     2    -10.8846608     23  1.900                                                                 
     2     54.4233040     23  1.900                                                                 
     3     27.2116520     23  1.900                                                                 
  local pseudopotential read in
  partial core-charges read in
  partial kinetic energy density read in
  kinetic energy density of atom read in
  atomic valenz-charges read in
  non local Contribution for L=           0  read in
    real space projection operators read in
  non local Contribution for L=           0  read in
    real space projection operators read in
  non local Contribution for L=           1  read in
    real space projection operators read in
  non local Contribution for L=           1  read in
    real space projection operators read in
  non local Contribution for L=           2  read in
    real space projection operators read in
  non local Contribution for L=           2  read in
    real space projection operators read in
    PAW grid and wavefunctions read in
 
   number of l-projection  operators is LMAX  =           6
   number of lm-projection operators is LMMAX =          18
 
 Optimization of the real space projectors (new method)

 maximal supplied QI-value         = 25.13
 optimisation between [QCUT,QGAM] = [ 11.56, 23.12] = [ 37.43,149.72] Ry 
 Optimized for a Real-space Cutoff    1.28 Angstroem

   l    n(q)    QCUT    max X(q) W(low)/X(q) W(high)/X(q)  e(spline) 
   0      9    11.561    87.733    0.11E-03    0.32E-04    0.56E-06
   0      9    11.561    82.800    0.11E-03    0.35E-04    0.56E-06
   0      9    11.561     2.509    0.22E-03    0.42E-04    0.79E-06
   1      8    11.561    12.580    0.94E-04    0.26E-03    0.21E-06
   1      8    11.561     1.319    0.33E-04    0.15E-03    0.19E-06
   2      8    11.561     1.993    0.36E-04    0.89E-04    0.26E-06
 Optimization of the real space projectors (new method)

 maximal supplied QI-value         = 18.90
 optimisation between [QCUT,QGAM] = [ 11.53, 23.24] = [ 37.21,151.29] Ry 
 Optimized for a Real-space Cutoff    1.21 Angstroem

   l    n(q)    QCUT    max X(q) W(low)/X(q) W(high)/X(q)  e(spline) 
   0      8    11.527     8.355    0.73E-04    0.70E-04    0.26E-07
   0      8    11.527     1.401    0.17E-03    0.17E-03    0.63E-07
   1      8    11.527     4.747    0.13E-03    0.17E-03    0.11E-06
   1      8    11.527     2.025    0.16E-03    0.18E-03    0.12E-06
   2      7    11.527     3.169    0.51E-04    0.25E-03    0.60E-07
   2      7    11.527     3.441    0.82E-04    0.22E-03    0.14E-06
 Optimization of the real space projectors (new method)

 maximal supplied QI-value         = 19.84
 optimisation between [QCUT,QGAM] = [ 11.51, 23.22] = [ 37.09,150.92] Ry 
 Optimized for a Real-space Cutoff    1.49 Angstroem

   l    n(q)    QCUT    max X(q) W(low)/X(q) W(high)/X(q)  e(spline) 
   0     10    11.508     7.541    0.34E-04    0.13E-04    0.69E-07
   0     10    11.508     1.809    0.49E-04    0.27E-04    0.14E-06
   1     10    11.508     4.107    0.27E-05    0.41E-05    0.14E-06
   1     10    11.508     2.196    0.26E-05    0.25E-05    0.22E-06
   2      9    11.508     4.265    0.18E-03    0.11E-03    0.81E-06
   2      9    11.508     1.925    0.97E-04    0.76E-04    0.47E-06
 Optimization of the real space projectors (new method)

 maximal supplied QI-value         = 19.84
 optimisation between [QCUT,QGAM] = [ 11.51, 23.22] = [ 37.09,150.92] Ry 
 Optimized for a Real-space Cutoff    1.21 Angstroem

   l    n(q)    QCUT    max X(q) W(low)/X(q) W(high)/X(q)  e(spline) 
   0      8    11.508     6.761    0.57E-04    0.57E-04    0.35E-07
   0      8    11.508     1.642    0.14E-03    0.14E-03    0.91E-07
   1      8    11.508     3.519    0.20E-04    0.72E-04    0.47E-07
   1      8    11.508     2.150    0.27E-04    0.11E-03    0.89E-07
   2      7    11.508     2.976    0.19E-03    0.33E-03    0.16E-06
   2      7    11.508     1.494    0.14E-03    0.29E-03    0.14E-06
  PAW_PBE Li_sv_GW 25Mar2010            :
 energy of atom  1       EATOM= -200.9989
 kinetic energy error for atom=    0.0127 (will be added to EATOM!!)
  PAW_PBE P_GW 19Mar2012                :
 energy of atom  2       EATOM= -176.0430
 kinetic energy error for atom=    0.0011 (will be added to EATOM!!)
  PAW_PBE S_GW 19Mar2012                :
 energy of atom  3       EATOM= -276.8230
 kinetic energy error for atom=    0.0024 (will be added to EATOM!!)
  PAW_PBE Cl_GW 19Mar2012               :
 energy of atom  4       EATOM= -409.7259
 kinetic energy error for atom=    0.0030 (will be added to EATOM!!)
 
 
 POSCAR: Li24 P4 S20 Cl4
  positions in direct lattice
  velocities in cartesian coordinates
 exchange correlation table for  LEXCH =        8
   RHO(1)=    0.500       N(1)  =     2000
   RHO(2)=  100.500       N(2)  =     4000

 VTST: version 4.1, (05/19/21)

 CHAIN: initializing optimizer
 
 OPT: Using VASP Conjugate-Gradient optimizer
 CHAIN: Read ICHAIN            0
 
 POSCAR: Li24 P4 S20 Cl4
  positions in direct lattice
  velocities in cartesian coordinates
 


--------------------------------------------------------------------------------------------------------


 ion  position               nearest neighbor table
   1  0.976  0.192  0.199-
   2  0.977  0.706  0.700-
   3  0.013  0.208  0.784-
   4  0.020  0.677  0.277-
   5  0.176  0.452  0.659-
   6  0.328  0.679  0.009-
   7  0.786  0.201  0.006-
   8  0.819  0.848  0.947-
   9  0.168  0.953  0.168-
  10  0.202  0.015  0.822-
  11  0.702  0.996  0.662-
  12  0.695  0.042  0.315-
  13  0.225  0.720  0.470-
  14  0.326  0.145  0.531-
  15  0.787  0.700  0.500-
  16  0.834  0.344  0.448-
  17  0.276  0.301  0.971-
  18  0.292  0.507  0.225-
  19  0.695  0.487  0.160-
  20  0.683  0.552  0.805-
  21  0.473  0.312  0.776-
  22  0.466  0.823  0.295-
  23  0.516  0.272  0.198-
  24  0.517  0.799  0.663-
  25  0.504  0.491  0.489-  42 2.04  44 2.05  41 2.06  43 2.06
  26  0.499  0.997  0.984-  38 2.05  40 2.05  37 2.06  39 2.06
  27  0.997  0.507  0.985-  35 2.04  33 2.05  34 2.05  36 2.06
  28  0.008  0.003  0.483-  30 2.04  32 2.05  29 2.06  31 2.06
  29  0.124  0.886  0.618-  28 2.06
  30  0.141  0.113  0.361-  28 2.04
  31  0.888  0.882  0.356-  28 2.06
  32  0.883  0.139  0.589-  28 2.05
  33  0.871  0.643  0.088-  27 2.05
  34  0.869  0.389  0.862-  27 2.05
  35  0.134  0.610  0.862-  27 2.04
  36  0.104  0.386  0.124-  27 2.06
  37  0.613  0.125  0.857-  26 2.06
  38  0.630  0.890  0.112-  26 2.05
  39  0.363  0.106  0.104-  26 2.06
  40  0.387  0.864  0.863-  26 2.05
  41  0.606  0.619  0.354-  25 2.06
  42  0.643  0.389  0.612-  25 2.04
  43  0.379  0.602  0.621-  25 2.06
  44  0.380  0.353  0.386-  25 2.05
  45  0.748  0.769  0.728-
  46  0.750  0.262  0.234-
  47  0.250  0.738  0.233-
  48  0.247  0.238  0.743-
  49  0.993  0.035  0.984-
  50  0.998  0.544  0.494-
  51  0.515  0.981  0.487-
  52  0.481  0.468  0.005-
 
  LATTYP: Found a simple cubic cell.
 ALAT       =     9.6706694955
  
  Lattice vectors:
  
 A1 = (   9.6706694955,   0.0000000000,   0.0000000000)
 A2 = (   0.0000000000,   9.6706694955,   0.0000000000)
 A3 = (   0.0000000000,   0.0000000000,   9.6706694955)


Analysis of symmetry for initial positions (statically):
=====================================================================
 Subroutine PRICEL returns:
 Original cell was already a primitive cell.
 

 Routine SETGRP: Setting up the symmetry group for a 
 simple cubic supercell.


 Subroutine GETGRP returns: Found  1 space group operations
 (whereof  1 operations were pure point group operations)
 out of a pool of 48 trial point group operations.


The static configuration has the point symmetry C_1 .


Analysis of symmetry for dynamics (positions and initial velocities):
=====================================================================
 Subroutine PRICEL returns:
 Original cell was already a primitive cell.
 

 Routine SETGRP: Setting up the symmetry group for a 
 simple cubic supercell.


 Subroutine GETGRP returns: Found  1 space group operations
 (whereof  1 operations were pure point group operations)
 out of a pool of 48 trial point group operations.


The dynamic configuration has the point symmetry C_1 .


Analysis of structural, dynamic, and magnetic symmetry:
=====================================================================
 Subroutine PRICEL returns:
 Original cell was already a primitive cell.
 

 Routine SETGRP: Setting up the symmetry group for a 
 simple cubic supercell.


 Subroutine GETGRP returns: Found  1 space group operations
 (whereof  1 operations were pure point group operations)
 out of a pool of 48 trial point group operations.


The overall configuration has the point symmetry C_1 .


 Subroutine INISYM returns: Found  1 space group operations
 (whereof  1 operations are pure point group operations),
 and found     1 'primitive' translations


----------------------------------------------------------------------------------------

                                     Primitive cell                                     

  volume of cell :     904.4189

  direct lattice vectors                    reciprocal lattice vectors
     9.670669496  0.000000000  0.000000000     0.103405457  0.000000000  0.000000000
     0.000000000  9.670669496  0.000000000     0.000000000  0.103405457  0.000000000
     0.000000000  0.000000000  9.670669496     0.000000000  0.000000000  0.103405457

  length of vectors
     9.670669496  9.670669496  9.670669496     0.103405457  0.103405457  0.103405457

  position of ions in fractional coordinates (direct lattice)
     0.976089902  0.191865952  0.199094036
     0.976683586  0.705611619  0.699965210
     0.013210965  0.208372774  0.784053480
     0.020238539  0.676752273  0.277187201
     0.176494543  0.451575088  0.659149607
     0.328109183  0.678767730  0.008800403
     0.785942176  0.200571270  0.005983335
     0.818723675  0.848123059  0.947138418
     0.168402974  0.952609261  0.167618038
     0.201625042  0.014681284  0.821688509
     0.702029745  0.996279155  0.661977472
     0.695050561  0.041541354  0.315176896
     0.225054366  0.720088909  0.469636766
     0.326445256  0.144709883  0.530940027
     0.787000518  0.700118627  0.500324367
     0.834107507  0.344079764  0.448456944
     0.276274563  0.301011211  0.970728763
     0.291781530  0.507474021  0.225344423
     0.695271412  0.486709269  0.159580480
     0.683122356  0.552326353  0.804873697
     0.472844264  0.311950061  0.775984651
     0.466334617  0.823182493  0.295136853
     0.516138094  0.271785009  0.197512892
     0.516902195  0.798977095  0.663409688
     0.503810145  0.490771633  0.489043321
     0.499465147  0.996653326  0.983979903
     0.996653199  0.506657682  0.984715704
     0.007788265  0.002512658  0.483364564
     0.124034045  0.886448729  0.618449600
     0.140554165  0.112858788  0.361360001
     0.887696033  0.881940192  0.355708131
     0.882981973  0.138532498  0.588595190
     0.871098343  0.643227464  0.087733140
     0.868913728  0.388995601  0.862368685
     0.134458785  0.609660974  0.861953987
     0.104283093  0.386365720  0.123732607
     0.612615672  0.124668079  0.857350572
     0.629705737  0.890311083  0.112396608
     0.362807859  0.106430188  0.104491824
     0.386803473  0.863801267  0.863177137
     0.606251904  0.619184302  0.353972325
     0.642980473  0.389400163  0.611613325
     0.378577492  0.602299703  0.620556007
     0.380036581  0.352677767  0.386242834
     0.748309192  0.768837922  0.727627945
     0.750401264  0.262477368  0.234041589
     0.250012524  0.738049192  0.233324925
     0.246870984  0.238212365  0.742644154
     0.993323530  0.034711403  0.984418225
     0.997600194  0.543722389  0.494238473
     0.514873208  0.981183517  0.487371237
     0.480516950  0.467535984  0.005049281

  ion indices of the primitive-cell ions
   primitive index   ion index
                 1           1
                 2           2
                 3           3
                 4           4
                 5           5
                 6           6
                 7           7
                 8           8
                 9           9
                10          10
                11          11
                12          12
                13          13
                14          14
                15          15
                16          16
                17          17
                18          18
                19          19
                20          20
                21          21
                22          22
                23          23
                24          24
                25          25
                26          26
                27          27
                28          28
                29          29
                30          30
                31          31
                32          32
                33          33
                34          34
                35          35
                36          36
                37          37
                38          38
                39          39
                40          40
                41          41
                42          42
                43          43
                44          44
                45          45
                46          46
                47          47
                48          48
                49          49
                50          50
                51          51
                52          52

----------------------------------------------------------------------------------------

 
 
 KPOINTS: Automatic mesh                          

Automatic generation of k-mesh.
 Grid dimensions read from file:
 generate k-points for:    2    2    2

 Generating k-lattice:

  Cartesian coordinates                     Fractional coordinates (reciprocal lattice)
     0.051702729  0.000000000  0.000000000     0.500000000  0.000000000  0.000000000
     0.000000000  0.051702729  0.000000000     0.000000000  0.500000000  0.000000000
     0.000000000  0.000000000  0.051702729     0.000000000  0.000000000  0.500000000

  Length of vectors
     0.051702729  0.051702729  0.051702729

  Shift w.r.t. Gamma in fractional coordinates (k-lattice)
     0.500000000  0.500000000  0.500000000

 
 Subroutine IBZKPT returns following result:
 ===========================================
 
 Found      4 irreducible k-points:
 
 Following reciprocal coordinates:
            Coordinates               Weight
  0.250000  0.250000  0.250000      2.000000
 -0.250000  0.250000  0.250000      2.000000
 -0.250000 -0.250000  0.250000      2.000000
  0.250000 -0.250000  0.250000      2.000000
 
 Following cartesian coordinates:
            Coordinates               Weight
  0.025851  0.025851  0.025851      2.000000
 -0.025851  0.025851  0.025851      2.000000
 -0.025851 -0.025851  0.025851      2.000000
  0.025851 -0.025851  0.025851      2.000000
 


--------------------------------------------------------------------------------------------------------




 Dimension of arrays:
   k-points           NKPTS =      4   k-points in BZ     NKDIM =      4   number of bands    NBANDS=    176
   number of dos      NEDOS =    301   number of ions     NIONS =     52
   non local maximal  LDIM  =      6   non local SUM 2l+1 LMDIM =     18
   total plane-waves  NPLWV = 373248
   max r-space proj   IRMAX =   5758   max aug-charges    IRDMAX=  17615
   dimension x,y,z NGX =    72 NGY =   72 NGZ =   72
   dimension x,y,z NGXF=   144 NGYF=  144 NGZF=  144
   support grid    NGXF=   144 NGYF=  144 NGZF=  144
   ions per type =              24   4  20   4
   NGX,Y,Z   is equivalent  to a cutoff of  12.38, 12.38, 12.38 a.u.
   NGXF,Y,Z  is equivalent  to a cutoff of  24.75, 24.75, 24.75 a.u.

 SYSTEM =  unknown system                          
 POSCAR =  Li24 P4 S20 Cl4                         

 Startparameter for this run:
   NWRITE =      2    write-flag & timer
   PREC   = accu      normal or accurate (medium, high low for compatibility)
   ISTART =      0    job   : 0-new  1-cont  2-samecut
   ICHARG =      2    charge: 1-file 2-atom 10-const
   ISPIN  =      2    spin polarized calculation?
   LNONCOLLINEAR =      F non collinear calculations
   LSORBIT =      F    spin-orbit coupling
   INIWAV =      1    electr: 0-lowe 1-rand  2-diag
   LASPH  =      T    aspherical Exc in radial PAW
 Electronic Relaxation 1
   ENCUT  =  520.0 eV  38.22 Ry    6.18 a.u.  17.98 17.98 17.98*2*pi/ulx,y,z
   ENINI  =  520.0     initial cutoff
   ENAUG  = 1041.7 eV  augmentation charge cutoff
   NELM   =    100;   NELMIN=  2; NELMDL=-10     # of ELM steps 
   EDIFF  = 0.1E-05   stopping-criterion for ELM
   LREAL  =      T    real-space projection
   NLSPLINE    = F    spline interpolate recip. space projectors
   LCOMPAT=      F    compatible to vasp.4.4
   GGA_COMPAT  = T    GGA compatible to vasp.4.4-vasp.4.6
   LMAXPAW     = -100 max onsite density
   LMAXMIX     =    4 max onsite mixed and CHGCAR
   VOSKOWN=      0    Vosko Wilk Nusair interpolation
   ROPT   =   -0.00025  -0.00025  -0.00025  -0.00025
 Ionic relaxation
   EDIFFG = -.1E-02   stopping-criterion for IOM
   NSW    =   1000    number of steps for IOM
   NBLOCK =      1;   KBLOCK =   1000    inner block; outer block 
   IBRION =      2    ionic relax: 0-MD 1-quasi-New 2-CG
   NFREE  =      1    steps in history (QN), initial steepest desc. (CG)
   ISIF   =      2    stress and relaxation
   IWAVPR =     11    prediction:  0-non 1-charg 2-wave 3-comb
   ISYM   =      2    0-nonsym 1-usesym 2-fastsym
   LCORR  =      T    Harris-Foulkes like correction to forces

   POTIM  = 0.2000    time-step for ionic-motion
   TEIN   =    0.0    initial temperature
   TEBEG  =    0.0;   TEEND  =   0.0 temperature during run
   SMASS  =  -3.00    Nose mass-parameter (am)
   estimated Nose-frequenzy (Omega)   =  0.10E-29 period in steps = 0.31E+47 mass=  -0.214E-26a.u.
   SCALEE = 1.0000    scale energy and forces
   NPACO  =    256;   APACO  = 10.0  distance and # of slots for P.C.
   PSTRESS=    0.0 pullay stress

  Mass of Ions in am
   POMASS =   7.01 30.97 32.07 35.45
  Ionic Valenz
   ZVAL   =   3.00  5.00  6.00  7.00
  Atomic Wigner-Seitz radii
   RWIGS  =  -1.00 -1.00 -1.00 -1.00
  virtual crystal weights 
   VCA    =   1.00  1.00  1.00  1.00
   NELECT =     240.0000    total number of electrons
   NUPDOWN=      -1.0000    fix difference up-down

 DOS related values:
   EMIN   =  10.00;   EMAX   =-10.00  energy-range for DOS
   EFERMI =   0.00;   METHOD = LEGACY      
   ISMEAR =     0;   SIGMA  =   0.03  broadening in eV -4-tet -1-fermi 0-gaus

 Electronic relaxation 2 (details)
   IALGO  =     68    algorithm
   LDIAG  =      T    sub-space diagonalisation (order eigenvalues)
   LSUBROT=      F    optimize rotation matrix (better conditioning)
   TURBO    =      0    0=normal 1=particle mesh
   IRESTART =      0    0=no restart 2=restart with 2 vectors
   NREBOOT  =      0    no. of reboots
   NMIN     =      0    reboot dimension
   EREF     =   0.00    reference energy to select bands
   IMIX   =      4    mixing-type and parameters
     AMIX     =   0.40;   BMIX     =  1.00
     AMIX_MAG =   1.60;   BMIX_MAG =  1.00
     AMIN     =   0.10
     WC   =   100.;   INIMIX=   1;  MIXPRE=   1;  MAXMIX= -45

 Intra band minimization:
   WEIMIN = 0.0010     energy-eigenvalue tresh-hold
   EBREAK =  0.14E-08  absolut break condition
   DEPER  =   0.30     relativ break condition  

   TIME   =   0.40     timestep for ELM

  volume/ion in A,a.u.               =      17.39       117.37
  Fermi-wavevector in a.u.,A,eV,Ry     =   1.052015  1.988021 15.058059  1.106736
  Thomas-Fermi vector in A             =   2.187081
 
 Write flags
   LWAVE        =      F    write WAVECAR
   LDOWNSAMPLE  =      F    k-point downsampling of WAVECAR
   LCHARG       =      F    write CHGCAR
   LVTOT        =      F    write LOCPOT, total local potential
   LVHAR        =      F    write LOCPOT, Hartree potential only
   LELF         =      F    write electronic localiz. function (ELF)
   LORBIT       =      0    0 simple, 1 ext, 2 COOP (PROOUT), +10 PAW based schemes


 Dipole corrections
   LMONO  =      F    monopole corrections only (constant potential shift)
   LDIPOL =      F    correct potential (dipole corrections)
   IDIPOL =      0    1-x, 2-y, 3-z, 4-all directions 
   EPSILON=  1.0000000 bulk dielectric constant

 Exchange correlation treatment:
   GGA     =    PE    GGA type
   LEXCH   =     8    internal setting for exchange type
   LIBXC   =     F    Libxc                    
   VOSKOWN =     0    Vosko Wilk Nusair interpolation
   LHFCALC =     F    Hartree Fock is set to
   LHFONE  =     F    Hartree Fock one center treatment
   AEXX    =    0.0000 exact exchange contribution

 Linear response parameters
   LEPSILON=     F    determine dielectric tensor
   LRPA    =     F    only Hartree local field effects (RPA)
   LNABLA  =     F    use nabla operator in PAW spheres
   LVEL    =     F    velocity operator in full k-point grid
   CSHIFT  =0.1000    complex shift for real part using Kramers Kronig
   OMEGAMAX=  -1.0    maximum frequency
   DEG_THRESHOLD= 0.2000000E-02 threshold for treating states as degnerate
   RTIME   =   -0.100 relaxation time in fs
  (WPLASMAI=    0.000 imaginary part of plasma frequency in eV, 0.658/RTIME)
   DFIELD  = 0.0000000 0.0000000 0.0000000 field for delta impulse in time
 
  Optional k-point grid parameters
   LKPOINTS_OPT  =     F    use optional k-point grid
   KPOINTS_OPT_MODE=     1    mode for optional k-point grid
 
 Orbital magnetization related:
   ORBITALMAG=     F  switch on orbital magnetization
   LCHIMAG   =     F  perturbation theory with respect to B field
   DQ        =  0.001000  dq finite difference perturbation B field
   LLRAUG    =     F  two centre corrections for induced B field
   LBONE     =     F  B-component reconstruction in AE one-centre
   LVGVCALC  =     T  calculate vGv susceptibility
   LVGVAPPL  =     F  apply vGv susceptibility instead of pGv for G=0

 Random number generation:
   RANDOM_GENERATOR = DEFAULT
   PCG_SEED         = not used


--------------------------------------------------------------------------------------------------------


 conjugate gradient relaxation of ions
 charge density and potential will be updated during run
 spin polarized calculation
 RMM-DIIS sequential band-by-band and
  variant of blocked Davidson during initial phase
 perform sub-space diagonalisation
    before iterative eigenvector-optimisation
 modified Broyden-mixing scheme, WC =      100.0
 initial mixing is a Kerker type mixing with AMIX =  0.4000 and BMIX =      1.0000
 Hartree-type preconditioning will be used
 using additional bands           56
 real space projection scheme for non local part
 use partial core corrections
 calculate Harris-corrections to forces 
   (improved forces if not selfconsistent)
 use gradient corrections 
 use of overlap-Matrix (Vanderbilt PP)
 Gauss-broadening in eV      SIGMA  =   0.03


--------------------------------------------------------------------------------------------------------


  energy-cutoff  :      520.00
  volume of cell :      904.42
      direct lattice vectors                 reciprocal lattice vectors
     9.670669496  0.000000000  0.000000000     0.103405457  0.000000000  0.000000000
     0.000000000  9.670669496  0.000000000     0.000000000  0.103405457  0.000000000
     0.000000000  0.000000000  9.670669496     0.000000000  0.000000000  0.103405457

  length of vectors
     9.670669496  9.670669496  9.670669496     0.103405457  0.103405457  0.103405457


 
 k-points in units of 2pi/SCALE and weight: Automatic mesh                          
   0.02585136  0.02585136  0.02585136       0.250
  -0.02585136  0.02585136  0.02585136       0.250
  -0.02585136 -0.02585136  0.02585136       0.250
   0.02585136 -0.02585136  0.02585136       0.250
 
 k-points in reciprocal lattice and weights: Automatic mesh                          
   0.25000000  0.25000000  0.25000000       0.250
  -0.25000000  0.25000000  0.25000000       0.250
  -0.25000000 -0.25000000  0.25000000       0.250
   0.25000000 -0.25000000  0.25000000       0.250
 
 position of ions in fractional coordinates (direct lattice) 
   0.97608990  0.19186595  0.19909404
   0.97668359  0.70561162  0.69996521
   0.01321096  0.20837277  0.78405348
   0.02023854  0.67675227  0.27718720
   0.17649454  0.45157509  0.65914961
   0.32810918  0.67876773  0.00880040
   0.78594218  0.20057127  0.00598334
   0.81872367  0.84812306  0.94713842
   0.16840297  0.95260926  0.16761804
   0.20162504  0.01468128  0.82168851
   0.70202975  0.99627915  0.66197747
   0.69505056  0.04154135  0.31517690
   0.22505437  0.72008891  0.46963677
   0.32644526  0.14470988  0.53094003
   0.78700052  0.70011863  0.50032437
   0.83410751  0.34407976  0.44845694
   0.27627456  0.30101121  0.97072876
   0.29178153  0.50747402  0.22534442
   0.69527141  0.48670927  0.15958048
   0.68312236  0.55232635  0.80487370
   0.47284426  0.31195006  0.77598465
   0.46633462  0.82318249  0.29513685
   0.51613809  0.27178501  0.19751289
   0.51690220  0.79897710  0.66340969
   0.50381015  0.49077163  0.48904332
   0.49946515  0.99665333  0.98397990
   0.99665320  0.50665768  0.98471570
   0.00778827  0.00251266  0.48336456
   0.12403404  0.88644873  0.61844960
   0.14055416  0.11285879  0.36136000
   0.88769603  0.88194019  0.35570813
   0.88298197  0.13853250  0.58859519
   0.87109834  0.64322746  0.08773314
   0.86891373  0.38899560  0.86236869
   0.13445879  0.60966097  0.86195399
   0.10428309  0.38636572  0.12373261
   0.61261567  0.12466808  0.85735057
   0.62970574  0.89031108  0.11239661
   0.36280786  0.10643019  0.10449182
   0.38680347  0.86380127  0.86317714
   0.60625190  0.61918430  0.35397232
   0.64298047  0.38940016  0.61161332
   0.37857749  0.60229970  0.62055601
   0.38003658  0.35267777  0.38624283
   0.74830919  0.76883792  0.72762794
   0.75040126  0.26247737  0.23404159
   0.25001252  0.73804919  0.23332492
   0.24687098  0.23821237  0.74264415
   0.99332353  0.03471140  0.98441823
   0.99760019  0.54372239  0.49423847
   0.51487321  0.98118352  0.48737124
   0.48051695  0.46753598  0.00504928
 
 position of ions in cartesian coordinates  (Angst):
   9.43944284  1.85547221  1.92537262
   9.44518416  6.82373676  6.76913220
   0.12775887  2.01510423  7.58232207
   0.19572022  6.54464757  2.68058581
   1.70682040  4.36703342  6.37441800
   3.17303547  6.56413838  0.08510579
   7.60058702  1.93965847  0.05786286
   7.91760606  8.20191780  9.15946261
   1.62856950  9.21236932  1.62097865
   1.94984914  0.14197784  7.94627800
   6.78909764  9.63468643  6.40176535
   6.72160426  0.40173271  3.04797160
   2.17642639  6.96374184  4.54170195
   3.15694418  1.39944146  5.13454552
   7.61082191  6.77061585  4.83847160
   8.06637802  3.32748168  4.33687889
   2.67175999  2.91097994  9.38759703
   2.82172274  4.90761354  2.17923143
   6.72374004  4.70680448  1.54325008
   6.60625053  5.34136562  7.78366751
   4.57272060  3.01676594  7.50429109
   4.50976795  7.96072582  2.85417096
   4.99140093  2.62834300  1.91008190
   4.99879029  7.72664342  6.41561584
   4.87218140  4.74609026  4.72937633
   4.83016237  9.63830492  9.51574443
   9.63830369  4.89971899  9.52286012
   0.07531774  0.02429909  4.67445894
   1.19949225  8.57255268  5.98082168
   1.35925287  1.09142004  3.49459314
   8.58461495  8.52895211  3.43993577
   8.53902683  1.33970200  5.69210954
   8.42410418  6.22044021  0.84843820
   8.40297748  3.76184789  8.33968254
   1.30030647  5.89582978  8.33567213
   1.00848733  3.73641518  1.19657715
   5.92440369  1.20562379  8.29115402
   6.08967606  8.60990423  1.08695045
   3.50859489  1.02925117  1.01050590
   3.74064855  8.35353656  8.34750081
   5.86286179  5.98792674  3.42314936
   6.21805164  3.76576028  5.91471032
   3.66109780  5.82464137  6.00119205
   3.67520817  3.41063012  3.73522679
   7.23665088  7.43517744  7.03664937
   7.25688262  2.53833188  2.26333885
   2.41778849  7.13742980  2.25640823
   2.38740769  2.30367305  7.18186617
   9.60610356  0.33568250  9.51998330
   9.64746177  5.25815952  4.77961692
   4.97916863  9.48870151  4.71320616
   4.64692061  4.52138598  0.04882993
 


--------------------------------------------------------------------------------------------------------


 k-point   1 :   0.2500 0.2500 0.2500  plane waves:   24387
 k-point   2 :  -0.2500 0.2500 0.2500  plane waves:   24387
 k-point   3 :  -0.2500-0.2500 0.2500  plane waves:   24387
 k-point   4 :   0.2500-0.2500 0.2500  plane waves:   24387

 maximum and minimum number of plane-waves per node :       779      742

 maximum number of plane-waves:     24387
 maximum index in each direction: 
   IXMAX=   18   IYMAX=   18   IZMAX=   17
   IXMIN=  -18   IYMIN=  -18   IZMIN=  -18


 real space projection operators:
  total allocation   :      28258.88 KBytes
  max/ min on nodes  :       1187.19        728.53


 parallel 3D FFT for wavefunctions:
    minimum data exchange during FFTs selected (reduces bandwidth)
 parallel 3D FFT for charge:
    minimum data exchange during FFTs selected (reduces bandwidth)


 total amount of memory used by VASP MPI-rank0    48128. kBytes
=======================================================================

   base      :      30000. kBytes
   nonlr-proj:       6536. kBytes
   fftplans  :       1747. kBytes
   grid      :       5278. kBytes
   one-center:         62. kBytes
   wavefun   :       4505. kBytes
 
     INWAV:  cpu time      0.0000: real time      0.0000
 Broyden mixing: mesh for mixing (old mesh)
   NGX = 35   NGY = 35   NGZ = 35
  (NGX  =144   NGY  =144   NGZ  =144)
  gives a total of  42875 points

 initial charge density was supplied:
 charge density of overlapping atoms calculated
 number of electron     240.0000000 magnetization      52.0000000
 keeping initial charge density in first step


--------------------------------------------------------------------------------------------------------


 Maximum index for non-local projection operator          552
 Maximum index for augmentation-charges          879 (set IRDMAX)


--------------------------------------------------------------------------------------------------------


 First call to EWALD:  gamma=   0.183
 Maximum number of real-space cells 3x 3x 3
 Maximum number of reciprocal cells 3x 3x 3

    FEWALD:  cpu time      0.0030: real time      0.0035


--------------------------------------- Ionic step        1  -------------------------------------------




--------------------------------------- Iteration      1(   1)  ---------------------------------------


    POTLOK:  cpu time      0.0571: real time      0.0668
    SETDIJ:  cpu time      0.4064: real time      0.4131
     EDDAV:  cpu time      2.2170: real time      2.4330
       DOS:  cpu time      0.0025: real time      0.0041
    --------------------------------------------
      LOOP:  cpu time      2.6830: real time      2.9170

 eigenvalue-minimisations  :  3080
 total energy-change (2. order) : 0.1587968E+04  (-0.1136060E+05)
 number of electron     240.0000000 magnetization      52.0000000
 augmentation part      240.0000000 magnetization      52.0000000

 Free energy of the ion-electron system (eV)
  ---------------------------------------------------
  alpha Z        PSCENC =       300.14577036
  Ewald energy   TEWEN  =     -8799.96636779
  -Hartree energ DENC   =     -2120.39843220
  -exchange      EXHF   =         0.00000000
  -V(xc)+E(xc)   XCENC  =       534.12773762
  PAW double counting   =      8141.38806575    -8271.61346273
  entropy T*S    EENTRO =        -0.01145676
  eigenvalues    EBANDS =      -898.84430366
  atomic energy  EATOM  =     12703.13999606
  Solvation  Ediel_sol  =         0.00000000
  ---------------------------------------------------
  free energy    TOTEN  =      1587.96754666 eV

  energy without entropy =     1587.97900342  energy(sigma->0) =     1587.97327504


--------------------------------------------------------------------------------------------------------




--------------------------------------- Iteration      1(   2)  ---------------------------------------


     EDDAV:  cpu time      2.6538: real time      2.6828
       DOS:  cpu time      0.0006: real time      0.0006
    --------------------------------------------
      LOOP:  cpu time      2.6544: real time      2.6834

 eigenvalue-minimisations  :  3856
 total energy-change (2. order) :-0.1646060E+04  (-0.1549722E+04)
 number of electron     240.0000000 magnetization      52.0000000
 augmentation part      240.0000000 magnetization      52.0000000

 Free energy of the ion-electron system (eV)
  ---------------------------------------------------
  alpha Z        PSCENC =       300.14577036
  Ewald energy   TEWEN  =     -8799.96636779
  -Hartree energ DENC   =     -2120.39843220
  -exchange      EXHF   =         0.00000000
  -V(xc)+E(xc)   XCENC  =       534.12773762
  PAW double counting   =      8141.38806575    -8271.61346273
  entropy T*S    EENTRO =        -0.00000000
  eigenvalues    EBANDS =     -2544.91569461
  atomic energy  EATOM  =     12703.13999606
  Solvation  Ediel_sol  =         0.00000000
  ---------------------------------------------------
  free energy    TOTEN  =       -58.09238753 eV

  energy without entropy =      -58.09238753  energy(sigma->0) =      -58.09238753


--------------------------------------------------------------------------------------------------------




--------------------------------------- Iteration      1(   3)  ---------------------------------------


     EDDAV:  cpu time      2.5822: real time      2.6098
       DOS:  cpu time      0.0006: real time      0.0006
    --------------------------------------------
      LOOP:  cpu time      2.5828: real time      2.6104

 eigenvalue-minimisations  :  3760
 total energy-change (2. order) :-0.1707308E+03  (-0.1687437E+03)
 number of electron     240.0000000 magnetization      52.0000000
 augmentation part      240.0000000 magnetization      52.0000000

 Free energy of the ion-electron system (eV)
  ---------------------------------------------------
  alpha Z        PSCENC =       300.14577036
  Ewald energy   TEWEN  =     -8799.96636779
  -Hartree energ DENC   =     -2120.39843220
  -exchange      EXHF   =         0.00000000
  -V(xc)+E(xc)   XCENC  =       534.12773762
  PAW double counting   =      8141.38806575    -8271.61346273
  entropy T*S    EENTRO =        -0.00000000
  eigenvalues    EBANDS =     -2715.64651899
  atomic energy  EATOM  =     12703.13999606
  Solvation  Ediel_sol  =         0.00000000
  ---------------------------------------------------
  free energy    TOTEN  =      -228.82321191 eV

  energy without entropy =     -228.82321191  energy(sigma->0) =     -228.82321191


--------------------------------------------------------------------------------------------------------




--------------------------------------- Iteration      1(   4)  ---------------------------------------


     EDDAV:  cpu time      3.1324: real time      3.1656
       DOS:  cpu time      0.0007: real time      0.0007
    --------------------------------------------
      LOOP:  cpu time      3.1332: real time      3.1664

 eigenvalue-minimisations  :  4768
 total energy-change (2. order) :-0.1334251E+02  (-0.1332030E+02)
 number of electron     240.0000000 magnetization      52.0000000
 augmentation part      240.0000000 magnetization      52.0000000

 Free energy of the ion-electron system (eV)
  ---------------------------------------------------
  alpha Z        PSCENC =       300.14577036
  Ewald energy   TEWEN  =     -8799.96636779
  -Hartree energ DENC   =     -2120.39843220
  -exchange      EXHF   =         0.00000000
  -V(xc)+E(xc)   XCENC  =       534.12773762
  PAW double counting   =      8141.38806575    -8271.61346273
  entropy T*S    EENTRO =        -0.00000000
  eigenvalues    EBANDS =     -2728.98902815
  atomic energy  EATOM  =     12703.13999606
  Solvation  Ediel_sol  =         0.00000000
  ---------------------------------------------------
  free energy    TOTEN  =      -242.16572107 eV

  energy without entropy =     -242.16572107  energy(sigma->0) =     -242.16572107


--------------------------------------------------------------------------------------------------------




--------------------------------------- Iteration      1(   5)  ---------------------------------------


     EDDAV:  cpu time      2.9535: real time      2.9881
       DOS:  cpu time      0.0008: real time      0.0008
    --------------------------------------------
      LOOP:  cpu time      2.9543: real time      2.9890

 eigenvalue-minimisations  :  4456
 total energy-change (2. order) :-0.2169766E+00  (-0.2168816E+00)
 number of electron     240.0000000 magnetization      52.0000000
 augmentation part      240.0000000 magnetization      52.0000000

 Free energy of the ion-electron system (eV)
  ---------------------------------------------------
  alpha Z        PSCENC =       300.14577036
  Ewald energy   TEWEN  =     -8799.96636779
  -Hartree energ DENC   =     -2120.39843220
  -exchange      EXHF   =         0.00000000
  -V(xc)+E(xc)   XCENC  =       534.12773762
  PAW double counting   =      8141.38806575    -8271.61346273
  entropy T*S    EENTRO =        -0.00000000
  eigenvalues    EBANDS =     -2729.20600473
  atomic energy  EATOM  =     12703.13999606
  Solvation  Ediel_sol  =         0.00000000
  ---------------------------------------------------
  free energy    TOTEN  =      -242.38269765 eV

  energy without entropy =     -242.38269765  energy(sigma->0) =     -242.38269765


--------------------------------------------------------------------------------------------------------




--------------------------------------- Iteration      1(   6)  ---------------------------------------


     EDDAV:  cpu time      3.0633: real time      3.0991
       DOS:  cpu time      0.0007: real time      0.0007
    --------------------------------------------
      LOOP:  cpu time      3.0640: real time      3.0998

 eigenvalue-minimisations  :  4648
 total energy-change (2. order) :-0.1092733E-01  (-0.1092608E-01)
 number of electron     240.0000000 magnetization      52.0000000
 augmentation part      240.0000000 magnetization      52.0000000

 Free energy of the ion-electron system (eV)
  ---------------------------------------------------
  alpha Z        PSCENC =       300.14577036
  Ewald energy   TEWEN  =     -8799.96636779
  -Hartree energ DENC   =     -2120.39843220
  -exchange      EXHF   =         0.00000000
  -V(xc)+E(xc)   XCENC  =       534.12773762
  PAW double counting   =      8141.38806575    -8271.61346273
  entropy T*S    EENTRO =        -0.00000000
  eigenvalues    EBANDS =     -2729.21693206
  atomic energy  EATOM  =     12703.13999606
  Solvation  Ediel_sol  =         0.00000000
  ---------------------------------------------------
  free energy    TOTEN  =      -242.39362498 eV

  energy without entropy =     -242.39362498  energy(sigma->0) =     -242.39362498


--------------------------------------------------------------------------------------------------------




--------------------------------------- Iteration      1(   7)  ---------------------------------------


     EDDAV:  cpu time      3.0132: real time      3.0486
       DOS:  cpu time      0.0006: real time      0.0006
    --------------------------------------------
      LOOP:  cpu time      3.0138: real time      3.0492

 eigenvalue-minimisations  :  4560
 total energy-change (2. order) :-0.3693477E-03  (-0.3693222E-03)
 number of electron     240.0000000 magnetization      52.0000000
 augmentation part      240.0000000 magnetization      52.0000000

 Free energy of the ion-electron system (eV)
  ---------------------------------------------------
  alpha Z        PSCENC =       300.14577036
  Ewald energy   TEWEN  =     -8799.96636779
  -Hartree energ DENC   =     -2120.39843220
  -exchange      EXHF   =         0.00000000
  -V(xc)+E(xc)   XCENC  =       534.12773762
  PAW double counting   =      8141.38806575    -8271.61346273
  entropy T*S    EENTRO =        -0.00000000
  eigenvalues    EBANDS =     -2729.21730141
  atomic energy  EATOM  =     12703.13999606
  Solvation  Ediel_sol  =         0.00000000
  ---------------------------------------------------
  free energy    TOTEN  =      -242.39399433 eV

  energy without entropy =     -242.39399433  energy(sigma->0) =     -242.39399433


--------------------------------------------------------------------------------------------------------




--------------------------------------- Iteration      1(   8)  ---------------------------------------


     EDDAV:  cpu time      3.0732: real time      3.1145
       DOS:  cpu time      0.0006: real time      0.0006
    --------------------------------------------
      LOOP:  cpu time      3.0738: real time      3.1151

 eigenvalue-minimisations  :  4584
 total energy-change (2. order) :-0.2162491E-04  (-0.2162410E-04)
 number of electron     240.0000000 magnetization      52.0000000
 augmentation part      240.0000000 magnetization      52.0000000

 Free energy of the ion-electron system (eV)
  ---------------------------------------------------
  alpha Z        PSCENC =       300.14577036
  Ewald energy   TEWEN  =     -8799.96636779
  -Hartree energ DENC   =     -2120.39843220
  -exchange      EXHF   =         0.00000000
  -V(xc)+E(xc)   XCENC  =       534.12773762
  PAW double counting   =      8141.38806575    -8271.61346273
  entropy T*S    EENTRO =        -0.00000000
  eigenvalues    EBANDS =     -2729.21732303
  atomic energy  EATOM  =     12703.13999606
  Solvation  Ediel_sol  =         0.00000000
  ---------------------------------------------------
  free energy    TOTEN  =      -242.39401596 eV

  energy without entropy =     -242.39401596  energy(sigma->0) =     -242.39401596


--------------------------------------------------------------------------------------------------------




--------------------------------------- Iteration      1(   9)  ---------------------------------------


     EDDAV:  cpu time      2.9818: real time      3.0162
       DOS:  cpu time      0.0005: real time      0.0005
    --------------------------------------------
      LOOP:  cpu time      2.9823: real time      3.0167

 eigenvalue-minimisations  :  4504
 total energy-change (2. order) :-0.1399043E-05  (-0.1399127E-05)
 number of electron     240.0000000 magnetization      52.0000000
 augmentation part      240.0000000 magnetization      52.0000000

 Free energy of the ion-electron system (eV)
  ---------------------------------------------------
  alpha Z        PSCENC =       300.14577036
  Ewald energy   TEWEN  =     -8799.96636779
  -Hartree energ DENC   =     -2120.39843220
  -exchange      EXHF   =         0.00000000
  -V(xc)+E(xc)   XCENC  =       534.12773762
  PAW double counting   =      8141.38806575    -8271.61346273
  entropy T*S    EENTRO =        -0.00000000
  eigenvalues    EBANDS =     -2729.21732443
  atomic energy  EATOM  =     12703.13999606
  Solvation  Ediel_sol  =         0.00000000
  ---------------------------------------------------
  free energy    TOTEN  =      -242.39401736 eV

  energy without entropy =     -242.39401736  energy(sigma->0) =     -242.39401736


--------------------------------------------------------------------------------------------------------




--------------------------------------- Iteration      1(  10)  ---------------------------------------


     EDDAV:  cpu time      1.9985: real time      2.0208
       DOS:  cpu time      0.0006: real time      0.0006
    CHARGE:  cpu time      0.0681: real time      0.0744
    MIXING:  cpu time      0.0021: real time      0.0038
    --------------------------------------------
      LOOP:  cpu time      2.0694: real time      2.0996

 eigenvalue-minimisations  :  2680
 total energy-change (2. order) :-0.5873881E-07  (-0.5876312E-07)
 number of electron     239.9999991 magnetization      27.3037761
 augmentation part        1.4934146 magnetization      27.7457802

 Broyden mixing:
  rms(total) = 0.64434E+01    rms(broyden)= 0.64428E+01
  rms(prec ) = 0.66881E+01
  weight for this iteration     100.00

 Free energy of the ion-electron system (eV)
  ---------------------------------------------------
  alpha Z        PSCENC =       300.14577036
  Ewald energy   TEWEN  =     -8799.96636779
  -Hartree energ DENC   =     -2120.39843220
  -exchange      EXHF   =         0.00000000
  -V(xc)+E(xc)   XCENC  =       534.12773762
  PAW double counting   =      8141.38806575    -8271.61346273
  entropy T*S    EENTRO =        -0.00000000
  eigenvalues    EBANDS =     -2729.21732449
  atomic energy  EATOM  =     12703.13999606
  Solvation  Ediel_sol  =         0.00000000
  ---------------------------------------------------
  free energy    TOTEN  =      -242.39401741 eV

  energy without entropy =     -242.39401741  energy(sigma->0) =     -242.39401741


--------------------------------------------------------------------------------------------------------




--------------------------------------- Iteration      1(  11)  ---------------------------------------


    POTLOK:  cpu time      0.0537: real time      0.0548
    SETDIJ:  cpu time      0.3957: real time      0.3977
    EDDIAG:  cpu time      0.3634: real time      0.3669
  RMM-DIIS:  cpu time      1.1519: real time      1.1654
    ORTHCH:  cpu time      0.0671: real time      0.0686
       DOS:  cpu time      0.0006: real time      0.0006
    CHARGE:  cpu time      0.0646: real time      0.0675
    MIXING:  cpu time      0.0012: real time      0.0281
    --------------------------------------------
      LOOP:  cpu time      2.0982: real time      2.1495

 eigenvalue-minimisations  :  2816
 total energy-change (2. order) : 0.6060070E+01  (-0.4736400E+01)
 number of electron     239.9999992 magnetization      16.3461889
 augmentation part        1.7022454 magnetization      16.5312307

 Broyden mixing:
  rms(total) = 0.33119E+01    rms(broyden)= 0.33117E+01
  rms(prec ) = 0.34293E+01
  weight for this iteration     100.00

 eigenvalues of (default mixing * dielectric matrix)
  average eigenvalue GAMMA=   0.7258
  0.7258

 Free energy of the ion-electron system (eV)
  ---------------------------------------------------
  alpha Z        PSCENC =       300.14577036
  Ewald energy   TEWEN  =     -8799.96636779
  -Hartree energ DENC   =     -2169.21439966
  -exchange      EXHF   =         0.00000000
  -V(xc)+E(xc)   XCENC  =       542.49717773
  PAW double counting   =      8931.99187599    -9068.32729931
  entropy T*S    EENTRO =        -0.00000000
  eigenvalues    EBANDS =     -2676.60070077
  atomic energy  EATOM  =     12703.13999606
  Solvation  Ediel_sol  =         0.00000000
  ---------------------------------------------------
  free energy    TOTEN  =      -236.33394738 eV

  energy without entropy =     -236.33394738  energy(sigma->0) =     -236.33394738


--------------------------------------------------------------------------------------------------------




--------------------------------------- Iteration      1(  12)  ---------------------------------------


    POTLOK:  cpu time      0.0528: real time      0.0538
    SETDIJ:  cpu time      0.4063: real time      0.4086
    EDDIAG:  cpu time      0.3574: real time      0.3609
  RMM-DIIS:  cpu time      1.2137: real time      1.2278
    ORTHCH:  cpu time      0.0657: real time      0.0669
       DOS:  cpu time      0.0005: real time      0.0005
    CHARGE:  cpu time      0.0649: real time      0.0672
    MIXING:  cpu time      0.0011: real time      0.0011
    --------------------------------------------
      LOOP:  cpu time      2.1624: real time      2.1867

 eigenvalue-minimisations  :  2958
 total energy-change (2. order) :-0.1986291E+02  (-0.2179198E+01)
 number of electron     239.9999992 magnetization       0.6039481
 augmentation part        1.8044944 magnetization       0.9457593

 Broyden mixing:
  rms(total) = 0.20319E+01    rms(broyden)= 0.20319E+01
  rms(prec ) = 0.20936E+01
  weight for this iteration     100.00

 eigenvalues of (default mixing * dielectric matrix)
  average eigenvalue GAMMA=   1.1546
  1.6385  0.6707

 Free energy of the ion-electron system (eV)
  ---------------------------------------------------
  alpha Z        PSCENC =       300.14577036
  Ewald energy   TEWEN  =     -8799.96636779
  -Hartree energ DENC   =     -2193.91806041
  -exchange      EXHF   =         0.00000000
  -V(xc)+E(xc)   XCENC  =       536.16286520
  PAW double counting   =      9288.08084563    -9428.02804684
  entropy T*S    EENTRO =        -0.00000000
  eigenvalues    EBANDS =     -2661.81385654
  atomic energy  EATOM  =     12703.13999606
  Solvation  Ediel_sol  =         0.00000000
  ---------------------------------------------------
  free energy    TOTEN  =      -256.19685432 eV

  energy without entropy =     -256.19685432  energy(sigma->0) =     -256.19685432


--------------------------------------------------------------------------------------------------------




--------------------------------------- Iteration      1(  13)  ---------------------------------------


    POTLOK:  cpu time      0.0530: real time      0.0540
    SETDIJ:  cpu time      0.4054: real time      0.4076
    EDDIAG:  cpu time      0.3564: real time      0.3592
  RMM-DIIS:  cpu time      1.1916: real time      1.2073
    ORTHCH:  cpu time      0.0660: real time      0.0670
       DOS:  cpu time      0.0004: real time      0.0004
    CHARGE:  cpu time      0.0648: real time      0.0665
    MIXING:  cpu time      0.0012: real time      0.0012
    --------------------------------------------
      LOOP:  cpu time      2.1388: real time      2.1632

 eigenvalue-minimisations  :  2897
 total energy-change (2. order) :-0.2482995E+01  (-0.8985580E+00)
 number of electron     239.9999992 magnetization      -1.8187243
 augmentation part        1.9046248 magnetization      -1.7140745

 Broyden mixing:
  rms(total) = 0.67057E+00    rms(broyden)= 0.67057E+00
  rms(prec ) = 0.70345E+00
  weight for this iteration     100.00

 eigenvalues of (default mixing * dielectric matrix)
  average eigenvalue GAMMA=   1.3017
  2.5036  0.7483  0.6531

 Free energy of the ion-electron system (eV)
  ---------------------------------------------------
  alpha Z        PSCENC =       300.14577036
  Ewald energy   TEWEN  =     -8799.96636779
  -Hartree energ DENC   =     -2222.08728754
  -exchange      EXHF   =         0.00000000
  -V(xc)+E(xc)   XCENC  =       537.70906295
  PAW double counting   =      9788.86139274    -9932.75885290
  entropy T*S    EENTRO =        -0.00000000
  eigenvalues    EBANDS =     -2633.72356280
  atomic energy  EATOM  =     12703.13999606
  Solvation  Ediel_sol  =         0.00000000
  ---------------------------------------------------
  free energy    TOTEN  =      -258.67984892 eV

  energy without entropy =     -258.67984892  energy(sigma->0) =     -258.67984892


--------------------------------------------------------------------------------------------------------




--------------------------------------- Iteration      1(  14)  ---------------------------------------


    POTLOK:  cpu time      0.0528: real time      0.0539
    SETDIJ:  cpu time      0.4060: real time      0.4078
    EDDIAG:  cpu time      0.3568: real time      0.3606
  RMM-DIIS:  cpu time      1.5527: real time      1.5719
    ORTHCH:  cpu time      0.0656: real time      0.0667
       DOS:  cpu time      0.0005: real time      0.0007
    CHARGE:  cpu time      0.0647: real time      0.0661
    MIXING:  cpu time      0.0011: real time      0.0011
    --------------------------------------------
      LOOP:  cpu time      2.5001: real time      2.5288

 eigenvalue-minimisations  :  3757
 total energy-change (2. order) :-0.2023260E+00  (-0.2003639E+00)
 number of electron     239.9999992 magnetization      -0.8508548
 augmentation part        1.8766361 magnetization      -0.8236906

 Broyden mixing:
  rms(total) = 0.32349E+00    rms(broyden)= 0.32348E+00
  rms(prec ) = 0.35871E+00
  weight for this iteration     100.00

 eigenvalues of (default mixing * dielectric matrix)
  average eigenvalue GAMMA=   1.2653
  2.6102  1.1693  0.6898  0.5917

 Free energy of the ion-electron system (eV)
  ---------------------------------------------------
  alpha Z        PSCENC =       300.14577036
  Ewald energy   TEWEN  =     -8799.96636779
  -Hartree energ DENC   =     -2223.84050503
  -exchange      EXHF   =         0.00000000
  -V(xc)+E(xc)   XCENC  =       538.17503499
  PAW double counting   =      9866.26295885   -10010.96157195
  entropy T*S    EENTRO =        -0.00000000
  eigenvalues    EBANDS =     -2631.83749043
  atomic energy  EATOM  =     12703.13999606
  Solvation  Ediel_sol  =         0.00000000
  ---------------------------------------------------
  free energy    TOTEN  =      -258.88217494 eV

  energy without entropy =     -258.88217494  energy(sigma->0) =     -258.88217494


--------------------------------------------------------------------------------------------------------




--------------------------------------- Iteration      1(  15)  ---------------------------------------


    POTLOK:  cpu time      0.0532: real time      0.0542
    SETDIJ:  cpu time      0.4044: real time      0.4060
    EDDIAG:  cpu time      0.3589: real time      0.3619
  RMM-DIIS:  cpu time      1.2563: real time      1.2720
    ORTHCH:  cpu time      0.0661: real time      0.0666
       DOS:  cpu time      0.0005: real time      0.0005
    CHARGE:  cpu time      0.0654: real time      0.0668
    MIXING:  cpu time      0.0012: real time      0.0012
    --------------------------------------------
      LOOP:  cpu time      2.2060: real time      2.2292

 eigenvalue-minimisations  :  3047
 total energy-change (2. order) : 0.2726571E-01  (-0.3253104E-01)
 number of electron     239.9999992 magnetization      -0.2263553
 augmentation part        1.8291257 magnetization      -0.1996520

 Broyden mixing:
  rms(total) = 0.70631E-01    rms(broyden)= 0.70628E-01
  rms(prec ) = 0.83847E-01
  weight for this iteration     100.00

 eigenvalues of (default mixing * dielectric matrix)
  average eigenvalue GAMMA=   1.2705
  2.5397  1.5795  0.9475  0.6850  0.6008

 Free energy of the ion-electron system (eV)
  ---------------------------------------------------
  alpha Z        PSCENC =       300.14577036
  Ewald energy   TEWEN  =     -8799.96636779
  -Hartree energ DENC   =     -2219.49980569
  -exchange      EXHF   =         0.00000000
  -V(xc)+E(xc)   XCENC  =       537.83540547
  PAW double counting   =      9837.89227319    -9982.40621695
  entropy T*S    EENTRO =        -0.00000000
  eigenvalues    EBANDS =     -2635.99596388
  atomic energy  EATOM  =     12703.13999606
  Solvation  Ediel_sol  =         0.00000000
  ---------------------------------------------------
  free energy    TOTEN  =      -258.85490923 eV

  energy without entropy =     -258.85490923  energy(sigma->0) =     -258.85490923


--------------------------------------------------------------------------------------------------------




--------------------------------------- Iteration      1(  16)  ---------------------------------------


    POTLOK:  cpu time      0.0523: real time      0.0535
    SETDIJ:  cpu time      0.4072: real time      0.4084
    EDDIAG:  cpu time      0.3566: real time      0.3597
  RMM-DIIS:  cpu time      1.2755: real time      1.2912
    ORTHCH:  cpu time      0.0653: real time      0.0658
       DOS:  cpu time      0.0005: real time      0.0005
    CHARGE:  cpu time      0.0651: real time      0.0662
    MIXING:  cpu time      0.0012: real time      0.0012
    --------------------------------------------
      LOOP:  cpu time      2.2236: real time      2.2465

 eigenvalue-minimisations  :  3101
 total energy-change (2. order) :-0.1988085E-01  (-0.1102014E-01)
 number of electron     239.9999992 magnetization      -0.1072931
 augmentation part        1.8063480 magnetization      -0.0929032

 Broyden mixing:
  rms(total) = 0.31367E-01    rms(broyden)= 0.31365E-01
  rms(prec ) = 0.37923E-01
  weight for this iteration     100.00

 eigenvalues of (default mixing * dielectric matrix)
  average eigenvalue GAMMA=   1.2496
  2.4530  1.9487  1.0378  0.6205  0.6998  0.7376

 Free energy of the ion-electron system (eV)
  ---------------------------------------------------
  alpha Z        PSCENC =       300.14577036
  Ewald energy   TEWEN  =     -8799.96636779
  -Hartree energ DENC   =     -2218.89150085
  -exchange      EXHF   =         0.00000000
  -V(xc)+E(xc)   XCENC  =       537.74932585
  PAW double counting   =      9825.79370870    -9970.07711543
  entropy T*S    EENTRO =        -0.00000000
  eigenvalues    EBANDS =     -2636.76860699
  atomic energy  EATOM  =     12703.13999606
[...]
  0.002  -0.002  -0.000  -0.001   0.004   0.000  -0.000   0.000   0.000  -0.000  -0.000   0.000   0.000   0.000
 -0.001   0.001   0.000  -0.001   0.000   0.007  -0.000   0.000   0.000   0.000  -0.000   0.000   0.000  -0.000
 -0.011   0.011   0.000   0.005  -0.005   0.006   0.000  -0.000   0.000   0.000  -0.000  -0.000  -0.000  -0.000
 -0.012   0.012   0.000  -0.003  -0.002  -0.005  -0.000  -0.000  -0.000  -0.000   0.000   0.000  -0.000  -0.000
 -0.014   0.014   0.000  -0.005   0.001   0.005  -0.000   0.000   0.000  -0.000   0.000   0.000   0.000  -0.000
  0.008  -0.008  -0.000  -0.005   0.005   0.005  -0.000   0.000   0.000  -0.000  -0.000   0.000   0.000   0.000
  0.023  -0.023  -0.000  -0.001   0.005  -0.008  -0.000   0.000  -0.000  -0.000  -0.000  -0.000   0.000   0.000
 total augmentation occupancy for first ion, spin component:           2
  0.000  -0.000   0.000  -0.000  -0.000  -0.000  -0.000  -0.000  -0.000  -0.000   0.000   0.000   0.000   0.000
 -0.000   0.000  -0.000   0.000   0.000   0.000   0.000   0.000   0.000   0.000  -0.000  -0.000  -0.000  -0.000
  0.000  -0.000  -0.000   0.000   0.000  -0.000   0.000   0.000  -0.000   0.000  -0.000  -0.000  -0.000  -0.000
 -0.000   0.000   0.000  -0.000   0.000  -0.000   0.000   0.000   0.000  -0.000  -0.000  -0.000   0.000   0.000
 -0.000   0.000   0.000   0.000  -0.000  -0.000  -0.000  -0.000  -0.000   0.000   0.000   0.000  -0.000  -0.000
 -0.000   0.000  -0.000  -0.000  -0.000   0.000  -0.000  -0.000  -0.000   0.000  -0.000   0.000   0.000   0.000
 -0.000   0.000   0.000   0.000  -0.000  -0.000   0.000  -0.000  -0.000   0.000   0.000   0.000   0.000  -0.000
 -0.000   0.000   0.000   0.000  -0.000  -0.000  -0.000  -0.000  -0.000   0.000   0.000   0.000   0.000  -0.000
 -0.000   0.000  -0.000   0.000  -0.000  -0.000  -0.000  -0.000  -0.000   0.000   0.000   0.000  -0.000  -0.000
 -0.000   0.000   0.000  -0.000   0.000   0.000   0.000   0.000   0.000  -0.000  -0.000   0.000   0.000  -0.000
  0.000  -0.000  -0.000  -0.000   0.000  -0.000   0.000   0.000   0.000  -0.000  -0.000  -0.000   0.000   0.000
  0.000  -0.000  -0.000  -0.000   0.000   0.000   0.000   0.000   0.000   0.000  -0.000  -0.000   0.000   0.000
  0.000  -0.000  -0.000   0.000  -0.000   0.000   0.000   0.000  -0.000   0.000   0.000   0.000   0.000   0.000
  0.000  -0.000  -0.000   0.000  -0.000   0.000  -0.000  -0.000  -0.000  -0.000   0.000   0.000   0.000   0.000


------------------------ aborting loop because EDIFF is reached ----------------------------------------


    CHARGE:  cpu time      0.0663: real time      0.0669
    FORLOC:  cpu time      0.0053: real time      0.0054
    FORNL :  cpu time      0.3938: real time      0.4029
    STRESS:  cpu time      1.1777: real time      1.1880
    FORCOR:  cpu time      0.0501: real time      0.0505
    FORHAR:  cpu time      0.0083: real time      0.0084
    MIXING:  cpu time      0.0007: real time      0.0007
    OFIELD:  cpu time      0.0000: real time      0.0000

 ---------------------------------------------------------------------------------------------

         DFTD3 V3.0 Rev 1        
 Edisp (eV)  -13.53172

 E6    (eV) :    -8.3378
 E8    (eV) :    -5.1939
 % E8        : 38.38
    FORVDW:  cpu time      0.2904: real time      0.2930

  FORCE on cell =-STRESS in cart. coord.  units (eV):
  Direction    XX          YY          ZZ          XY          YZ          ZX
  --------------------------------------------------------------------------------------
  Alpha Z   300.14577   300.14577   300.14577
  Ewald   -2864.98527 -3008.75219 -2926.35350    -8.21349   -25.09573    49.93030
  Hartree   775.41670   701.84704   744.24641    -7.55413    -8.92587    21.94550
  E(xc)    -947.67738  -947.96069  -947.77576    -0.02238    -0.05636     0.12171
  Local   -1612.05833 -1408.21204 -1523.09310    16.45902    31.50563   -69.02280
  n-local  1481.38567  1482.48502  1480.78018     0.00654    -0.43385     0.65953
  augment  -356.51333  -357.36604  -356.51455    -0.02974    -0.09460     0.10237
  Kinetic  3239.42546  3253.13093  3241.13927     0.03539     2.84145    -2.89274
  Fock        0.00000     0.00000     0.00000     0.00000     0.00000     0.00000
  vdW       -14.34866   -14.34063   -14.33411     0.00217    -0.01329    -0.00687
  -------------------------------------------------------------------------------------
  Total       0.79063     0.97719    -1.75939     0.68338    -0.27262     0.83700
  in kB       1.40060     1.73109    -3.11677     1.21061    -0.48295     1.48274
  external pressure =        0.00 kB  Pullay stress =        0.00 kB


 VOLUME and BASIS-vectors are now :
 -----------------------------------------------------------------------------
  energy-cutoff  :      520.00
  volume of cell :      904.42
      direct lattice vectors                 reciprocal lattice vectors
     9.670669496  0.000000000  0.000000000     0.103405457  0.000000000  0.000000000
     0.000000000  9.670669496  0.000000000     0.000000000  0.103405457  0.000000000
     0.000000000  0.000000000  9.670669496     0.000000000  0.000000000  0.103405457

  length of vectors
     9.670669496  9.670669496  9.670669496     0.103405457  0.103405457  0.103405457


 FORCES acting on ions
    electron-ion (+dipol)            ewald-force                    non-local-force                 convergence-correction
 -----------------------------------------------------------------------------------------------
   -.147E+01 0.216E+01 -.708E+01   0.894E+00 -.839E+00 0.794E+01   0.570E+00 -.132E+01 -.849E+00   0.713E-04 -.264E-04 0.504E-04
   -.580E-01 -.452E+00 -.113E+02   -.613E+00 0.150E+01 0.118E+02   0.671E+00 -.106E+01 -.527E+00   -.139E-03 0.132E-04 -.247E-04
   0.520E+01 0.163E+01 0.600E+01   -.442E+01 -.645E+00 -.709E+01   -.778E+00 -.988E+00 0.109E+01   -.107E-03 -.691E-04 -.585E-05
   0.479E+01 0.701E+01 0.338E+01   -.405E+01 -.602E+01 -.446E+01   -.728E+00 -.996E+00 0.108E+01   -.200E-04 0.107E-03 -.508E-04
   0.102E+02 0.895E+01 0.152E+02   -.894E+01 -.100E+02 -.138E+02   -.123E+01 0.108E+01 -.143E+01   -.287E-04 -.660E-04 -.443E-04
   -.111E+02 -.112E+01 0.345E+01   0.101E+02 0.240E+01 -.314E+01   0.100E+01 -.128E+01 -.304E+00   -.142E-03 -.691E-04 0.459E-03
   0.753E+00 0.523E+01 0.261E+01   -.198E+01 -.424E+01 -.188E+01   0.123E+01 -.992E+00 -.725E+00   0.486E-05 -.140E-03 0.365E-04
   -.104E+02 -.206E+01 -.556E+00   0.937E+01 0.879E+00 -.126E+00   0.102E+01 0.118E+01 0.680E+00   0.686E-04 -.261E-04 0.208E-03
   0.841E+01 0.913E+01 0.119E+02   -.696E+01 -.994E+01 -.104E+02   -.144E+01 0.812E+00 -.146E+01   0.525E-04 -.372E-04 0.164E-04
   0.760E+01 0.129E+02 -.511E+01   -.617E+01 -.121E+02 0.379E+01   -.143E+01 -.746E+00 0.132E+01   0.373E-05 0.824E-04 0.620E-04
   0.112E+01 -.103E+02 0.684E+00   -.175E-01 0.963E+01 0.623E-01   -.111E+01 0.670E+00 -.749E+00   0.246E-04 -.230E-04 -.750E-04
   0.678E+01 -.359E+01 -.553E+01   -.593E+01 0.449E+01 0.443E+01   -.853E+00 -.898E+00 0.110E+01   -.207E-05 -.332E-04 -.826E-04
   -.513E+01 -.182E+01 -.954E+00   0.586E+01 0.234E+01 0.260E+00   -.734E+00 -.526E+00 0.691E+00   -.127E-03 -.441E-04 -.128E-03
   -.897E+01 0.515E+01 -.321E+00   0.803E+01 -.411E+01 0.909E+00   0.933E+00 -.104E+01 -.586E+00   0.554E-04 0.253E-04 -.128E-03
   0.352E+01 0.587E+01 0.670E+01   -.432E+01 -.488E+01 -.582E+01   0.800E+00 -.988E+00 -.875E+00   0.504E-04 0.209E-04 -.180E-03
   -.149E+02 -.731E+01 0.188E+01   0.137E+02 0.596E+01 -.249E+01   0.124E+01 0.135E+01 0.605E+00   -.124E-03 -.809E-04 -.126E-03
   0.276E+00 -.378E+01 -.158E+01   -.115E+01 0.273E+01 0.605E+00   0.877E+00 0.105E+01 0.969E+00   0.909E-04 0.643E-04 0.301E-03
   -.106E+01 0.353E+01 -.299E+01   -.700E-02 -.252E+01 0.390E+01   0.107E+01 -.101E+01 -.905E+00   0.404E-03 -.130E-03 -.379E-03
   0.156E+01 -.110E+02 0.604E+01   -.435E+00 0.104E+02 -.489E+01   -.112E+01 0.609E+00 -.115E+01   -.153E-04 0.850E-04 0.266E-03
   0.159E+02 -.459E+01 -.187E+02   -.143E+02 0.574E+01 0.168E+02   -.168E+01 -.114E+01 0.189E+01   0.487E-03 -.447E-04 -.311E-03
   -.385E+01 -.708E+01 0.351E+01   0.316E+01 0.552E+01 -.424E+01   0.696E+00 0.157E+01 0.722E+00   -.101E-03 -.268E-03 -.143E-03
   0.242E+01 -.608E+01 -.336E+00   -.323E+01 0.491E+01 -.388E+00   0.810E+00 0.117E+01 0.721E+00   0.137E-03 0.435E-05 -.138E-03
   0.460E+00 0.339E+01 -.520E+01   0.339E+00 -.411E+01 0.621E+01   -.796E+00 0.732E+00 -.101E+01   -.147E-03 0.948E-04 -.268E-04
   0.782E+01 -.519E+00 0.177E+00   -.711E+01 -.245E+00 0.956E+00   -.704E+00 0.764E+00 -.113E+01   0.207E-04 0.108E-03 -.151E-03
   -.185E+01 0.531E+01 0.444E+01   0.196E+01 -.579E+01 -.427E+01   -.118E+00 0.484E+00 -.160E+00   0.935E-04 -.141E-03 -.528E-03
   -.334E+01 0.950E+01 0.364E+00   0.339E+01 -.980E+01 -.266E+00   -.484E-01 0.296E+00 -.950E-01   -.109E-03 0.174E-03 0.142E-03
   0.164E+01 -.837E+01 -.363E+01   -.174E+01 0.880E+01 0.336E+01   0.995E-01 -.427E+00 0.276E+00   0.161E-03 -.158E-04 0.277E-03
   -.122E+01 -.501E+01 -.545E+01   0.143E+01 0.541E+01 0.518E+01   -.213E+00 -.391E+00 0.273E+00   -.917E-04 -.149E-03 -.124E-03
   -.447E+02 0.205E+02 -.482E+02   0.481E+02 -.231E+02 0.518E+02   -.345E+01 0.263E+01 -.354E+01   -.171E-03 0.192E-03 -.238E-03
   -.503E+02 -.528E+02 0.216E+02   0.538E+02 0.555E+02 -.238E+02   -.352E+01 -.275E+01 0.223E+01   0.312E-03 0.182E-03 -.381E-03
   0.380E+02 0.298E+02 0.567E+02   -.408E+02 -.321E+02 -.608E+02   0.282E+01 0.225E+01 0.409E+01   -.591E-04 -.108E-04 -.107E-03
   0.347E+02 -.525E+02 -.263E+02   -.382E+02 0.561E+02 0.286E+02   0.345E+01 -.363E+01 -.228E+01   -.638E-04 0.509E-04 -.274E-04
   0.443E+02 -.543E+02 -.270E+02   -.474E+02 0.577E+02 0.292E+02   0.315E+01 -.349E+01 -.224E+01   -.131E-03 0.374E-03 0.414E-03
   0.437E+02 0.223E+02 0.512E+02   -.469E+02 -.244E+02 -.548E+02   0.327E+01 0.205E+01 0.361E+01   0.259E-04 -.133E-03 -.108E-03
   -.447E+02 -.497E+02 0.268E+02   0.484E+02 0.524E+02 -.294E+02   -.367E+01 -.272E+01 0.269E+01   -.150E-03 0.637E-04 0.399E-03
   -.182E+02 0.290E+02 -.651E+02   0.203E+02 -.323E+02 0.694E+02   -.212E+01 0.327E+01 -.426E+01   0.253E-03 0.126E-04 -.140E-03
   -.325E+02 -.333E+02 0.484E+02   0.354E+02 0.368E+02 -.518E+02   -.286E+01 -.343E+01 0.343E+01   -.401E-04 -.204E-03 0.227E-03
   -.429E+02 0.538E+02 -.320E+02   0.463E+02 -.568E+02 0.345E+02   -.344E+01 0.305E+01 -.256E+01   0.399E-03 -.210E-03 0.558E-03
   0.416E+02 -.173E+02 -.513E+02   -.449E+02 0.192E+02 0.550E+02   0.334E+01 -.189E+01 -.375E+01   -.433E-06 0.171E-03 0.316E-03
   0.306E+02 0.510E+02 0.350E+02   -.335E+02 -.543E+02 -.381E+02   0.294E+01 0.331E+01 0.304E+01   -.670E-04 0.314E-03 0.344E-03
   -.327E+02 -.380E+02 0.521E+02   0.352E+02 0.413E+02 -.558E+02   -.251E+01 -.338E+01 0.369E+01   0.645E-04 -.777E-04 -.296E-03
   -.489E+02 0.477E+02 -.271E+02   0.525E+02 -.503E+02 0.296E+02   -.359E+01 0.260E+01 -.251E+01   0.189E-03 -.339E-03 -.300E-03
   0.324E+02 -.283E+02 -.541E+02   -.348E+02 0.303E+02 0.582E+02   0.242E+01 -.208E+01 -.413E+01   -.135E-03 0.217E-03 -.451E-03
   0.494E+02 0.542E+02 0.126E+02   -.532E+02 -.578E+02 -.141E+02   0.380E+01 0.356E+01 0.159E+01   0.654E-04 -.663E-04 -.451E-03
   0.473E+00 0.364E+00 -.238E+02   -.481E+00 -.296E+00 0.242E+02   0.423E-02 -.685E-01 -.405E+00   0.395E-03 0.203E-03 -.199E-03
   -.247E+01 -.599E+01 -.220E+02   0.250E+01 0.613E+01 0.225E+02   -.264E-01 -.143E+00 -.467E+00   -.245E-03 -.584E-04 0.286E-03
   -.147E+01 -.146E+02 0.112E+02   0.151E+01 0.150E+02 -.115E+02   -.344E-01 -.404E+00 0.233E+00   -.135E-03 -.304E-04 -.385E-03
   -.239E+01 0.865E-01 0.266E+02   0.251E+01 -.132E+00 -.271E+02   -.116E+00 0.448E-01 0.490E+00   0.203E-03 -.277E-03 0.476E-04
   0.161E+00 0.403E+02 0.262E+01   -.210E+00 -.409E+02 -.265E+01   0.507E-01 0.584E+00 0.335E-01   0.390E-04 -.247E-03 0.258E-03
   -.483E+01 0.525E+02 0.142E+02   0.495E+01 -.533E+02 -.144E+02   -.113E+00 0.793E+00 0.252E+00   -.414E-03 0.574E-03 -.226E-03
   0.197E+02 -.248E+02 0.469E+01   -.202E+02 0.253E+02 -.473E+01   0.449E+00 -.505E+00 0.424E-01   0.849E-04 0.375E-03 -.185E-03
   -.221E+02 -.338E+02 0.166E+02   0.224E+02 0.342E+02 -.169E+02   -.325E+00 -.374E+00 0.312E+00   -.154E-02 -.722E-03 0.217E-02
 -----------------------------------------------------------------------------------------------
   0.207E+01 0.278E+01 0.966E+00   0.142E-13 0.213E-13 -.711E-13   -.205E+01 -.277E+01 -.952E+00   -.546E-03 -.231E-03 0.692E-03
 
 
 POSITION                                       TOTAL-FORCE (eV/Angst)
 -----------------------------------------------------------------------------------
      9.43945      1.85539      1.92531        -0.000003     -0.000023     -0.000024
      9.44515      6.82355      6.76915         0.000070      0.000059      0.000027
      0.12769      2.01514      7.58231         0.000015     -0.000007     -0.000023
      0.19575      6.54461      2.68064         0.000079      0.000035      0.000003
      1.70680      4.36698      6.37439        -0.000033     -0.000023      0.000029
      3.17321      6.56411      0.08514        -0.000108      0.000017     -0.000075
      7.60052      1.93974      0.05778        -0.000059      0.000066     -0.000084
      7.91761      8.20198      9.15939         0.000018      0.000003     -0.000074
      1.62847      9.21235      1.62099        -0.000003     -0.000046     -0.000008
      1.94978      0.14196      7.94639         0.000016     -0.000046     -0.000060
      6.78905      9.63465      6.40178        -0.000072     -0.000079      0.000065
      6.72164      0.40178      3.04801         0.000043      0.000060      0.000035
      2.17666      6.96386      4.54180        -0.000019      0.000055      0.000004
      3.15691      1.39936      5.13460        -0.000039     -0.000091      0.000096
      7.61085      6.77051      4.83851        -0.000004     -0.000112      0.000050
      8.06658      3.32747      4.33683        -0.000139      0.000001      0.000017
      2.67177      2.91111      9.38756        -0.000009     -0.000056     -0.000027
      2.82147      4.90760      2.17967        -0.000100      0.000046     -0.000038
      6.72376      4.70687      1.54325         0.000012     -0.000032     -0.000019
      6.60588      5.34146      7.78414        -0.000018     -0.000012     -0.000040
      4.57268      3.01696      7.50416         0.000018     -0.000057      0.000026
      4.50981      7.96083      2.85407        -0.000062     -0.000056      0.000050
      4.99142      2.62829      1.91002         0.000074     -0.000063     -0.000067
      4.99880      7.72660      6.41550        -0.000029     -0.000080     -0.000042
      4.87220      4.74608      4.72925         0.000345     -0.000089      0.000265
      4.83011      9.63841      9.51565        -0.000089      0.000110     -0.000288
      9.63833      4.89966      9.52293         0.000181      0.000129     -0.000179
      0.07524      0.02421      4.67444         0.000012     -0.000138      0.000159
      1.19940      8.57246      5.98091        -0.000125      0.000116     -0.000120
      1.35923      1.09137      3.49464         0.000169      0.000099     -0.000151
      8.58457      8.52885      3.43990         0.000015      0.000034      0.000059
      8.53895      1.33966      5.69210        -0.000089      0.000043      0.000036
      8.42420      6.22047      0.84840        -0.000325      0.000321      0.000323
      8.40295      3.76192      8.33963         0.000064     -0.000049      0.000004
      1.30039      5.89586      8.33572        -0.000123     -0.000263      0.000127
      1.00854      3.73638      1.19670        -0.000084      0.000072     -0.000223
      5.92432      1.20574      8.29104        -0.000164     -0.000110      0.000085
      6.08967      8.61001      1.08687         0.000332     -0.000191      0.000243
      3.50849      1.02930      1.01043        -0.000023     -0.000002     -0.000092
      3.74063      8.35349      8.34741         0.000101      0.000162      0.000124
      5.86287      5.98801      3.42313        -0.000146     -0.000019     -0.000067
      6.21819      3.76596      5.91469         0.000191     -0.000114      0.000124
      3.66114      5.82450      6.00136        -0.000103      0.000027     -0.000189
      3.67533      3.41041      3.73522         0.000076      0.000246      0.000057
      7.23662      7.43511      7.03664        -0.000032      0.000008      0.000057
      7.25691      2.53835      2.26329         0.000044      0.000032     -0.000000
      2.41784      7.13743      2.25645         0.000002      0.000030      0.000034
      2.38736      2.30365      7.18189        -0.000015      0.000014     -0.000040
      9.60605      0.33571      9.51998         0.000039     -0.000046     -0.000024
      9.64758      5.25803      4.77958        -0.000008     -0.000017      0.000020
      4.97915      9.48868      4.71315        -0.000013     -0.000022      0.000016
      4.64719      4.52151      0.04855         0.000119      0.000060     -0.000178
 -----------------------------------------------------------------------------------
    total drift:                                0.016901      0.001960      0.014025


--------------------------------------------------------------------------------------------------------



  FREE ENERGIE OF THE ION-ELECTRON SYSTEM (eV)
  ---------------------------------------------------
  free  energy   TOTEN  =      -272.41463277 eV

  energy  without entropy=     -272.41463277  energy(sigma->0) =     -272.41463277
 
 d Force = 0.2483084E-06[-0.591E-07, 0.556E-06]  d Energy = 0.1415866E-05-0.117E-05
 d Force =-0.2012118E-02[-0.201E-02,-0.201E-02]  d Ewald  =-0.2012118E-02 0.127E-10


--------------------------------------------------------------------------------------------------------


    POTLOK:  cpu time      0.6493: real time      0.6530


--------------------------------------------------------------------------------------------------------


 stress matrix after NEB project (eV)
      0.79063      0.68338      0.83700
      0.68338      0.97719     -0.27262
      0.83700     -0.27262     -1.75939
  FORCES: max atom, RMS     0.000559    0.000187
  FORCE total and by dimension    0.001349    0.000345
  Stress total and by dimension    2.675678    1.759395
 Conjugate gradient step on ions:
 trial-energy change:   -0.000001  1 .order   -0.000000   -0.000001    0.000000
  (g-gl).g = 0.584E-06      g.g   = 0.328E-06  gl.gl    = 0.741E-06
 g(Force)  = 0.328E-06   g(Stress)= 0.000E+00 ortho     =-0.640E-07
 gamma     =   0.78821
 trial     =   2.00086
 opt step  =   1.80857  (harmonic =   1.80857) maximal distance =0.00008742
 next E    =  -272.414632   (d E  =  -0.00000)


--------------------------------------------------------------------------------------------------------


  
 reached required accuracy - stopping structural energy minimisation
     LOOP+:  cpu time      7.8196: real time      7.9219
    4ORBIT:  cpu time      0.0000: real time      0.0000

 total amount of memory used by VASP MPI-rank0    48128. kBytes
=======================================================================

   base      :      30000. kBytes
   nonlr-proj:       6536. kBytes
   fftplans  :       1747. kBytes
   grid      :       5278. kBytes
   one-center:         62. kBytes
   wavefun   :       4505. kBytes
 
  
  
 General timing and accounting informations for this job:
 ========================================================
  
                  Total CPU time used (sec):      128.059
                            User time (sec):      126.775
                          System time (sec):        1.284
                         Elapsed time (sec):      133.239
  
                   Maximum memory used (kb):      388416.
                   Average memory used (kb):          N/A
  
                          Minor page faults:        68874
                          Major page faults:          136
                 Voluntary context switches:         4368
