<?xml version="1.0" encoding="ISO-8859-1"?>
<modeling>
 <generator>
  <i name="program" type="string">vasp </i>
  <i name="version" type="string">6.4.1  </i>
  <i name="subversion" type="string">05Apr23 (build Jun 07 2023 15:38:11) complex                          parallel </i>
  <i name="platform" type="string">LinuxIFC </i>
  <i name="date" type="string">2023 10 23 </i>
  <i name="time" type="string">15:05:20 </i>
 </generator>
 <incar>
  <i type="string" name="PREC">Accu</i>
  <i type="string" name="ALGO">F</i>
  <i type="logical" name="LDIAG"> T  </i>
  <i type="int" name="ISPIN">     2</i>
  <i type="int" name="NELM">   100</i>
  <i type="int" name="NELMDL">   -10</i>
  <i type="int" name="IBRION">     2</i>
  <i name="EDIFF">      0.00000100</i>
  <i name="EDIFFG">     -0.00100000</i>
  <i type="int" name="NSW">  1000</i>
  <i type="int" name="ISIF">     2</i>
  <i name="ENCUT">    520.00000000</i>
  <i name="POTIM">      0.20000000</i>
  <i type="string" name="LREAL">Auto</i>
  <i type="logical" name="LPLANE"> T  </i>
  <i type="int" name="ISMEAR">     0</i>
  <i name="SIGMA">      0.03000000</i>
  <i type="int" name="LMAXMIX">     4</i>
  <i type="logical" name="LWAVE"> F  </i>
  <i type="logical" name="LCHARG"> F  </i>
  <i type="logical" name="LASPH"> T  </i>
  <i type="string" name="GGA">PE</i>
  <i type="int" name="IVDW">    12</i>
 </incar>
 <primitive_cell>
  <structure name="primitive_cell" >
   <crystal>
    <varray name="basis" >
     <v>       9.67066950       0.00000000       0.00000000 </v>
     <v>       0.00000000       9.67066950       0.00000000 </v>
     <v>       0.00000000       0.00000000       9.67066950 </v>
    </varray>
    <i name="volume">    904.41888738 </i>
    <varray name="rec_basis" >
     <v>       0.10340546       0.00000000       0.00000000 </v>
     <v>       0.00000000       0.10340546       0.00000000 </v>
     <v>       0.00000000       0.00000000       0.10340546 </v>
    </varray>
   </crystal>
   <varray name="positions" >
    <v>       0.97608990       0.19186595       0.19909404 </v>
    <v>       0.97668359       0.70561162       0.69996521 </v>
    <v>       0.01321096       0.20837277       0.78405348 </v>
    <v>       0.02023854       0.67675227       0.27718720 </v>
    <v>       0.17649454       0.45157509       0.65914961 </v>
    <v>       0.32810918       0.67876773       0.00880040 </v>
    <v>       0.78594218       0.20057127       0.00598334 </v>
    <v>       0.81872367       0.84812306       0.94713842 </v>
    <v>       0.16840297       0.95260926       0.16761804 </v>
    <v>       0.20162504       0.01468128       0.82168851 </v>
    <v>       0.70202975       0.99627915       0.66197747 </v>
    <v>       0.69505056       0.04154135       0.31517690 </v>
    <v>       0.22505437       0.72008891       0.46963677 </v>
    <v>       0.32644526       0.14470988       0.53094003 </v>
    <v>       0.78700052       0.70011863       0.50032437 </v>
    <v>       0.83410751       0.34407976       0.44845694 </v>
    <v>       0.27627456       0.30101121       0.97072876 </v>
    <v>       0.29178153       0.50747402       0.22534442 </v>
    <v>       0.69527141       0.48670927       0.15958048 </v>
    <v>       0.68312236       0.55232635       0.80487370 </v>
    <v>       0.47284426       0.31195006       0.77598465 </v>
    <v>       0.46633462       0.82318249       0.29513685 </v>
    <v>       0.51613809       0.27178501       0.19751289 </v>
    <v>       0.51690220       0.79897710       0.66340969 </v>
    <v>       0.50381015       0.49077163       0.48904332 </v>
    <v>       0.49946515       0.99665333       0.98397990 </v>
    <v>       0.99665320       0.50665768       0.98471570 </v>
    <v>       0.00778827       0.00251266       0.48336456 </v>
    <v>       0.12403404       0.88644873       0.61844960 </v>
    <v>       0.14055416       0.11285879       0.36136000 </v>
    <v>       0.88769603       0.88194019       0.35570813 </v>
    <v>       0.88298197       0.13853250       0.58859519 </v>
    <v>       0.87109834       0.64322746       0.08773314 </v>
    <v>       0.86891373       0.38899560       0.86236869 </v>
    <v>       0.13445879       0.60966097       0.86195399 </v>
    <v>       0.10428309       0.38636572       0.12373261 </v>
    <v>       0.61261567       0.12466808       0.85735057 </v>
    <v>       0.62970574       0.89031108       0.11239661 </v>
    <v>       0.36280786       0.10643019       0.10449182 </v>
    <v>       0.38680347       0.86380127       0.86317714 </v>
    <v>       0.60625190       0.61918430       0.35397232 </v>
    <v>       0.64298047       0.38940016       0.61161332 </v>
    <v>       0.37857749       0.60229970       0.62055601 </v>
    <v>       0.38003658       0.35267777       0.38624283 </v>
    <v>       0.74830919       0.76883792       0.72762794 </v>
    <v>       0.75040126       0.26247737       0.23404159 </v>
    <v>       0.25001252       0.73804919       0.23332492 </v>
    <v>       0.24687098       0.23821237       0.74264415 </v>
    <v>       0.99332353       0.03471140       0.98441823 </v>
    <v>       0.99760019       0.54372239       0.49423847 </v>
    <v>       0.51487321       0.98118352       0.48737124 </v>
    <v>       0.48051695       0.46753598       0.00504928 </v>
   </varray>
  </structure>
  <varray name="primitive_index" >
   <v type="int" >        1 </v>
   <v type="int" >        2 </v>
   <v type="int" >        3 </v>
   <v type="int" >        4 </v>
   <v type="int" >        5 </v>
   <v type="int" >        6 </v>
   <v type="int" >        7 </v>
   <v type="int" >        8 </v>
   <v type="int" >        9 </v>
   <v type="int" >       10 </v>
   <v type="int" >       11 </v>
   <v type="int" >       12 </v>
   <v type="int" >       13 </v>
   <v type="int" >       14 </v>
   <v type="int" >       15 </v>
   <v type="int" >       16 </v>
   <v type="int" >       17 </v>
   <v type="int" >       18 </v>
   <v type="int" >       19 </v>
   <v type="int" >       20 </v>
   <v type="int" >       21 </v>
   <v type="int" >       22 </v>
   <v type="int" >       23 </v>
   <v type="int" >       24 </v>
   <v type="int" >       25 </v>
   <v type="int" >       26 </v>
   <v type="int" >       27 </v>
   <v type="int" >       28 </v>
   <v type="int" >       29 </v>
   <v type="int" >       30 </v>
   <v type="int" >       31 </v>
   <v type="int" >       32 </v>
   <v type="int" >       33 </v>
   <v type="int" >       34 </v>
   <v type="int" >       35 </v>
   <v type="int" >       36 </v>
   <v type="int" >       37 </v>
   <v type="int" >       38 </v>
   <v type="int" >       39 </v>
   <v type="int" >       40 </v>
   <v type="int" >       41 </v>
   <v type="int" >       42 </v>
   <v type="int" >       43 </v>
   <v type="int" >       44 </v>
   <v type="int" >       45 </v>
   <v type="int" >       46 </v>
   <v type="int" >       47 </v>
   <v type="int" >       48 </v>
   <v type="int" >       49 </v>
   <v type="int" >       50 </v>
   <v type="int" >       51 </v>
   <v type="int" >       52 </v>
  </varray>
 </primitive_cell>
 <kpoints>
  <generation param="Monkhorst-Pack">
   <v type="int" name="divisions">       2        2        2 </v>
   <v name="usershift">      0.00000000       0.00000000       0.00000000 </v>
   <v name="genvec1">      0.50000000       0.00000000       0.00000000 </v>
   <v name="genvec2">      0.00000000       0.50000000       0.00000000 </v>
   <v name="genvec3">      0.00000000       0.00000000       0.50000000 </v>
   <v name="shift">      0.50000000       0.50000000       0.50000000 </v>
  </generation>
  <varray name="kpointlist" >
   <v>       0.25000000       0.25000000       0.25000000 </v>
   <v>      -0.25000000       0.25000000       0.25000000 </v>
   <v>      -0.25000000      -0.25000000       0.25000000 </v>
   <v>       0.25000000      -0.25000000       0.25000000 </v>
  </varray>
  <varray name="weights" >
   <v>       0.25000000 </v>
   <v>       0.25000000 </v>
   <v>       0.25000000 </v>
   <v>       0.25000000 </v>
  </varray>
 </kpoints>
 <parameters>
  <separator name="general" >
   <i type="string" name="SYSTEM">unknown system</i>
   <i type="logical" name="LCOMPAT"> F  </i>
  </separator>
  <separator name="electronic" >
   <i type="string" name="PREC">accu</i>
   <i name="ENMAX">    520.00000000</i>
   <i name="ENAUG">   1041.69900000</i>
   <i name="EDIFF">      0.00000100</i>
   <i type="int" name="IALGO">    68</i>
   <i type="int" name="IWAVPR">    11</i>
   <i type="int" name="NBANDS">   176</i>
   <i type="int" name="NBANDSLOW">    -1</i>
   <i type="int" name="NBANDSHIGH">    -1</i>
   <i name="NELECT">    240.00000000</i>
   <i type="int" name="TURBO">     0</i>
   <i type="int" name="IRESTART">     0</i>
   <i type="int" name="NREBOOT">     0</i>
   <i type="int" name="NMIN">     0</i>
   <i name="EREF">      0.00000000</i>
   <separator name="electronic smearing" >
    <i type="int" name="ISMEAR">     0</i>
    <i name="SIGMA">      0.03000000</i>
    <i name="KSPACING">      0.50000000</i>
    <i type="logical" name="KGAMMA"> T  </i>
    <i type="logical" name="KBLOWUP"> T  </i>
   </separator>
   <separator name="electronic projectors" >
    <i type="logical" name="LREAL"> T  </i>
    <v name="ROPT">     -0.00025000     -0.00025000     -0.00025000     -0.00025000</v>
    <i type="int" name="LMAXPAW">  -100</i>
    <i type="int" name="LMAXMIX">     4</i>
    <i type="logical" name="NLSPLINE"> F  </i>
   </separator>
   <separator name="electronic startup" >
    <i type="int" name="ISTART">     0</i>
    <i type="int" name="ICHARG">     2</i>
    <i type="int" name="INIWAV">     1</i>
   </separator>
   <separator name="electronic spin" >
    <i type="int" name="ISPIN">     2</i>
    <i type="logical" name="LNONCOLLINEAR"> F  </i>
    <v name="MAGMOM">      1.00000000      1.00000000      1.00000000      1.00000000      1.00000000      1.00000000      1.00000000      1.00000000      1.00000000      1.00000000      1.00000000      1.00000000      1.00000000      1.00000000      1.00000000      1.00000000      1.00000000      1.00000000      1.00000000      1.00000000
      1.00000000      1.00000000      1.00000000      1.00000000      1.00000000      1.00000000      1.00000000      1.00000000      1.00000000      1.00000000      1.00000000      1.00000000      1.00000000      1.00000000      1.00000000      1.00000000      1.00000000      1.00000000      1.00000000      1.00000000
      1.00000000      1.00000000      1.00000000      1.00000000      1.00000000      1.00000000      1.00000000      1.00000000      1.00000000      1.00000000      1.00000000      1.00000000</v>
    <i name="NUPDOWN">     -1.00000000</i>
    <i type="logical" name="LSORBIT"> F  </i>
    <v name="SAXIS">      0.00000000      0.00000000      1.00000000</v>
    <i type="logical" name="LSPIRAL"> F  </i>
    <v name="QSPIRAL">      0.00000000      0.00000000      0.00000000</v>
    <i type="logical" name="LZEROZ"> F  </i>
   </separator>
   <separator name="electronic exchange-correlation" >
    <i type="logical" name="LASPH"> T  </i>
    <i type="logical" name="LMETAGGA"> F  </i>
   </separator>
   <separator name="electronic convergence" >
    <i type="int" name="NELM">   100</i>
    <i type="int" name="NELMDL">   -10</i>
    <i type="int" name="NELMIN">     2</i>
    <i name="ENINI">    520.00000000</i>
    <separator name="electronic convergence detail" >
     <i type="logical" name="LDIAG"> T  </i>
     <i type="logical" name="LSUBROT"> F  </i>
     <i name="WEIMIN">      0.00100000</i>
     <i name="EBREAK">      0.00000000</i>
     <i name="DEPER">      0.30000000</i>
     <i type="int" name="NRMM">     4</i>
     <i name="TIME">      0.40000000</i>
    </separator>
   </separator>
   <separator name="electronic mixer" >
    <i name="AMIX">      0.40000000</i>
    <i name="BMIX">      1.00000000</i>
    <i name="AMIN">      0.10000000</i>
    <i name="AMIX_MAG">      1.60000000</i>
    <i name="BMIX_MAG">      1.00000000</i>
    <separator name="electronic mixer details" >
     <i type="int" name="IMIX">     4</i>
     <i type="logical" name="MIXFIRST"> F  </i>
     <i type="int" name="MAXMIX">   -45</i>
     <i name="WC">    100.00000000</i>
     <i type="int" name="INIMIX">     1</i>
     <i type="int" name="MIXPRE">     1</i>
     <i type="int" name="MREMOVE">     5</i>
    </separator>
   </separator>
   <separator name="electronic dipolcorrection" >
    <i type="logical" name="LDIPOL"> F  </i>
    <i type="logical" name="LMONO"> F  </i>
    <i type="int" name="IDIPOL">     0</i>
    <i name="EPSILON">      1.00000000</i>
    <v name="DIPOL">   -100.00000000   -100.00000000   -100.00000000</v>
    <i name="EFIELD">      0.00000000</i>
   </separator>
  </separator>
  <separator name="grids" >
   <i type="int" name="NGX">    72</i>
   <i type="int" name="NGY">    72</i>
   <i type="int" name="NGZ">    72</i>
   <i type="int" name="NGXF">   144</i>
   <i type="int" name="NGYF">   144</i>
   <i type="int" name="NGZF">   144</i>
   <i type="logical" name="ADDGRID"> F  </i>
  </separator>
  <separator name="ionic" >
   <i type="int" name="NSW">  1000</i>
   <i type="int" name="IBRION">     2</i>
   <i type="int" name="MDALGO">     0</i>
   <i type="int" name="ISIF">     2</i>
   <i name="PSTRESS">      0.00000000</i>
   <i name="EDIFFG">     -0.00100000</i>
   <i type="int" name="NFREE">     1</i>
   <i name="POTIM">      0.20000000</i>
   <i name="SMASS">     -3.00000000</i>
   <i name="SCALEE">      1.00000000</i>
  </separator>
  <separator name="ionic md" >
   <i name="TEBEG">      0.00010000</i>
   <i name="TEEND">      0.00010000</i>
   <i type="int" name="NBLOCK">     1</i>
   <i type="int" name="KBLOCK">  1000</i>
   <i type="int" name="NPACO">   256</i>
   <i name="APACO">     10.00000000</i>
  </separator>
  <separator name="symmetry" >
   <i type="int" name="ISYM">     2</i>
   <i name="SYMPREC">      0.00001000</i>
  </separator>
  <separator name="dos" >
   <i type="int" name="LORBIT">     0</i>
   <v name="RWIGS">     -1.00000000     -1.00000000     -1.00000000     -1.00000000</v>
   <i type="int" name="NEDOS">   301</i>
   <i name="EMIN">     10.00000000</i>
   <i name="EMAX">    -10.00000000</i>
   <i name="EFERMI">      0.00000000</i>
  </separator>
  <separator name="writing" >
   <i type="int" name="NWRITE">     2</i>
   <i type="logical" name="LWAVE"> F  </i>
   <i type="logical" name="LDOWNSAMPLE"> F  </i>
   <i type="logical" name="LCHARG"> F  </i>
   <i type="logical" name="LPARD"> F  </i>
   <i type="logical" name="LVTOT"> F  </i>
   <i type="logical" name="LVHAR"> F  </i>
   <i type="logical" name="LELF"> F  </i>
   <i type="logical" name="LOPTICS"> F  </i>
   <v name="STM">      0.00000000      0.00000000      0.00000000      0.00000000      0.00000000      0.00000000      0.00000000</v>
  </separator>
  <separator name="performance" >
   <i type="int" name="NPAR">     4</i>
   <i type="int" name="NSIM">     4</i>
   <i type="int" name="NBLK">    -1</i>
   <i type="logical" name="LPLANE"> T  </i>
   <i type="logical" name="LSCALAPACK"> T  </i>
   <i type="logical" name="LSCAAWARE"> F  </i>
   <i type="logical" name="LSCALU"> F  </i>
   <i type="logical" name="LASYNC"> F  </i>
   <i type="logical" name="LORBITALREAL"> F  </i>
  </separator>
  <separator name="miscellaneous" >
   <i type="int" name="IDIOT">     3</i>
   <i type="int" name="PHON_NSTRUCT">    -1</i>
   <i type="logical" name="LMUSIC"> F  </i>
   <v name="POMASS">      7.01000000     30.97400000     32.06600000     35.45300000</v>
   <v name="DARWINR">      0.00000000      0.00000000      0.00000000      0.00000000</v>
   <v name="DARWINV">      1.00000000      1.00000000      1.00000000      1.00000000</v>
   <i type="logical" name="LCORR"> T  </i>
  </separator>
  <i type="logical" name="GGA_COMPAT"> T  </i>
  <i type="logical" name="LBERRY"> F  </i>
  <i type="int" name="ICORELEVEL">     0</i>
  <i type="logical" name="LDAU"> F  </i>
  <i type="int" name="I_CONSTRAINED_M">     0</i>
  <separator name="electronic exchange-correlation" >
   <i type="string" name="GGA">PE</i>
   <i type="int" name="VOSKOWN">     0</i>
   <i type="logical" name="LHFCALC"> F  </i>
   <i type="string" name="PRECFOCK"></i>
   <i type="logical" name="LSYMGRAD"> F  </i>
   <i type="logical" name="LHFONE"> F  </i>
   <i type="logical" name="LRHFCALC"> F  </i>
   <i type="logical" name="LTHOMAS"> F  </i>
   <i type="logical" name="LMODELHF"> F  </i>
   <i type="logical" name="LFOCKACE"> F  </i>
   <i name="ENCUT4O">     -1.00000000</i>
   <i type="int" name="EXXOEP">     0</i>
   <i type="int" name="FOURORBIT">     0</i>
   <i name="AEXX">      0.00000000</i>
   <i name="HFALPHA">      0.00000000</i>
   <i name="MCALPHA">      0.00000000</i>
   <i name="ALDAX">      1.00000000</i>
   <i name="AGGAX">      1.00000000</i>
   <i name="ALDAC">      1.00000000</i>
   <i name="AGGAC">      1.00000000</i>
   <i type="int" name="NKREDX">     1</i>
   <i type="int" name="NKREDY">     1</i>
   <i type="int" name="NKREDZ">     1</i>
   <i type="logical" name="SHIFTRED"> F  </i>
   <i type="logical" name="ODDONLY"> F  </i>
   <i type="logical" name="EVENONLY"> F  </i>
   <i type="int" name="LMAXFOCK">     0</i>
   <i type="int" name="NMAXFOCKAE">     0</i>
   <i type="logical" name="LFOCKAEDFT"> F  </i>
   <i name="HFSCREEN">      0.00000000</i>
   <i name="HFSCREENC">      0.00000000</i>
   <i type="int" name="NBANDSGWLOW">     0</i>
  </separator>
  <separator name="vdW DFT" >
   <i type="logical" name="LUSE_VDW"> F  </i>
   <i type="int" name="IVDW_NL">     1</i>
   <i type="logical" name="LSPIN_VDW"> F  </i>
   <i name="Zab_VDW">     -0.84910000</i>
   <i name="PARAM1">      0.12340000</i>
   <i name="PARAM2">      1.00000000</i>
   <i name="PARAM3">      0.00000000</i>
  </separator>
  <separator name="model GW" >
   <i type="int" name="MODEL_GW">     0</i>
   <i name="MODEL_EPS0">     10.43560255</i>
   <i name="MODEL_ALPHA">      1.00000000</i>
  </separator>
  <separator name="linear response parameters" >
   <i type="logical" name="LEPSILON"> F  </i>
   <i type="logical" name="LRPA"> F  </i>
   <i type="logical" name="LNABLA"> F  </i>
   <i type="logical" name="LVEL"> F  </i>
   <i name="CSHIFT">      0.10000000</i>
   <i name="OMEGAMAX">     -1.00000000</i>
   <i name="DEG_THRESHOLD">      0.00200000</i>
   <i name="RTIME">     -0.10000000</i>
   <i name="WPLASMAI">      0.00000000</i>
   <v name="DFIELD">      0.00000000      0.00000000      0.00000000</v>
   <v name="WPLASMA">      0.00000000      0.00000000      0.00000000      0.00000000      0.00000000      0.00000000      0.00000000      0.00000000      0.00000000</v>
  </separator>
  <separator name="orbital magnetization" >
   <i type="logical" name="NUCIND"> F  </i>
   <v name="MAGPOS">      0.00000000      0.00000000      0.00000000</v>
   <i type="logical" name="LNICSALL"> T  </i>
   <i type="logical" name="ORBITALMAG"> F  </i>
   <i type="logical" name="LMAGBLOCH"> F  </i>
   <i type="logical" name="LCHIMAG"> F  </i>
   <i type="logical" name="LGAUGE"> T  </i>
   <i type="int" name="MAGATOM">     0</i>
   <v name="MAGDIPOL">      0.00000000      0.00000000      0.00000000</v>
   <v name="AVECCONST">      0.00000000      0.00000000      0.00000000</v>
  </separator>
  <separator name="response functions" >
   <i type="logical" name="LALL_IN_ONE"> F  </i>
   <i type="int" name="IALL_IN_ONE">    -1</i>
   <i type="int" name="NBANDS_WAVE">    -1</i>
   <i type="logical" name="LFINITE_TEMPERATURE"> F  </i>
   <i type="logical" name="LADDER"> F  </i>
   <i type="logical" name="LRPAFORCE"> F  </i>
   <i type="logical" name="LFXC"> F  </i>
   <i type="logical" name="LHARTREE"> T  </i>
   <i type="int" name="IBSE">     0</i>
   <v type="int" name="KPOINT">    -1     0     0     0</v>
   <i type="logical" name="LTCTC"> F  </i>
   <i type="logical" name="LTCTE"> F  </i>
   <i type="logical" name="LTETE"> F  </i>
   <i type="logical" name="LTRIPLET"> F  </i>
   <i type="logical" name="LFXCEPS"> F  </i>
   <i type="logical" name="LFXHEG"> F  </i>
   <i type="int" name="NATURALO">     2</i>
   <i type="logical" name="LHOLEGF"> F  </i>
   <i type="logical" name="L2ORDER"> F  </i>
   <i type="logical" name="LDMP1"> F  </i>
   <i type="logical" name="LMP2LT"> F  </i>
   <i type="logical" name="LSMP2LT"> F  </i>
   <i type="logical" name="LGWLF"> F  </i>
   <i name="ENCUTGW">     -1.60000002</i>
   <i name="ENCUTGWSOFT">     -1.60000002</i>
   <i name="ENCUTLF">     -1.00000000</i>
   <i type="logical" name="LESF_SPLINES"> F  </i>
   <i type="int" name="LMAXMP2">    -1</i>
   <i name="SCISSOR">      0.00000000</i>
   <i type="int" name="NOMEGA">     0</i>
   <i type="int" name="NOMEGAR">     0</i>
   <i type="int" name="NBANDSGW">    -1</i>
   <i type="int" name="NBANDSO">    -1</i>
   <i type="int" name="NBANDSV">    -1</i>
   <i type="int" name="NELMGW">     1</i>
   <i type="int" name="NELMHF">     1</i>
   <i type="int" name="DIM">     3</i>
   <i type="int" name="IESPILON">     4</i>
   <i type="int" name="ANTIRES">     0</i>
   <i name="OMEGAMAX">    -30.00000000</i>
   <i name="OMEGAMIN">    -30.00000000</i>
   <i name="OMEGATL">   -200.00000000</i>
   <i type="int" name="OMEGAGRID">     0</i>
   <i name="CSHIFT">     -0.10000000</i>
   <i type="logical" name="LSELFENERGY"> F  </i>
   <i type="logical" name="LSPECTRAL"> F  </i>
   <i type="logical" name="LSPECTRALGW"> F  </i>
   <i type="logical" name="LSINGLES"> F  </i>
   <i type="logical" name="LFERMIGW"> F  </i>
   <i type="logical" name="ODDONLYGW"> F  </i>
   <i type="logical" name="EVENONLYGW"> F  </i>
   <i type="int" name="NKREDLFX">     1</i>
   <i type="int" name="NKREDLFY">     1</i>
   <i type="int" name="NKREDLFZ">     1</i>
   <i type="int" name="MAXMEM">  2800</i>
   <i type="int" name="TELESCOPE">     0</i>
   <i type="int" name="NTAUPAR">    -1</i>
   <i type="int" name="NOMEGAPAR">    -1</i>
   <i name="DAMP_NEWTON">      0.80000001</i>
   <i name="LAMBDA">      1.00000000</i>
  </separator>
  <separator name="External order field" >
   <i name="OFIELD_KAPPA">      0.00000000</i>
   <v name="OFIELD_K">      0.00000000      0.00000000      0.00000000</v>
   <i name="OFIELD_Q6_NEAR">      0.00000000</i>
   <i name="OFIELD_Q6_FAR">      0.00000000</i>
   <i name="OFIELD_A">      0.00000000</i>
  </separator>
  <separator name="optional k-points parameters" >
   <i type="int" name="KPOINTS_OPT_MODE">     1</i>
   <i type="logical" name="LKPOINTS_OPT"> F  </i>
  </separator>
 </parameters>
 <atominfo>
  <atoms>      52 </atoms>
  <types>       4 </types>
  <array name="atoms" >
   <dimension dim="1">ion</dimension>
   <field type="string">element</field>
   <field type="int">atomtype</field>
   <set>
    <rc><c>Li</c><c>   1</c></rc>
    <rc><c>Li</c><c>   1</c></rc>
    <rc><c>Li</c><c>   1</c></rc>
    <rc><c>Li</c><c>   1</c></rc>
    <rc><c>Li</c><c>   1</c></rc>
    <rc><c>Li</c><c>   1</c></rc>
    <rc><c>Li</c><c>   1</c></rc>
    <rc><c>Li</c><c>   1</c></rc>
    <rc><c>Li</c><c>   1</c></rc>
    <rc><c>Li</c><c>   1</c></rc>
    <rc><c>Li</c><c>   1</c></rc>
    <rc><c>Li</c><c>   1</c></rc>
    <rc><c>Li</c><c>   1</c></rc>
    <rc><c>Li</c><c>   1</c></rc>
    <rc><c>Li</c><c>   1</c></rc>
    <rc><c>Li</c><c>   1</c></rc>
    <rc><c>Li</c><c>   1</c></rc>
    <rc><c>Li</c><c>   1</c></rc>
    <rc><c>Li</c><c>   1</c></rc>
    <rc><c>Li</c><c>   1</c></rc>
    <rc><c>Li</c><c>   1</c></rc>
    <rc><c>Li</c><c>   1</c></rc>
    <rc><c>Li</c><c>   1</c></rc>
    <rc><c>Li</c><c>   1</c></rc>
    <rc><c>P </c><c>   2</c></rc>
    <rc><c>P </c><c>   2</c></rc>
    <rc><c>P </c><c>   2</c></rc>
    <rc><c>P </c><c>   2</c></rc>
    <rc><c>S </c><c>   3</c></rc>
    <rc><c>S </c><c>   3</c></rc>
    <rc><c>S </c><c>   3</c></rc>
    <rc><c>S </c><c>   3</c></rc>
    <rc><c>S </c><c>   3</c></rc>
    <rc><c>S </c><c>   3</c></rc>
    <rc><c>S </c><c>   3</c></rc>
    <rc><c>S </c><c>   3</c></rc>
    <rc><c>S </c><c>   3</c></rc>
    <rc><c>S </c><c>   3</c></rc>
    <rc><c>S </c><c>   3</c></rc>
    <rc><c>S </c><c>   3</c></rc>
    <rc><c>S </c><c>   3</c></rc>
    <rc><c>S </c><c>   3</c></rc>
    <rc><c>S </c><c>   3</c></rc>
    <rc><c>S </c><c>   3</c></rc>
    <rc><c>S </c><c>   3</c></rc>
    <rc><c>S </c><c>   3</c></rc>
    <rc><c>S </c><c>   3</c></rc>
    <rc><c>S </c><c>   3</c></rc>
    <rc><c>Cl</c><c>   4</c></rc>
    <rc><c>Cl</c><c>   4</c></rc>
    <rc><c>Cl</c><c>   4</c></rc>
    <rc><c>Cl</c><c>   4</c></rc>
   </set>
  </array>
  <array name="atomtypes" >
   <dimension dim="1">type</dimension>
   <field type="int">atomspertype</field>
   <field type="string">element</field>
   <field>mass</field>
   <field>valence</field>
   <field type="string">pseudopotential</field>
   <set>
    <rc><c>  24</c><c>Li</c><c>      7.01000000</c><c>      3.00000000</c><c>  PAW_PBE Li_sv_GW 25Mar2010            </c></rc>
    <rc><c>   4</c><c>P </c><c>     30.97400000</c><c>      5.00000000</c><c>  PAW_PBE P_GW 19Mar2012                </c></rc>
    <rc><c>  20</c><c>S </c><c>     32.06600000</c><c>      6.00000000</c><c>  PAW_PBE S_GW 19Mar2012                </c></rc>
    <rc><c>   4</c><c>Cl</c><c>     35.45300000</c><c>      7.00000000</c><c>  PAW_PBE Cl_GW 19Mar2012               </c></rc>
   </set>
  </array>
 </atominfo>
 <structure name="initialpos" >
  <crystal>
   <varray name="basis" >
    <v>       9.67066950       0.00000000       0.00000000 </v>
    <v>       0.00000000       9.67066950       0.00000000 </v>
    <v>       0.00000000       0.00000000       9.67066950 </v>
   </varray>
   <i name="volume">    904.41888738 </i>
   <varray name="rec_basis" >
    <v>       0.10340546       0.00000000       0.00000000 </v>
    <v>       0.00000000       0.10340546       0.00000000 </v>
    <v>       0.00000000       0.00000000       0.10340546 </v>
   </varray>
  </crystal>
  <varray name="positions" >
   <v>       0.97608990       0.19186595       0.19909404 </v>
   <v>       0.97668359       0.70561162       0.69996521 </v>
   <v>       0.01321096       0.20837277       0.78405348 </v>
   <v>       0.02023854       0.67675227       0.27718720 </v>
   <v>       0.17649454       0.45157509       0.65914961 </v>
   <v>       0.32810918       0.67876773       0.00880040 </v>
   <v>       0.78594218       0.20057127       0.00598334 </v>
   <v>       0.81872367       0.84812306       0.94713842 </v>
   <v>       0.16840297       0.95260926       0.16761804 </v>
   <v>       0.20162504       0.01468128       0.82168851 </v>
   <v>       0.70202975       0.99627915       0.66197747 </v>
   <v>       0.69505056       0.04154135       0.31517690 </v>
   <v>       0.22505437       0.72008891       0.46963677 </v>
   <v>       0.32644526       0.14470988       0.53094003 </v>
   <v>       0.78700052       0.70011863       0.50032437 </v>
   <v>       0.83410751       0.34407976       0.44845694 </v>
   <v>       0.27627456       0.30101121       0.97072876 </v>
   <v>       0.29178153       0.50747402       0.22534442 </v>
   <v>       0.69527141       0.48670927       0.15958048 </v>
   <v>       0.68312236       0.55232635       0.80487370 </v>
   <v>       0.47284426       0.31195006       0.77598465 </v>
   <v>       0.46633462       0.82318249       0.29513685 </v>
   <v>       0.51613809       0.27178501       0.19751289 </v>
   <v>       0.51690220       0.79897710       0.66340969 </v>
   <v>       0.50381015       0.49077163       0.48904332 </v>
   <v>       0.49946515       0.99665333       0.98397990 </v>
   <v>       0.99665320       0.50665768       0.98471570 </v>
   <v>       0.00778827       0.00251266       0.48336456 </v>
   <v>       0.12403404       0.88644873       0.61844960 </v>
   <v>       0.14055416       0.11285879       0.36136000 </v>
   <v>       0.88769603       0.88194019       0.35570813 </v>
   <v>       0.88298197       0.13853250       0.58859519 </v>
   <v>       0.87109834       0.64322746       0.08773314 </v>
   <v>       0.86891373       0.38899560       0.86236869 </v>
   <v>       0.13445879       0.60966097       0.86195399 </v>
   <v>       0.10428309       0.38636572       0.12373261 </v>
   <v>       0.61261567       0.12466808       0.85735057 </v>
   <v>       0.62970574       0.89031108       0.11239661 </v>
   <v>       0.36280786       0.10643019       0.10449182 </v>
   <v>       0.38680347       0.86380127       0.86317714 </v>
   <v>       0.60625190       0.61918430       0.35397232 </v>
   <v>       0.64298047       0.38940016       0.61161332 </v>
   <v>       0.37857749       0.60229970       0.62055601 </v>
   <v>       0.38003658       0.35267777       0.38624283 </v>
   <v>       0.74830919       0.76883792       0.72762794 </v>
   <v>       0.75040126       0.26247737       0.23404159 </v>
   <v>       0.25001252       0.73804919       0.23332492 </v>
   <v>       0.24687098       0.23821237       0.74264415 </v>
   <v>       0.99332353       0.03471140       0.98441823 </v>
   <v>       0.99760019       0.54372239       0.49423847 </v>
   <v>       0.51487321       0.98118352       0.48737124 </v>
   <v>       0.48051695       0.46753598       0.00504928 </v>
  </varray>
 </structure>
 <calculation>
  <scstep>
   <time name="dav">    2.22    2.43</time>
   <time name="total">    2.68    2.92</time>
   <energy>
    <i name="alphaZ">    300.14577036 </i>
    <i name="ewald">  -8799.96636779 </i>
    <i name="hartreedc">  -2120.39843220 </i>
    <i name="XCdc">    534.12773762 </i>
    <i name="pawpsdc">   8141.38806575 </i>
    <i name="pawaedc">  -8271.61346273 </i>
    <i name="eentropy">     -0.01145676 </i>
    <i name="bandstr">   -898.84430366 </i>
    <i name="atom">  12703.13999606 </i>
    <i name="e_fr_energy">   1587.96754666 </i>
    <i name="e_wo_entrp">   1587.97900342 </i>
    <i name="e_0_energy">   1587.97327504 </i>
   </energy>
  </scstep>
  <scstep>
   <time name="dav">    2.65    2.68</time>
   <time name="total">    2.65    2.68</time>
   <energy>
    <i name="e_fr_energy">    -58.09238753 </i>
    <i name="e_wo_entrp">    -58.09238753 </i>
    <i name="e_0_energy">    -58.09238753 </i>
   </energy>
  </scstep>
  <scstep>
   <time name="dav">    2.58    2.61</time>
   <time name="total">    2.58    2.61</time>
   <energy>
    <i name="e_fr_energy">   -228.82321191 </i>
    <i name="e_wo_entrp">   -228.82321191 </i>
    <i name="e_0_energy">   -228.82321191 </i>
   </energy>
  </scstep>
  <scstep>
   <time name="dav">    3.13    3.17</time>
   <time name="total">    3.13    3.17</time>
   <energy>
    <i name="e_fr_energy">   -242.16572107 </i>
    <i name="e_wo_entrp">   -242.16572107 </i>
    <i name="e_0_energy">   -242.16572107 </i>
   </energy>
  </scstep>
  <scstep>
   <time name="dav">    2.95    2.99</time>
   <time name="total">    2.95    2.99</time>
   <energy>
    <i name="e_fr_energy">   -242.38269765 </i>
    <i name="e_wo_entrp">   -242.38269765 </i>
    <i name="e_0_energy">   -242.38269765 </i>
   </energy>
  </scstep>
  <scstep>
   <time name="dav">    3.06    3.10</time>
   <time name="total">    3.06    3.10</time>
   <energy>
    <i name="e_fr_energy">   -242.39362498 </i>
    <i name="e_wo_entrp">   -242.39362498 </i>
    <i name="e_0_energy">   -242.39362498 </i>
   </energy>
  </scstep>
  <scstep>
   <time name="dav">    3.01    3.05</time>
   <time name="total">    3.01    3.05</time>
   <energy>
    <i name="e_fr_energy">   -242.39399433 </i>
    <i name="e_wo_entrp">   -242.39399433 </i>
    <i name="e_0_energy">   -242.39399433 </i>
   </energy>
  </scstep>
  <scstep>
   <time name="dav">    3.07    3.11</time>
   <time name="total">    3.07    3.12</time>
   <energy>
    <i name="e_fr_energy">   -242.39401596 </i>
    <i name="e_wo_entrp">   -242.39401596 </i>
    <i name="e_0_energy">   -242.39401596 </i>
   </energy>
  </scstep>
  <scstep>
   <time name="dav">    2.98    3.02</time>
   <time name="total">    2.98    3.02</time>
   <energy>
    <i name="e_fr_energy">   -242.39401736 </i>
    <i name="e_wo_entrp">   -242.39401736 </i>
    <i name="e_0_energy">   -242.39401736 </i>
   </energy>
  </scstep>
  <scstep>
   <time name="dav">    2.00    2.02</time>
   <time name="total">    2.07    2.10</time>
   <energy>
    <i name="e_fr_energy">   -242.39401741 </i>
    <i name="e_wo_entrp">   -242.39401741 </i>
    <i name="e_0_energy">   -242.39401741 </i>
   </energy>
  </scstep>
  <scstep>
   <time name="diag">    0.36    0.37</time>
   <time name="diis">    1.15    1.17</time>
   <time name="orth">    0.07    0.07</time>
   <time name="total">    2.10    2.15</time>
   <energy>
    <i name="e_fr_energy">   -236.33394738 </i>
    <i name="e_wo_entrp">   -236.33394738 </i>
    <i name="e_0_energy">   -236.33394738 </i>
   </energy>
  </scstep>
  <scstep>
   <time name="diag">    0.36    0.36</time>
   <time name="diis">    1.21    1.23</time>
   <time name="orth">    0.07    0.07</time>
   <time name="total">    2.16    2.19</time>
   <energy>
    <i name="e_fr_energy">   -256.19685432 </i>
    <i name="e_wo_entrp">   -256.19685432 </i>
    <i name="e_0_energy">   -256.19685432 </i>
   </energy>
  </scstep>
  <scstep>
   <time name="diag">    0.36    0.36</time>
   <time name="diis">    1.19    1.21</time>
   <time name="orth">    0.07    0.07</time>
   <time name="total">    2.14    2.16</time>
   <energy>
    <i name="e_fr_energy">   -258.67984892 </i>
    <i name="e_wo_entrp">   -258.67984892 </i>
    <i name="e_0_energy">   -258.67984892 </i>
   </energy>
  </scstep>
  <scstep>
   <time name="diag">    0.36    0.36</time>
   <time name="diis">    1.55    1.57</time>
   <time name="orth">    0.07    0.07</time>
   <time name="total">    2.50    2.53</time>
   <energy>
    <i name="e_fr_energy">   -258.88217494 </i>
    <i name="e_wo_entrp">   -258.88217494 </i>
    <i name="e_0_energy">   -258.88217494 </i>
   </energy>
  </scstep>
  <scstep>
   <time name="diag">    0.36    0.36</time>
   <time name="diis">    1.26    1.27</time>
   <time name="orth">    0.07    0.07</time>
   <time name="total">    2.21    2.23</time>
   <energy>
    <i name="e_fr_energy">   -258.85490923 </i>
    <i name="e_wo_entrp">   -258.85490923 </i>
    <i name="e_0_energy">   -258.85490923 </i>
   </energy>
  </scstep>
  <scstep>
   <time name="diag">    0.36    0.36</time>
   <time name="diis">    1.28    1.29</time>
   <time name="orth">    0.07    0.07</time>
   <time name="total">    2.22    2.25</time>
   <energy>
    <i name="e_fr_energy">   -258.87479007 </i>
    <i name="e_wo_entrp">   -258.87479007 </i>
    <i name="e_0_energy">   -258.87479007 </i>
   </energy>
  </scstep>
  <scstep>
   <time name="diag">    0.36    0.36</time>
   <time name="diis">    1.44    1.46</time>
   <time name="orth">    0.06    0.07</time>
   <time name="total">    2.39    2.41</time>
   <energy>
    <i name="e_fr_energy">   -258.88102084 </i>
    <i name="e_wo_entrp">   -258.88102084 </i>
    <i name="e_0_energy">   -258.88102084 </i>
   </energy>
  </scstep>
  <scstep>
   <time name="diag">    0.36    0.36</time>
   <time name="diis">    1.40    1.42</time>
   <time name="orth">    0.07    0.07</time>
   <time name="total">    2.35    2.38</time>
   <energy>
    <i name="e_fr_energy">   -258.88226441 </i>
    <i name="e_wo_entrp">   -258.88226441 </i>
    <i name="e_0_energy">   -258.88226441 </i>
   </energy>
  </scstep>
  <scstep>
   <time name="diag">    0.36    0.36</time>
   <time name="diis">    1.59    1.61</time>
   <time name="orth">    0.07    0.07</time>
   <time name="total">    2.54    2.57</time>
   <energy>
    <i name="e_fr_energy">   -258.88278793 </i>
    <i name="e_wo_entrp">   -258.88278793 </i>
    <i name="e_0_energy">   -258.88278793 </i>
   </energy>
  </scstep>
  <scstep>
   <time name="diag">    0.36    0.36</time>
   <time name="diis">    1.57    1.59</time>
   <time name="orth">    0.07    0.07</time>
   <time name="total">    2.52    2.76</time>
   <energy>
    <i name="e_fr_energy">   -258.88289203 </i>
    <i name="e_wo_entrp">   -258.88289203 </i>
    <i name="e_0_energy">   -258.88289203 </i>
   </energy>
  </scstep>
  <scstep>
   <time name="diag">    0.36    0.36</time>
   <time name="diis">    1.43    1.45</time>
   <time name="orth">    0.06    0.06</time>
   <time name="total">    2.38    2.40</time>
   <energy>
    <i name="e_fr_energy">   -258.88291136 </i>
    <i name="e_wo_entrp">   -258.88291136 </i>
    <i name="e_0_energy">   -258.88291136 </i>
   </energy>
  </scstep>
  <scstep>
   <time name="diag">    0.36    0.36</time>
   <time name="diis">    1.56    1.58</time>
   <time name="orth">    0.07    0.07</time>
   <time name="total">    2.52    2.54</time>
   <energy>
    <i name="e_fr_energy">   -258.88291794 </i>
    <i name="e_wo_entrp">   -258.88291794 </i>
    <i name="e_0_energy">   -258.88291794 </i>
   </energy>
  </scstep>
  <scstep>
   <time name="diag">    0.36    0.36</time>
   <time name="diis">    1.28    1.29</time>
   <time name="orth">    0.07    0.07</time>
   <time name="total">    2.22    2.25</time>
   <energy>
    <i name="e_fr_energy">   -258.88291791 </i>
    <i name="e_wo_entrp">   -258.88291791 </i>
    <i name="e_0_energy">   -258.88291791 </i>
   </energy>
  </scstep>
  <scstep>
   <time name="diag">    0.36    0.36</time>
   <time name="diis">    0.95    0.96</time>
   <time name="orth">    0.07    0.07</time>
   <time name="total">    1.83    1.85</time>
   <energy>
    <i name="alphaZ">    300.14577036 </i>
    <i name="ewald">  -8799.96636779 </i>
    <i name="hartreedc">  -2221.57655776 </i>
    <i name="XCdc">    537.85157860 </i>
    <i name="pawpsdc">   9823.35978293 </i>
    <i name="pawaedc">  -9967.40633319 </i>
    <i name="eentropy">     -0.00000000 </i>
    <i name="bandstr">  -2634.43078655 </i>
    <i name="atom">  12703.13999606 </i>
    <i name="e_fr_energy">   -258.88291733 </i>
    <i name="e_wo_entrp">   -258.88291733 </i>
    <i name="e_0_energy">   -258.88291733 </i>
   </energy>
  </scstep>
  <structure>
   <crystal>
    <varray name="basis" >
     <v>       9.67066950       0.00000000       0.00000000 </v>
     <v>       0.00000000       9.67066950       0.00000000 </v>
     <v>       0.00000000       0.00000000       9.67066950 </v>
    </varray>
    <i name="volume">    904.41888738 </i>
    <varray name="rec_basis" >
     <v>       0.10340546       0.00000000       0.00000000 </v>
     <v>       0.00000000       0.10340546       0.00000000 </v>
     <v>       0.00000000       0.00000000       0.10340546 </v>
    </varray>
   </crystal>
   <varray name="positions" >
    <v>       0.97608990       0.19186595       0.19909404 </v>
    <v>       0.97668359       0.70561162       0.69996521 </v>
    <v>       0.01321096       0.20837277       0.78405348 </v>
    <v>       0.02023854       0.67675227       0.27718720 </v>
    <v>       0.17649454       0.45157509       0.65914961 </v>
    <v>       0.32810918       0.67876773       0.00880040 </v>
    <v>       0.78594218       0.20057127       0.00598334 </v>
    <v>       0.81872367       0.84812306       0.94713842 </v>
    <v>       0.16840297       0.95260926       0.16761804 </v>
    <v>       0.20162504       0.01468128       0.82168851 </v>
    <v>       0.70202975       0.99627915       0.66197747 </v>
    <v>       0.69505056       0.04154135       0.31517690 </v>
    <v>       0.22505437       0.72008891       0.46963677 </v>
    <v>       0.32644526       0.14470988       0.53094003 </v>
    <v>       0.78700052       0.70011863       0.50032437 </v>
    <v>       0.83410751       0.34407976       0.44845694 </v>
    <v>       0.27627456       0.30101121       0.97072876 </v>
    <v>       0.29178153       0.50747402       0.22534442 </v>
    <v>       0.69527141       0.48670927       0.15958048 </v>
    <v>       0.68312236       0.55232635       0.80487370 </v>
    <v>       0.47284426       0.31195006       0.77598465 </v>
    <v>       0.46633462       0.82318249       0.29513685 </v>
    <v>       0.51613809       0.27178501       0.19751289 </v>
    <v>       0.51690220       0.79897710       0.66340969 </v>
    <v>       0.50381015       0.49077163       0.48904332 </v>
    <v>       0.49946515       0.99665333       0.98397990 </v>
    <v>       0.99665320       0.50665768       0.98471570 </v>
    <v>       0.00778827       0.00251266       0.48336456 </v>
    <v>       0.12403404       0.88644873       0.61844960 </v>
    <v>       0.14055416       0.11285879       0.36136000 </v>
    <v>       0.88769603       0.88194019       0.35570813 </v>
    <v>       0.88298197       0.13853250       0.58859519 </v>
    <v>       0.87109834       0.64322746       0.08773314 </v>
    <v>       0.86891373       0.38899560       0.86236869 </v>
    <v>       0.13445879       0.60966097       0.86195399 </v>
    <v>       0.10428309       0.38636572       0.12373261 </v>
    <v>       0.61261567       0.12466808       0.85735057 </v>
    <v>       0.62970574       0.89031108       0.11239661 </v>
    <v>       0.36280786       0.10643019       0.10449182 </v>
    <v>       0.38680347       0.86380127       0.86317714 </v>
    <v>       0.60625190       0.61918430       0.35397232 </v>
    <v>       0.64298047       0.38940016       0.61161332 </v>
    <v>       0.37857749       0.60229970       0.62055601 </v>
    <v>       0.38003658       0.35267777       0.38624283 </v>
    <v>       0.74830919       0.76883792       0.72762794 </v>
    <v>       0.75040126       0.26247737       0.23404159 </v>
    <v>       0.25001252       0.73804919       0.23332492 </v>
    <v>       0.24687098       0.23821237       0.74264415 </v>
    <v>       0.99332353       0.03471140       0.98441823 </v>
    <v>       0.99760019       0.54372239       0.49423847 </v>
    <v>       0.51487321       0.98118352       0.48737124 </v>
    <v>       0.48051695       0.46753598       0.00504928 </v>
   </varray>
  </structure>
  <varray name="forces" >
   <v>       0.00005905      -0.00036935      -0.00031712 </v>
   <v>      -0.00024284      -0.00076833       0.00004860 </v>
   <v>      -0.00039793       0.00022334      -0.00003217 </v>
   <v>       0.00006925      -0.00011051       0.00024939 </v>
   <v>      -0.00012221      -0.00035654      -0.00019195 </v>
   <v>       0.00077738      -0.00010104       0.00021078 </v>
   <v>      -0.00030686       0.00037941      -0.00038671 </v>
   <v>       0.00003066       0.00031231      -0.00029414 </v>
   <v>      -0.00049996      -0.00000793       0.00010167 </v>
   <v>      -0.00030920      -0.00001965       0.00056066 </v>
   <v>      -0.00020921      -0.00012858       0.00008506 </v>
   <v>       0.00020703       0.00022800       0.00017670 </v>
   <v>       0.00101603       0.00051234       0.00032609 </v>
   <v>      -0.00014580      -0.00029244       0.00016657 </v>
   <v>       0.00009678      -0.00043141       0.00006462 </v>
   <v>       0.00090537      -0.00003330      -0.00026422 </v>
   <v>       0.00001675       0.00055269      -0.00010237 </v>
   <v>      -0.00110328      -0.00013113       0.00193499 </v>
   <v>       0.00005188       0.00036151       0.00002753 </v>
   <v>      -0.00151890       0.00037125       0.00211543 </v>
   <v>      -0.00017581       0.00075145      -0.00048478 </v>
   <v>       0.00020452       0.00043696      -0.00041561 </v>
   <v>       0.00002330      -0.00025413      -0.00024795 </v>
   <v>       0.00010391      -0.00018693      -0.00057649 </v>
   <v>       0.00001651      -0.00013717      -0.00251694 </v>
   <v>      -0.00015541       0.00142451      -0.00022188 </v>
   <v>      -0.00087390      -0.00075353       0.00154134 </v>
   <v>      -0.00101073      -0.00050518      -0.00112329 </v>
   <v>       0.00006273      -0.00072977       0.00104989 </v>
   <v>       0.00016121      -0.00006997       0.00020182 </v>
   <v>       0.00010940      -0.00019854       0.00010762 </v>
   <v>      -0.00046757       0.00010081       0.00022305 </v>
   <v>       0.00076572      -0.00000288      -0.00055112 </v>
   <v>      -0.00036954       0.00026843      -0.00048570 </v>
   <v>       0.00127623       0.00092999      -0.00056073 </v>
   <v>       0.00025085       0.00001230       0.00055966 </v>
   <v>      -0.00046755       0.00041069      -0.00045142 </v>
   <v>       0.00028644       0.00017971      -0.00009019 </v>
   <v>      -0.00040873       0.00007729      -0.00038416 </v>
   <v>      -0.00048836      -0.00077110      -0.00090124 </v>
   <v>      -0.00001969       0.00005511       0.00041600 </v>
   <v>       0.00105213       0.00064311       0.00039007 </v>
   <v>      -0.00034478      -0.00001559       0.00176996 </v>
   <v>       0.00078326      -0.00113305       0.00035550 </v>
   <v>      -0.00014818      -0.00030883       0.00006976 </v>
   <v>       0.00011524       0.00010951      -0.00009963 </v>
   <v>       0.00025429       0.00005847       0.00007373 </v>
   <v>      -0.00020977      -0.00013791      -0.00004020 </v>
   <v>      -0.00027765      -0.00043655       0.00000138 </v>
   <v>       0.00067314      -0.00128789      -0.00027930 </v>
   <v>      -0.00050122       0.00038879      -0.00032381 </v>
   <v>       0.00140600       0.00089126      -0.00148471 </v>
  </varray>
  <varray name="stress" >
   <v>       1.42225169       1.21437805       1.48412922 </v>
   <v>       1.21437760       1.75429642      -0.48539206 </v>
   <v>       1.48412873      -0.48539227      -3.09094708 </v>
  </varray>
  <energy>
   <i name="e_fr_energy">   -272.41462578 </i>
   <i name="e_wo_entrp">   -272.41462578 </i>
   <i name="e_0_energy">   -272.41462578 </i>
  </energy>
  <time name="totalsc">   63.36   64.53</time>
 </calculation>
 <calculation>
  <scstep>
   <time name="dav">    2.30    2.32</time>
   <time name="total">    2.82    2.85</time>
   <energy>
    <i name="alphaZ">    300.14577036 </i>
    <i name="ewald">  -8799.98227328 </i>
    <i name="hartreedc">  -2221.56721797 </i>
    <i name="XCdc">    537.85132773 </i>
    <i name="pawpsdc">   9823.35178652 </i>
    <i name="pawaedc">  -9967.39827813 </i>
    <i name="eentropy">     -0.00000000 </i>
    <i name="bandstr">  -2634.42402863 </i>
    <i name="atom">  12703.13999606 </i>
    <i name="e_fr_energy">   -258.88291733 </i>
    <i name="e_wo_entrp">   -258.88291733 </i>
    <i name="e_0_energy">   -258.88291733 </i>
   </energy>
  </scstep>
  <scstep>
   <time name="diag">    0.36    0.37</time>
   <time name="diis">    0.84    0.85</time>
   <time name="orth">    0.07    0.07</time>
   <time name="total">    1.72    1.74</time>
   <energy>
    <i name="alphaZ">    300.14577036 </i>
    <i name="ewald">  -8799.98227328 </i>
    <i name="hartreedc">  -2221.56848915 </i>
    <i name="XCdc">    537.85113679 </i>
    <i name="pawpsdc">   9823.31979208 </i>
    <i name="pawaedc">  -9967.36583675 </i>
    <i name="eentropy">     -0.00000000 </i>
    <i name="bandstr">  -2634.42301363 </i>
    <i name="atom">  12703.13999606 </i>
    <i name="e_fr_energy">   -258.88291752 </i>
    <i name="e_wo_entrp">   -258.88291752 </i>
    <i name="e_0_energy">   -258.88291752 </i>
   </energy>
  </scstep>
  <structure>
   <crystal>
    <varray name="basis" >
     <v>       9.67066950       0.00000000       0.00000000 </v>
     <v>       0.00000000       9.67066950       0.00000000 </v>
     <v>       0.00000000       0.00000000       9.67066950 </v>
    </varray>
    <i name="volume">    904.41888738 </i>
    <varray name="rec_basis" >
     <v>       0.10340546       0.00000000       0.00000000 </v>
     <v>       0.00000000       0.10340546       0.00000000 </v>
     <v>       0.00000000       0.00000000       0.10340546 </v>
    </varray>
   </crystal>
   <varray name="positions" >
    <v>       0.97609002       0.19186522       0.19909340 </v>
    <v>       0.97668310       0.70561009       0.69996531 </v>
    <v>       0.01321017       0.20837322       0.78405342 </v>
    <v>       0.02023868       0.67675205       0.27718770 </v>
    <v>       0.17649430       0.45157438       0.65914922 </v>
    <v>       0.32811073       0.67876753       0.00880082 </v>
    <v>       0.78594156       0.20057203       0.00598256 </v>
    <v>       0.81872374       0.84812368       0.94713783 </v>
    <v>       0.16840198       0.95260924       0.16761824 </v>
    <v>       0.20162442       0.01468124       0.82168963 </v>
    <v>       0.70202933       0.99627890       0.66197764 </v>
    <v>       0.69505097       0.04154181       0.31517725 </v>
    <v>       0.22505639       0.72008993       0.46963742 </v>
    <v>       0.32644497       0.14470930       0.53094036 </v>
    <v>       0.78700071       0.70011777       0.50032450 </v>
    <v>       0.83410931       0.34407970       0.44845642 </v>
    <v>       0.27627460       0.30101231       0.97072856 </v>
    <v>       0.29177933       0.50747376       0.22534828 </v>
    <v>       0.69527152       0.48670999       0.15958053 </v>
    <v>       0.68311933       0.55232709       0.80487792 </v>
    <v>       0.47284391       0.31195156       0.77598368 </v>
    <v>       0.46633502       0.82318336       0.29513602 </v>
    <v>       0.51613814       0.27178450       0.19751240 </v>
    <v>       0.51690240       0.79897672       0.66340854 </v>
    <v>       0.50381018       0.49077136       0.48903830 </v>
    <v>       0.49946484       0.99665617       0.98397946 </v>
    <v>       0.99665146       0.50665618       0.98471878 </v>
    <v>       0.00778625       0.00251165       0.48336232 </v>
    <v>       0.12403417       0.88644727       0.61845169 </v>
    <v>       0.14055449       0.11285865       0.36136040 </v>
    <v>       0.88769625       0.88193980       0.35570835 </v>
    <v>       0.88298104       0.13853270       0.58859563 </v>
    <v>       0.87109987       0.64322746       0.08773204 </v>
    <v>       0.86891299       0.38899614       0.86236772 </v>
    <v>       0.13446133       0.60966283       0.86195287 </v>
    <v>       0.10428359       0.38636574       0.12373372 </v>
    <v>       0.61261474       0.12466890       0.85734967 </v>
    <v>       0.62970631       0.89031144       0.11239643 </v>
    <v>       0.36280704       0.10643034       0.10449106 </v>
    <v>       0.38680250       0.86379973       0.86317534 </v>
    <v>       0.60625186       0.61918441       0.35397315 </v>
    <v>       0.64298257       0.38940145       0.61161410 </v>
    <v>       0.37857680       0.60229967       0.62055954 </v>
    <v>       0.38003814       0.35267551       0.38624354 </v>
    <v>       0.74830890       0.76883731       0.72762808 </v>
    <v>       0.75040149       0.26247759       0.23404139 </v>
    <v>       0.25001303       0.73804931       0.23332507 </v>
    <v>       0.24687057       0.23821209       0.74264407 </v>
    <v>       0.99332298       0.03471053       0.98441823 </v>
    <v>       0.99760154       0.54371982       0.49423792 </v>
    <v>       0.51487221       0.98118429       0.48737059 </v>
    <v>       0.48051976       0.46753776       0.00504632 </v>
   </varray>
  </structure>
  <varray name="forces" >
   <v>       0.00005395      -0.00023750      -0.00018516 </v>
   <v>      -0.00005202      -0.00051032       0.00004283 </v>
   <v>      -0.00020149       0.00009535      -0.00002326 </v>
   <v>       0.00013238      -0.00013260       0.00019328 </v>
   <v>      -0.00005873      -0.00015412      -0.00007187 </v>
   <v>       0.00047212      -0.00006793       0.00006777 </v>
   <v>      -0.00014322       0.00018916      -0.00023566 </v>
   <v>       0.00003660       0.00017307      -0.00024541 </v>
   <v>      -0.00029489      -0.00006059       0.00003162 </v>
   <v>      -0.00016189      -0.00008046       0.00030821 </v>
   <v>      -0.00010507      -0.00010251       0.00003030 </v>
   <v>       0.00010227       0.00014734       0.00010631 </v>
   <v>       0.00062954       0.00030577       0.00029204 </v>
   <v>      -0.00010160      -0.00024085       0.00018751 </v>
   <v>       0.00008844      -0.00027052       0.00012210 </v>
   <v>       0.00055803      -0.00003413      -0.00012067 </v>
   <v>       0.00002525       0.00032842      -0.00012341 </v>
   <v>      -0.00065566      -0.00003941       0.00116314 </v>
   <v>       0.00005020       0.00017989      -0.00002946 </v>
   <v>      -0.00099092       0.00027316       0.00126004 </v>
   <v>      -0.00011308       0.00052190      -0.00034701 </v>
   <v>       0.00010990       0.00029431      -0.00024878 </v>
   <v>       0.00009119      -0.00016668      -0.00020464 </v>
   <v>       0.00000765      -0.00014056      -0.00028526 </v>
   <v>      -0.00000176      -0.00003324      -0.00074758 </v>
   <v>      -0.00022665       0.00055428      -0.00038789 </v>
   <v>       0.00008899      -0.00038110       0.00033906 </v>
   <v>      -0.00037456      -0.00045046      -0.00020273 </v>
   <v>      -0.00026623      -0.00033800       0.00022703 </v>
   <v>      -0.00003295      -0.00009384       0.00001538 </v>
   <v>      -0.00023089      -0.00042479      -0.00016536 </v>
   <v>      -0.00023769      -0.00011673       0.00008228 </v>
   <v>       0.00018554       0.00018344      -0.00000142 </v>
   <v>      -0.00010494       0.00007759      -0.00019536 </v>
   <v>       0.00014790       0.00002721       0.00011170 </v>
   <v>       0.00031986      -0.00024347       0.00039922 </v>
   <v>      -0.00007484       0.00043173      -0.00033106 </v>
   <v>       0.00001470       0.00027930      -0.00014165 </v>
   <v>      -0.00033856       0.00025532      -0.00015474 </v>
   <v>      -0.00008070      -0.00013066      -0.00027713 </v>
   <v>       0.00018064       0.00041269      -0.00011524 </v>
   <v>       0.00027407       0.00064657      -0.00004405 </v>
   <v>       0.00019277      -0.00035850       0.00043557 </v>
   <v>       0.00019322      -0.00069073      -0.00020059 </v>
   <v>      -0.00003464      -0.00016619      -0.00019444 </v>
   <v>       0.00003830      -0.00002239      -0.00026383 </v>
   <v>       0.00011565      -0.00008783       0.00016546 </v>
   <v>      -0.00014949      -0.00001477       0.00025465 </v>
   <v>      -0.00001758       0.00058942      -0.00002455 </v>
   <v>       0.00020523       0.00058732       0.00008172 </v>
   <v>       0.00043715      -0.00059742      -0.00002924 </v>
   <v>       0.00029853      -0.00016495      -0.00031977 </v>
  </varray>
  <varray name="stress" >
   <v>       1.41151703       1.21553790       1.48398454 </v>
   <v>       1.21553750       1.74491575      -0.48399684 </v>
   <v>       1.48398381      -0.48399673      -3.10183906 </v>
  </varray>
  <energy>
   <i name="e_fr_energy">   -272.41462711 </i>
   <i name="e_wo_entrp">   -272.41462711 </i>
   <i name="e_0_energy">   -272.41462711 </i>
  </energy>
  <time name="totalsc">    7.59    7.69</time>
 </calculation>
 <calculation>
  <scstep>
   <time name="dav">    2.20    2.22</time>
   <time name="total">    2.72    2.75</time>
   <energy>
    <i name="alphaZ">    300.14577036 </i>
    <i name="ewald">  -8799.99087721 </i>
    <i name="hartreedc">  -2221.56219211 </i>
    <i name="XCdc">    537.85083643 </i>
    <i name="pawpsdc">   9823.29839853 </i>
    <i name="pawaedc">  -9967.34401625 </i>
    <i name="eentropy">     -0.00000000 </i>
    <i name="bandstr">  -2634.42083308 </i>
    <i name="atom">  12703.13999606 </i>
    <i name="e_fr_energy">   -258.88291726 </i>
    <i name="e_wo_entrp">   -258.88291726 </i>
    <i name="e_0_energy">   -258.88291726 </i>
   </energy>
  </scstep>
  <scstep>
   <time name="diag">    0.36    0.37</time>
   <time name="diis">    0.81    0.82</time>
   <time name="orth">    0.07    0.07</time>
   <time name="total">    1.69    1.71</time>
   <energy>
    <i name="alphaZ">    300.14577036 </i>
    <i name="ewald">  -8799.99087721 </i>
    <i name="hartreedc">  -2221.56157177 </i>
    <i name="XCdc">    537.85071096 </i>
    <i name="pawpsdc">   9823.27884697 </i>
    <i name="pawaedc">  -9967.32426292 </i>
    <i name="eentropy">     -0.00000000 </i>
    <i name="bandstr">  -2634.42152973 </i>
    <i name="atom">  12703.13999606 </i>
    <i name="e_fr_energy">   -258.88291728 </i>
    <i name="e_wo_entrp">   -258.88291728 </i>
    <i name="e_0_energy">   -258.88291728 </i>
   </energy>
  </scstep>
  <structure>
   <crystal>
    <varray name="basis" >
     <v>       9.67066950       0.00000000       0.00000000 </v>
     <v>       0.00000000       9.67066950       0.00000000 </v>
     <v>       0.00000000       0.00000000       9.67066950 </v>
    </varray>
    <i name="volume">    904.41888738 </i>
    <varray name="rec_basis" >
     <v>       0.10340546       0.00000000       0.00000000 </v>
     <v>       0.00000000       0.10340546       0.00000000 </v>
     <v>       0.00000000       0.00000000       0.10340546 </v>
    </varray>
   </crystal>
   <varray name="positions" >
    <v>       0.97609008       0.19186482       0.19909306 </v>
    <v>       0.97668284       0.70560926       0.69996536 </v>
    <v>       0.01320974       0.20837346       0.78405338 </v>
    <v>       0.02023875       0.67675193       0.27718797 </v>
    <v>       0.17649417       0.45157399       0.65914902 </v>
    <v>       0.32811157       0.67876742       0.00880105 </v>
    <v>       0.78594123       0.20057244       0.00598215 </v>
    <v>       0.81872377       0.84812402       0.94713751 </v>
    <v>       0.16840144       0.95260924       0.16761835 </v>
    <v>       0.20162409       0.01468122       0.82169023 </v>
    <v>       0.70202910       0.99627876       0.66197773 </v>
    <v>       0.69505120       0.04154206       0.31517744 </v>
    <v>       0.22505749       0.72009048       0.46963777 </v>
    <v>       0.32644481       0.14470898       0.53094054 </v>
    <v>       0.78700082       0.70011730       0.50032457 </v>
    <v>       0.83411029       0.34407966       0.44845613 </v>
    <v>       0.27627461       0.30101291       0.97072845 </v>
    <v>       0.29177814       0.50747362       0.22535037 </v>
    <v>       0.69527157       0.48671038       0.15958056 </v>
    <v>       0.68311769       0.55232749       0.80488020 </v>
    <v>       0.47284372       0.31195237       0.77598316 </v>
    <v>       0.46633525       0.82318384       0.29513558 </v>
    <v>       0.51613817       0.27178423       0.19751213 </v>
    <v>       0.51690251       0.79897652       0.66340792 </v>
    <v>       0.50381020       0.49077121       0.48903558 </v>
    <v>       0.49946467       0.99665771       0.98397922 </v>
    <v>       0.99665051       0.50665536       0.98472044 </v>
    <v>       0.00778516       0.00251110       0.48336111 </v>
    <v>       0.12403424       0.88644648       0.61845283 </v>
    <v>       0.14055466       0.11285857       0.36136062 </v>
    <v>       0.88769637       0.88193958       0.35570846 </v>
    <v>       0.88298054       0.13853281       0.58859588 </v>
    <v>       0.87110070       0.64322745       0.08773145 </v>
    <v>       0.86891259       0.38899643       0.86236719 </v>
    <v>       0.13446271       0.60966383       0.86195226 </v>
    <v>       0.10428386       0.38636576       0.12373433 </v>
    <v>       0.61261423       0.12466934       0.85734918 </v>
    <v>       0.62970662       0.89031164       0.11239633 </v>
    <v>       0.36280660       0.10643043       0.10449064 </v>
    <v>       0.38680197       0.86379890       0.86317437 </v>
    <v>       0.60625184       0.61918447       0.35397360 </v>
    <v>       0.64298371       0.38940214       0.61161452 </v>
    <v>       0.37857643       0.60229966       0.62056145 </v>
    <v>       0.38003899       0.35267428       0.38624393 </v>
    <v>       0.74830874       0.76883697       0.72762816 </v>
    <v>       0.75040162       0.26247770       0.23404128 </v>
    <v>       0.25001331       0.73804937       0.23332515 </v>
    <v>       0.24687034       0.23821194       0.74264403 </v>
    <v>       0.99332268       0.03471006       0.98441823 </v>
    <v>       0.99760226       0.54371843       0.49423761 </v>
    <v>       0.51487167       0.98118471       0.48737024 </v>
    <v>       0.48052127       0.46753872       0.00504472 </v>
   </varray>
  </structure>
  <varray name="forces" >
   <v>       0.00005955      -0.00029526      -0.00024221 </v>
   <v>      -0.00007187      -0.00062716       0.00007585 </v>
   <v>      -0.00023937       0.00010810      -0.00006020 </v>
   <v>       0.00014198      -0.00015786       0.00019843 </v>
   <v>      -0.00008838      -0.00017141      -0.00010665 </v>
   <v>       0.00060436      -0.00008793       0.00007485 </v>
   <v>      -0.00021727       0.00026177      -0.00032966 </v>
   <v>       0.00004329       0.00022494      -0.00031762 </v>
   <v>      -0.00036450      -0.00007627       0.00001349 </v>
   <v>      -0.00022473      -0.00010890       0.00036459 </v>
   <v>      -0.00015584      -0.00011389       0.00003771 </v>
   <v>       0.00010267       0.00018125       0.00012262 </v>
   <v>       0.00085999       0.00043366       0.00038647 </v>
   <v>      -0.00012571      -0.00030822       0.00022844 </v>
   <v>       0.00009782      -0.00039382       0.00016129 </v>
   <v>       0.00071112      -0.00002595      -0.00014609 </v>
   <v>       0.00001585       0.00044091      -0.00018267 </v>
   <v>      -0.00095672      -0.00004840       0.00162706 </v>
   <v>       0.00004349       0.00023795      -0.00005514 </v>
   <v>      -0.00141646       0.00035395       0.00177703 </v>
   <v>      -0.00014201       0.00067165      -0.00045774 </v>
   <v>       0.00011602       0.00037553      -0.00031896 </v>
   <v>       0.00009411      -0.00020926      -0.00025043 </v>
   <v>      -0.00000462      -0.00018493      -0.00037872 </v>
   <v>       0.00001476       0.00000028       0.00021274 </v>
   <v>      -0.00027718       0.00008164      -0.00050933 </v>
   <v>       0.00054627      -0.00011331      -0.00029195 </v>
   <v>      -0.00004200      -0.00037717       0.00029688 </v>
   <v>      -0.00044735      -0.00026693       0.00014477 </v>
   <v>      -0.00006596      -0.00010292       0.00003024 </v>
   <v>      -0.00031120      -0.00049405      -0.00028434 </v>
   <v>      -0.00027644      -0.00016403      -0.00002683 </v>
   <v>       0.00015974       0.00026447       0.00004285 </v>
   <v>      -0.00013960       0.00018324      -0.00019539 </v>
   <v>      -0.00002183      -0.00008632       0.00035435 </v>
   <v>       0.00026766      -0.00024826       0.00053442 </v>
   <v>      -0.00018420       0.00051942      -0.00042052 </v>
   <v>      -0.00000567       0.00036518      -0.00023320 </v>
   <v>      -0.00043144       0.00029457      -0.00020079 </v>
   <v>       0.00001120      -0.00001547      -0.00021915 </v>
   <v>       0.00021055       0.00047956      -0.00025498 </v>
   <v>       0.00028790       0.00083461      -0.00021017 </v>
   <v>       0.00033570      -0.00058634       0.00036784 </v>
   <v>       0.00025181      -0.00089162      -0.00023960 </v>
   <v>      -0.00008465      -0.00024094      -0.00012861 </v>
   <v>       0.00007235       0.00004483      -0.00025804 </v>
   <v>       0.00015475      -0.00002988       0.00015049 </v>
   <v>      -0.00019896      -0.00006169       0.00016764 </v>
   <v>      -0.00012789       0.00037206      -0.00002007 </v>
   <v>       0.00040268       0.00004281      -0.00007943 </v>
   <v>       0.00022469      -0.00041897      -0.00017745 </v>
   <v>       0.00079154       0.00013476      -0.00077410 </v>
  </varray>
  <varray name="stress" >
   <v>       1.40670566       1.21569613       1.48381509 </v>
   <v>       1.21569583       1.74045016      -0.48359617 </v>
   <v>       1.48381450      -0.48359596      -3.10667111 </v>
  </varray>
  <energy>
   <i name="e_fr_energy">   -272.41462748 </i>
   <i name="e_wo_entrp">   -272.41462748 </i>
   <i name="e_0_energy">   -272.41462748 </i>
  </energy>
  <time name="totalsc">    7.45    7.55</time>
 </calculation>
 <calculation>
  <scstep>
   <time name="dav">    2.35    2.37</time>
   <time name="total">    2.87    2.90</time>
   <energy>
    <i name="alphaZ">    300.14577036 </i>
    <i name="ewald">  -8800.00808331 </i>
    <i name="hartreedc">  -2221.54746921 </i>
    <i name="XCdc">    537.85034199 </i>
    <i name="pawpsdc">   9823.26807282 </i>
    <i name="pawaedc">  -9967.31339036 </i>
    <i name="eentropy">     -0.00000000 </i>
    <i name="bandstr">  -2634.41815460 </i>
    <i name="atom">  12703.13999606 </i>
    <i name="e_fr_energy">   -258.88291625 </i>
    <i name="e_wo_entrp">   -258.88291625 </i>
    <i name="e_0_energy">   -258.88291625 </i>
   </energy>
  </scstep>
  <scstep>
   <time name="diag">    0.38    0.38</time>
   <time name="diis">    0.85    0.86</time>
   <time name="orth">    0.07    0.07</time>
   <time name="total">    1.85    1.88</time>
   <energy>
    <i name="alphaZ">    300.14577036 </i>
    <i name="ewald">  -8800.00808331 </i>
    <i name="hartreedc">  -2221.54653253 </i>
    <i name="XCdc">    537.85027202 </i>
    <i name="pawpsdc">   9823.25081629 </i>
    <i name="pawaedc">  -9967.29606281 </i>
    <i name="eentropy">     -0.00000000 </i>
    <i name="bandstr">  -2634.41909245 </i>
    <i name="atom">  12703.13999606 </i>
    <i name="e_fr_energy">   -258.88291637 </i>
    <i name="e_wo_entrp">   -258.88291637 </i>
    <i name="e_0_energy">   -258.88291637 </i>
   </energy>
  </scstep>
  <structure>
   <crystal>
    <varray name="basis" >
     <v>       9.67066950       0.00000000       0.00000000 </v>
     <v>       0.00000000       9.67066950       0.00000000 </v>
     <v>       0.00000000       0.00000000       9.67066950 </v>
    </varray>
    <i name="volume">    904.41888738 </i>
    <varray name="rec_basis" >
     <v>       0.10340546       0.00000000       0.00000000 </v>
     <v>       0.00000000       0.10340546       0.00000000 </v>
     <v>       0.00000000       0.00000000       0.10340546 </v>
    </varray>
   </crystal>
   <varray name="positions" >
    <v>       0.97609021       0.19186402       0.19909238 </v>
    <v>       0.97668232       0.70560760       0.69996546 </v>
    <v>       0.01320888       0.20837394       0.78405331 </v>
    <v>       0.02023890       0.67675170       0.27718851 </v>
    <v>       0.17649390       0.45157322       0.65914860 </v>
    <v>       0.32811325       0.67876720       0.00880151 </v>
    <v>       0.78594057       0.20057326       0.00598131 </v>
    <v>       0.81872384       0.84812469       0.94713688 </v>
    <v>       0.16840036       0.95260922       0.16761857 </v>
    <v>       0.20162342       0.01468118       0.82169144 </v>
    <v>       0.70202865       0.99627848       0.66197792 </v>
    <v>       0.69505164       0.04154255       0.31517782 </v>
    <v>       0.22505968       0.72009159       0.46963847 </v>
    <v>       0.32644449       0.14470835       0.53094090 </v>
    <v>       0.78700102       0.70011637       0.50032471 </v>
    <v>       0.83411225       0.34407959       0.44845556 </v>
    <v>       0.27627465       0.30101410       0.97072823 </v>
    <v>       0.29177576       0.50747334       0.22535455 </v>
    <v>       0.69527168       0.48671116       0.15958062 </v>
    <v>       0.68311441       0.55232830       0.80488477 </v>
    <v>       0.47284334       0.31195399       0.77598211 </v>
    <v>       0.46633569       0.82318478       0.29513468 </v>
    <v>       0.51613822       0.27178368       0.19751159 </v>
    <v>       0.51690274       0.79897612       0.66340667 </v>
    <v>       0.50381023       0.49077091       0.48903015 </v>
    <v>       0.49946433       0.99666078       0.98397874 </v>
    <v>       0.99664863       0.50665374       0.98472377 </v>
    <v>       0.00778298       0.00251001       0.48335868 </v>
    <v>       0.12403437       0.88644491       0.61845510 </v>
    <v>       0.14055501       0.11285842       0.36136106 </v>
    <v>       0.88769661       0.88193915       0.35570869 </v>
    <v>       0.88297953       0.13853303       0.58859636 </v>
    <v>       0.87110235       0.64322745       0.08773026 </v>
    <v>       0.86891179       0.38899701       0.86236614 </v>
    <v>       0.13446547       0.60966584       0.86195105 </v>
    <v>       0.10428441       0.38636578       0.12373554 </v>
    <v>       0.61261322       0.12467023       0.85734821 </v>
    <v>       0.62970724       0.89031202       0.11239614 </v>
    <v>       0.36280572       0.10643059       0.10448981 </v>
    <v>       0.38680092       0.86379723       0.86317242 </v>
    <v>       0.60625180       0.61918459       0.35397450 </v>
    <v>       0.64298598       0.38940353       0.61161537 </v>
    <v>       0.37857569       0.60229962       0.62056527 </v>
    <v>       0.38004068       0.35267184       0.38624469 </v>
    <v>       0.74830842       0.76883631       0.72762831 </v>
    <v>       0.75040187       0.26247794       0.23404107 </v>
    <v>       0.25001386       0.73804950       0.23332531 </v>
    <v>       0.24686989       0.23821164       0.74264394 </v>
    <v>       0.99332208       0.03470912       0.98441823 </v>
    <v>       0.99760372       0.54371565       0.49423701 </v>
    <v>       0.51487058       0.98118555       0.48736954 </v>
    <v>       0.48052431       0.46754065       0.00504151 </v>
   </varray>
  </structure>
  <varray name="forces" >
   <v>       0.00006345      -0.00023906      -0.00017501 </v>
   <v>       0.00005259      -0.00049921       0.00010959 </v>
   <v>      -0.00013330       0.00004629      -0.00006500 </v>
   <v>       0.00019665      -0.00016596       0.00018911 </v>
   <v>      -0.00003975      -0.00003878      -0.00000594 </v>
   <v>       0.00040256      -0.00006757      -0.00002179 </v>
   <v>      -0.00016136       0.00019840      -0.00026050 </v>
   <v>       0.00004060       0.00016418      -0.00029103 </v>
   <v>      -0.00025273      -0.00010967      -0.00000970 </v>
   <v>      -0.00015177      -0.00015617       0.00023017 </v>
   <v>      -0.00011318      -0.00011183       0.00003476 </v>
   <v>       0.00004963       0.00014548       0.00009801 </v>
   <v>       0.00063347       0.00032103       0.00043431 </v>
   <v>      -0.00011268      -0.00031356       0.00028541 </v>
   <v>       0.00011514      -0.00036562       0.00025453 </v>
   <v>       0.00050778      -0.00003298      -0.00002146 </v>
   <v>       0.00002245       0.00037642      -0.00021173 </v>
   <v>      -0.00068386       0.00001658       0.00113135 </v>
   <v>       0.00004380       0.00015641      -0.00007432 </v>
   <v>      -0.00106922       0.00026019       0.00119769 </v>
   <v>      -0.00009902       0.00058592      -0.00041970 </v>
   <v>       0.00007159       0.00031417      -0.00024600 </v>
   <v>       0.00013013      -0.00018121      -0.00022979 </v>
   <v>      -0.00005184      -0.00017653      -0.00025740 </v>
   <v>      -0.00001121       0.00006744       0.00213577 </v>
   <v>      -0.00038249      -0.00088664      -0.00072691 </v>
   <v>       0.00156917       0.00032187      -0.00155325 </v>
   <v>       0.00065205      -0.00026378       0.00133633 </v>
   <v>      -0.00082214       0.00025322      -0.00059268 </v>
   <v>      -0.00020357      -0.00013351      -0.00000640 </v>
   <v>      -0.00060008      -0.00067846      -0.00060851 </v>
   <v>      -0.00003384      -0.00034895      -0.00027275 </v>
   <v>      -0.00032026       0.00051557       0.00046335 </v>
   <v>       0.00006874       0.00016167       0.00006179 </v>
   <v>      -0.00108065      -0.00091846       0.00116002 </v>
   <v>       0.00022428      -0.00039330       0.00050778 </v>
   <v>       0.00003167       0.00051999      -0.00037446 </v>
   <v>      -0.00027425       0.00049574      -0.00038804 </v>
   <v>      -0.00041602       0.00036498       0.00001035 </v>
   <v>       0.00048366       0.00060703       0.00040642 </v>
   <v>       0.00038384       0.00075543      -0.00077655 </v>
   <v>      -0.00037895       0.00096140      -0.00072106 </v>
   <v>       0.00092066      -0.00110704      -0.00073307 </v>
   <v>      -0.00014475      -0.00074357      -0.00056145 </v>
   <v>      -0.00004758      -0.00013820      -0.00012929 </v>
   <v>       0.00005706       0.00002793      -0.00022747 </v>
   <v>       0.00008875      -0.00004769       0.00016174 </v>
   <v>      -0.00014482      -0.00002829       0.00018569 </v>
   <v>      -0.00007336       0.00072870      -0.00002377 </v>
   <v>       0.00016821       0.00047447      -0.00000570 </v>
   <v>       0.00042989      -0.00058064      -0.00005805 </v>
   <v>       0.00039483      -0.00011384      -0.00034540 </v>
  </varray>
  <varray name="stress" >
   <v>       1.40224270       1.21670283       1.48358593 </v>
   <v>       1.21670230       1.73765226      -0.48226873 </v>
   <v>       1.48358559      -0.48226873      -3.11127484 </v>
  </varray>
  <energy>
   <i name="e_fr_energy">   -272.41462781 </i>
   <i name="e_wo_entrp">   -272.41462781 </i>
   <i name="e_0_energy">   -272.41462781 </i>
  </energy>
  <time name="totalsc">    7.77    7.87</time>
 </calculation>
 <calculation>
  <scstep>
   <time name="dav">    2.35    2.38</time>
   <time name="total">    2.87    2.91</time>
   <energy>
    <i name="alphaZ">    300.14577036 </i>
    <i name="ewald">  -8800.01863099 </i>
    <i name="hartreedc">  -2221.53762872 </i>
    <i name="XCdc">    537.85007280 </i>
    <i name="pawpsdc">   9823.24049882 </i>
    <i name="pawaedc">  -9967.28568037 </i>
    <i name="eentropy">     -0.00000000 </i>
    <i name="bandstr">  -2634.41731357 </i>
    <i name="atom">  12703.13999606 </i>
    <i name="e_fr_energy">   -258.88291561 </i>
    <i name="e_wo_entrp">   -258.88291561 </i>
    <i name="e_0_energy">   -258.88291561 </i>
   </energy>
  </scstep>
  <scstep>
   <time name="diag">    0.36    0.37</time>
   <time name="diis">    0.85    0.86</time>
   <time name="orth">    0.07    0.07</time>
   <time name="total">    1.73    1.74</time>
   <energy>
    <i name="alphaZ">    300.14577036 </i>
    <i name="ewald">  -8800.01863099 </i>
    <i name="hartreedc">  -2221.53696856 </i>
    <i name="XCdc">    537.85003506 </i>
    <i name="pawpsdc">   9823.22971934 </i>
    <i name="pawaedc">  -9967.27485654 </i>
    <i name="eentropy">     -0.00000000 </i>
    <i name="bandstr">  -2634.41798062 </i>
    <i name="atom">  12703.13999606 </i>
    <i name="e_fr_energy">   -258.88291589 </i>
    <i name="e_wo_entrp">   -258.88291589 </i>
    <i name="e_0_energy">   -258.88291589 </i>
   </energy>
  </scstep>
  <structure>
   <crystal>
    <varray name="basis" >
     <v>       9.67066950       0.00000000       0.00000000 </v>
     <v>       0.00000000       9.67066950       0.00000000 </v>
     <v>       0.00000000       0.00000000       9.67066950 </v>
    </varray>
    <i name="volume">    904.41888738 </i>
    <varray name="rec_basis" >
     <v>       0.10340546       0.00000000       0.00000000 </v>
     <v>       0.00000000       0.10340546       0.00000000 </v>
     <v>       0.00000000       0.00000000       0.10340546 </v>
    </varray>
   </crystal>
   <varray name="positions" >
    <v>       0.97609048       0.19186272       0.19909134 </v>
    <v>       0.97668199       0.70560489       0.69996583 </v>
    <v>       0.01320780       0.20837448       0.78405309 </v>
    <v>       0.02023953       0.67675107       0.27718945 </v>
    <v>       0.17649357       0.45157245       0.65914822 </v>
    <v>       0.32811573       0.67876684       0.00880185 </v>
    <v>       0.78593958       0.20057447       0.00597993 </v>
    <v>       0.81872399       0.84812570       0.94713559 </v>
    <v>       0.16839878       0.95260893       0.16761874 </v>
    <v>       0.20162246       0.01468075       0.82169308 </v>
    <v>       0.70202797       0.99627796       0.66197817 </v>
    <v>       0.69505216       0.04154334       0.31517840 </v>
    <v>       0.22506319       0.72009336       0.46964018 </v>
    <v>       0.32644393       0.14470701       0.53094193 </v>
    <v>       0.78700150       0.70011464       0.50032547 </v>
    <v>       0.83411523       0.34407944       0.44845501 </v>
    <v>       0.27627474       0.30101609       0.97072750 </v>
    <v>       0.29177195       0.50747313       0.22536105 </v>
    <v>       0.69527189       0.48671224       0.15958049 </v>
    <v>       0.68310885       0.55232965       0.80489177 </v>
    <v>       0.47284276       0.31195689       0.77598014 </v>
    <v>       0.46633625       0.82318639       0.29513327 </v>
    <v>       0.51613859       0.27178274       0.19751055 </v>
    <v>       0.51690281       0.79897532       0.66340494 </v>
    <v>       0.50381023       0.49077083       0.48903076 </v>
    <v>       0.49946308       0.99666124       0.98397650 </v>
    <v>       0.99665092       0.50665312       0.98472278 </v>
    <v>       0.00778271       0.00250840       0.48335992 </v>
    <v>       0.12403243       0.88644417       0.61845559 </v>
    <v>       0.14055480       0.11285795       0.36136142 </v>
    <v>       0.88769530       0.88193707       0.35570737 </v>
    <v>       0.88297856       0.13853234       0.58859609 </v>
    <v>       0.87110299       0.64322874       0.08773038 </v>
    <v>       0.86891127       0.38899792       0.86236538 </v>
    <v>       0.13446516       0.60966529       0.86195291 </v>
    <v>       0.10428544       0.38636482       0.12373787 </v>
    <v>       0.61261242       0.12467231       0.85734642 </v>
    <v>       0.62970709       0.89031361       0.11239499 </v>
    <v>       0.36280390       0.10643166       0.10448911 </v>
    <v>       0.38680121       0.86379730       0.86317174 </v>
    <v>       0.60625273       0.61918659       0.35397334 </v>
    <v>       0.64298701       0.38940716       0.61161429 </v>
    <v>       0.37857735       0.60229681       0.62056677 </v>
    <v>       0.38004180       0.35266783       0.38624396 </v>
    <v>       0.74830802       0.76883538       0.72762812 </v>
    <v>       0.75040223       0.26247822       0.23404031 </v>
    <v>       0.25001456       0.73804949       0.23332586 </v>
    <v>       0.24686913       0.23821131       0.74264433 </v>
    <v>       0.99332137       0.03471012       0.98441818 </v>
    <v>       0.99760541       0.54371441       0.49423647 </v>
    <v>       0.51487072       0.98118483       0.48736879 </v>
    <v>       0.48052796       0.46754205       0.00503784 </v>
   </varray>
  </structure>
  <varray name="forces" >
   <v>       0.00000602      -0.00012309      -0.00010085 </v>
   <v>      -0.00009067      -0.00029313       0.00004495 </v>
   <v>      -0.00009347       0.00002756      -0.00005223 </v>
   <v>       0.00003870      -0.00006776       0.00006670 </v>
   <v>      -0.00005758      -0.00007823      -0.00004420 </v>
   <v>       0.00030076      -0.00006185       0.00008474 </v>
   <v>      -0.00011628       0.00012998      -0.00015315 </v>
   <v>       0.00000079       0.00006568      -0.00013217 </v>
   <v>      -0.00014496      -0.00004639       0.00000189 </v>
   <v>      -0.00011885      -0.00001859       0.00013745 </v>
   <v>      -0.00007889      -0.00006171       0.00002230 </v>
   <v>       0.00002590       0.00006353       0.00003291 </v>
   <v>       0.00038761       0.00022494       0.00017762 </v>
   <v>      -0.00007411      -0.00015043       0.00011934 </v>
   <v>       0.00001975      -0.00018760       0.00005479 </v>
   <v>       0.00031913      -0.00000642      -0.00007268 </v>
   <v>      -0.00000233       0.00019139      -0.00009075 </v>
   <v>      -0.00046901      -0.00000762       0.00073629 </v>
   <v>       0.00004101       0.00013358      -0.00003739 </v>
   <v>      -0.00068873       0.00020217       0.00078836 </v>
[...]
       <r>     7.9084     8.7365   143.5961 </r>
       <r>     8.1011    11.2786   145.7697 </r>
       <r>     8.2937    15.3912   148.7354 </r>
       <r>     8.4863    17.4991   152.1089 </r>
       <r>     8.6790    16.1325   155.2192 </r>
       <r>     8.8716    15.3081   158.1684 </r>
       <r>     9.0642    15.4283   161.1411 </r>
       <r>     9.2569    17.3099   164.4772 </r>
       <r>     9.4495    19.1713   168.1702 </r>
       <r>     9.6421    16.3180   171.3202 </r>
       <r>     9.8348    17.7493   174.7427 </r>
       <r>    10.0274     6.5227   176.0000 </r>
       <r>    10.2200     0.0000   176.0000 </r>
       <r>    10.4127     0.0000   176.0000 </r>
       <r>    10.6053     0.0000   176.0000 </r>
       <r>    10.7979     0.0000   176.0000 </r>
       <r>    10.9906     0.0000   176.0000 </r>
       <r>    11.1832     0.0000   176.0000 </r>
       <r>    11.3758     0.0000   176.0000 </r>
       <r>    11.5685     0.0000   176.0000 </r>
       <r>    11.7611     0.0000   176.0000 </r>
       <r>    11.9537     0.0000   176.0000 </r>
       <r>    12.1464     0.0000   176.0000 </r>
       <r>    12.3390     0.0000   176.0000 </r>
       <r>    12.5316     0.0000   176.0000 </r>
      </set>
      <set comment="spin 2">
       <r>   -45.2582     0.0000     0.0000 </r>
       <r>   -45.0656     0.0000     0.0000 </r>
       <r>   -44.8730     0.0000     0.0000 </r>
       <r>   -44.6803     0.0000     0.0000 </r>
       <r>   -44.4877     0.0000     0.0000 </r>
       <r>   -44.2951     0.0000     0.0000 </r>
       <r>   -44.1024     0.0000     0.0000 </r>
       <r>   -43.9098     0.0000     0.0000 </r>
       <r>   -43.7172     0.0000     0.0000 </r>
       <r>   -43.5245     0.0000     0.0000 </r>
       <r>   -43.3319     0.0000     0.0000 </r>
       <r>   -43.1393     0.0000     0.0000 </r>
       <r>   -42.9466     0.0000     0.0000 </r>
       <r>   -42.7540     0.0000     0.0000 </r>
       <r>   -42.5614     5.2646     1.0141 </r>
       <r>   -42.3687    71.8020    14.8461 </r>
       <r>   -42.1761    47.2363    23.9864 </r>
       <r>   -41.9835     0.0707    24.0000 </r>
       <r>   -41.7908     0.0000    24.0000 </r>
       <r>   -41.5982     0.0000    24.0000 </r>
       <r>   -41.4056     0.0000    24.0000 </r>
       <r>   -41.2129     0.0000    24.0000 </r>
       <r>   -41.0203     0.0000    24.0000 </r>
       <r>   -40.8277     0.0000    24.0000 </r>
       <r>   -40.6351     0.0000    24.0000 </r>
       <r>   -40.4424     0.0000    24.0000 </r>
       <r>   -40.2498     0.0000    24.0000 </r>
       <r>   -40.0572     0.0000    24.0000 </r>
       <r>   -39.8645     0.0000    24.0000 </r>
       <r>   -39.6719     0.0000    24.0000 </r>
       <r>   -39.4793     0.0000    24.0000 </r>
       <r>   -39.2866     0.0000    24.0000 </r>
       <r>   -39.0940     0.0000    24.0000 </r>
       <r>   -38.9014     0.0000    24.0000 </r>
       <r>   -38.7087     0.0000    24.0000 </r>
       <r>   -38.5161     0.0000    24.0000 </r>
       <r>   -38.3235     0.0000    24.0000 </r>
       <r>   -38.1308     0.0000    24.0000 </r>
       <r>   -37.9382     0.0000    24.0000 </r>
       <r>   -37.7456     0.0000    24.0000 </r>
       <r>   -37.5529     0.0000    24.0000 </r>
       <r>   -37.3603     0.0000    24.0000 </r>
       <r>   -37.1677     0.0000    24.0000 </r>
       <r>   -36.9750     0.0000    24.0000 </r>
       <r>   -36.7824     0.0000    24.0000 </r>
       <r>   -36.5898     0.0000    24.0000 </r>
       <r>   -36.3971     0.0000    24.0000 </r>
       <r>   -36.2045     0.0000    24.0000 </r>
       <r>   -36.0119     0.0000    24.0000 </r>
       <r>   -35.8192     0.0000    24.0000 </r>
       <r>   -35.6266     0.0000    24.0000 </r>
       <r>   -35.4340     0.0000    24.0000 </r>
       <r>   -35.2413     0.0000    24.0000 </r>
       <r>   -35.0487     0.0000    24.0000 </r>
       <r>   -34.8561     0.0000    24.0000 </r>
       <r>   -34.6634     0.0000    24.0000 </r>
       <r>   -34.4708     0.0000    24.0000 </r>
       <r>   -34.2782     0.0000    24.0000 </r>
       <r>   -34.0855     0.0000    24.0000 </r>
       <r>   -33.8929     0.0000    24.0000 </r>
       <r>   -33.7003     0.0000    24.0000 </r>
       <r>   -33.5076     0.0000    24.0000 </r>
       <r>   -33.3150     0.0000    24.0000 </r>
       <r>   -33.1224     0.0000    24.0000 </r>
       <r>   -32.9297     0.0000    24.0000 </r>
       <r>   -32.7371     0.0000    24.0000 </r>
       <r>   -32.5445     0.0000    24.0000 </r>
       <r>   -32.3518     0.0000    24.0000 </r>
       <r>   -32.1592     0.0000    24.0000 </r>
       <r>   -31.9666     0.0000    24.0000 </r>
       <r>   -31.7739     0.0000    24.0000 </r>
       <r>   -31.5813     0.0000    24.0000 </r>
       <r>   -31.3887     0.0000    24.0000 </r>
       <r>   -31.1960     0.0000    24.0000 </r>
       <r>   -31.0034     0.0000    24.0000 </r>
       <r>   -30.8108     0.0000    24.0000 </r>
       <r>   -30.6181     0.0000    24.0000 </r>
       <r>   -30.4255     0.0000    24.0000 </r>
       <r>   -30.2329     0.0000    24.0000 </r>
       <r>   -30.0402     0.0000    24.0000 </r>
       <r>   -29.8476     0.0000    24.0000 </r>
       <r>   -29.6550     0.0000    24.0000 </r>
       <r>   -29.4623     0.0000    24.0000 </r>
       <r>   -29.2697     0.0000    24.0000 </r>
       <r>   -29.0771     0.0000    24.0000 </r>
       <r>   -28.8844     0.0000    24.0000 </r>
       <r>   -28.6918     0.0000    24.0000 </r>
       <r>   -28.4992     0.0000    24.0000 </r>
       <r>   -28.3065     0.0000    24.0000 </r>
       <r>   -28.1139     0.0000    24.0000 </r>
       <r>   -27.9213     0.0000    24.0000 </r>
       <r>   -27.7286     0.0000    24.0000 </r>
       <r>   -27.5360     0.0000    24.0000 </r>
       <r>   -27.3434     0.0000    24.0000 </r>
       <r>   -27.1507     0.0000    24.0000 </r>
       <r>   -26.9581     0.0000    24.0000 </r>
       <r>   -26.7655     0.0000    24.0000 </r>
       <r>   -26.5729     0.0000    24.0000 </r>
       <r>   -26.3802     0.0000    24.0000 </r>
       <r>   -26.1876     0.0000    24.0000 </r>
       <r>   -25.9950     0.0000    24.0000 </r>
       <r>   -25.8023     0.0000    24.0000 </r>
       <r>   -25.6097     0.0000    24.0000 </r>
       <r>   -25.4171     0.0000    24.0000 </r>
       <r>   -25.2244     0.0000    24.0000 </r>
       <r>   -25.0318     0.0000    24.0000 </r>
       <r>   -24.8392     0.0000    24.0000 </r>
       <r>   -24.6465     0.0000    24.0000 </r>
       <r>   -24.4539     0.0000    24.0000 </r>
       <r>   -24.2613     0.0000    24.0000 </r>
       <r>   -24.0686     0.0000    24.0000 </r>
       <r>   -23.8760     0.0000    24.0000 </r>
       <r>   -23.6834     0.0000    24.0000 </r>
       <r>   -23.4907     0.0000    24.0000 </r>
       <r>   -23.2981     0.0000    24.0000 </r>
       <r>   -23.1055     0.0000    24.0000 </r>
       <r>   -22.9128     0.0000    24.0000 </r>
       <r>   -22.7202     0.0000    24.0000 </r>
       <r>   -22.5276     0.0000    24.0000 </r>
       <r>   -22.3349     0.0000    24.0000 </r>
       <r>   -22.1423     0.0000    24.0000 </r>
       <r>   -21.9497     0.0000    24.0000 </r>
       <r>   -21.7570     0.0000    24.0000 </r>
       <r>   -21.5644     0.0000    24.0000 </r>
       <r>   -21.3718     0.0000    24.0000 </r>
       <r>   -21.1791     0.0000    24.0000 </r>
       <r>   -20.9865     0.0000    24.0000 </r>
       <r>   -20.7939     0.0000    24.0000 </r>
       <r>   -20.6012     0.0000    24.0000 </r>
       <r>   -20.4086     0.0000    24.0000 </r>
       <r>   -20.2160     0.0000    24.0000 </r>
       <r>   -20.0233     0.0000    24.0000 </r>
       <r>   -19.8307     0.0000    24.0000 </r>
       <r>   -19.6381     0.0000    24.0000 </r>
       <r>   -19.4454     0.0000    24.0000 </r>
       <r>   -19.2528     0.0000    24.0000 </r>
       <r>   -19.0602     0.0000    24.0000 </r>
       <r>   -18.8675     0.0000    24.0000 </r>
       <r>   -18.6749     0.0000    24.0000 </r>
       <r>   -18.4823     0.0000    24.0000 </r>
       <r>   -18.2896     0.0000    24.0000 </r>
       <r>   -18.0970     0.0000    24.0000 </r>
       <r>   -17.9044     0.0000    24.0000 </r>
       <r>   -17.7117     0.0000    24.0000 </r>
       <r>   -17.5191     0.0000    24.0000 </r>
       <r>   -17.3265     0.0000    24.0000 </r>
       <r>   -17.1338     0.0000    24.0000 </r>
       <r>   -16.9412     0.0000    24.0000 </r>
       <r>   -16.7486     0.0000    24.0000 </r>
       <r>   -16.5559     0.0000    24.0000 </r>
       <r>   -16.3633     0.0000    24.0000 </r>
       <r>   -16.1707     0.0000    24.0000 </r>
       <r>   -15.9780     0.0000    24.0000 </r>
       <r>   -15.7854     0.0000    24.0000 </r>
       <r>   -15.5928     0.0000    24.0000 </r>
       <r>   -15.4001     0.0000    24.0000 </r>
       <r>   -15.2075     0.0000    24.0000 </r>
       <r>   -15.0149     0.0000    24.0000 </r>
       <r>   -14.8222     0.0000    24.0000 </r>
       <r>   -14.6296     0.0000    24.0000 </r>
       <r>   -14.4370     0.0000    24.0000 </r>
       <r>   -14.2443     0.0000    24.0000 </r>
       <r>   -14.0517     0.0000    24.0000 </r>
       <r>   -13.8591     0.0000    24.0000 </r>
       <r>   -13.6664     0.0000    24.0000 </r>
       <r>   -13.4738     0.0000    24.0000 </r>
       <r>   -13.2812     0.0000    24.0000 </r>
       <r>   -13.0885     0.3838    24.0739 </r>
       <r>   -12.8959    20.3742    27.9987 </r>
       <r>   -12.7033     1.6188    28.3118 </r>
       <r>   -12.5107    17.7485    31.7308 </r>
       <r>   -12.3180     1.3976    32.0000 </r>
       <r>   -12.1254     0.0000    32.0000 </r>
       <r>   -11.9328     0.0000    32.0000 </r>
       <r>   -11.7401     0.0000    32.0000 </r>
       <r>   -11.5475     0.0000    32.0000 </r>
       <r>   -11.3549     0.0000    32.0000 </r>
       <r>   -11.1622     0.0000    32.0000 </r>
       <r>   -10.9696     0.0000    32.0000 </r>
       <r>   -10.7770     0.0000    32.0000 </r>
       <r>   -10.5843     0.0000    32.0000 </r>
       <r>   -10.3917     0.0000    32.0000 </r>
       <r>   -10.1991    15.3895    34.9645 </r>
       <r>   -10.0064    20.4438    38.9034 </r>
       <r>    -9.8138    26.4278    43.9993 </r>
       <r>    -9.6212     0.0000    44.0000 </r>
       <r>    -9.4285     0.0000    44.0000 </r>
       <r>    -9.2359     0.0000    44.0000 </r>
       <r>    -9.0433     0.0000    44.0000 </r>
       <r>    -8.8506     0.0000    44.0000 </r>
       <r>    -8.6580     0.0000    44.0000 </r>
       <r>    -8.4654     0.1218    44.0235 </r>
       <r>    -8.2727    19.6654    47.8117 </r>
       <r>    -8.0801     0.9775    48.0000 </r>
       <r>    -7.8875     0.0000    48.0000 </r>
       <r>    -7.6948     0.0000    48.0000 </r>
       <r>    -7.5022     0.0000    48.0000 </r>
       <r>    -7.3096     0.0000    48.0000 </r>
       <r>    -7.1169     0.0000    48.0000 </r>
       <r>    -6.9243     0.0000    48.0000 </r>
       <r>    -6.7317     0.0000    48.0000 </r>
       <r>    -6.5390     0.0000    48.0000 </r>
       <r>    -6.3464     0.0000    48.0000 </r>
       <r>    -6.1538     1.2036    48.2319 </r>
       <r>    -5.9611     3.9876    49.0000 </r>
       <r>    -5.7685     0.8597    49.1656 </r>
       <r>    -5.5759    14.4563    51.9504 </r>
       <r>    -5.3832     0.2493    52.0000 </r>
       <r>    -5.1906     0.0000    52.0000 </r>
       <r>    -4.9980     0.0000    52.0000 </r>
       <r>    -4.8053     0.0000    52.0000 </r>
       <r>    -4.6127     0.0000    52.0000 </r>
       <r>    -4.4201     0.0000    52.0000 </r>
       <r>    -4.2274     0.0000    52.0000 </r>
       <r>    -4.0348     0.0000    52.0000 </r>
       <r>    -3.8422     0.0000    52.0000 </r>
       <r>    -3.6495     0.0000    52.0000 </r>
       <r>    -3.4569     0.0000    52.0000 </r>
       <r>    -3.2643     0.6358    52.1225 </r>
       <r>    -3.0716    14.9379    55.0000 </r>
       <r>    -2.8790     1.4933    55.2877 </r>
       <r>    -2.6864    11.6763    57.5369 </r>
       <r>    -2.4937    12.4867    59.9434 </r>
       <r>    -2.3011    16.5886    63.1410 </r>
       <r>    -2.1085     4.4446    64.0000 </r>
       <r>    -1.9158     0.0000    64.0000 </r>
       <r>    -1.7232     0.0000    64.0000 </r>
       <r>    -1.5306     0.4932    64.0950 </r>
       <r>    -1.3379    33.8012    70.6062 </r>
       <r>    -1.1453    20.8534    74.6324 </r>
       <r>    -0.9527     7.0716    76.0000 </r>
       <r>    -0.7600     0.0000    76.0000 </r>
       <r>    -0.5674     4.3376    76.8356 </r>
       <r>    -0.3748    12.7965    79.3006 </r>
       <r>    -0.1821    10.7276    81.3671 </r>
       <r>     0.0105    27.3990    86.6454 </r>
       <r>     0.2031    27.0232    91.8531 </r>
       <r>     0.3958    19.3161    95.5787 </r>
       <r>     0.5884     2.1751    96.0000 </r>
       <r>     0.7810     9.1021    97.7534 </r>
       <r>     0.9737    19.7861   101.5654 </r>
       <r>     1.1663    23.6505   106.1232 </r>
       <r>     1.3589    25.2251   110.9845 </r>
       <r>     1.5515    29.4781   116.6658 </r>
       <r>     1.7442    16.6529   119.8763 </r>
       <r>     1.9368     0.6424   120.0000 </r>
       <r>     2.1294     0.0000   120.0000 </r>
       <r>     2.3221     0.0000   120.0000 </r>
       <r>     2.5147     0.0000   120.0000 </r>
       <r>     2.7073     0.0000   120.0000 </r>
       <r>     2.9000     0.0000   120.0000 </r>
       <r>     3.0926     0.0000   120.0000 </r>
       <r>     3.2852     0.0000   120.0000 </r>
       <r>     3.4779     0.0000   120.0000 </r>
       <r>     3.6705     0.0000   120.0000 </r>
       <r>     3.8631     0.0000   120.0000 </r>
       <r>     4.0558     0.0000   120.0000 </r>
       <r>     4.2484     0.0000   120.0000 </r>
       <r>     4.4410     4.2127   120.8115 </r>
       <r>     4.6337     0.9785   121.0000 </r>
       <r>     4.8263     0.0000   121.0000 </r>
       <r>     5.0189     0.0000   121.0000 </r>
       <r>     5.2116     2.1790   121.4197 </r>
       <r>     5.4042    13.3672   123.9947 </r>
       <r>     5.5968     0.0221   124.0000 </r>
       <r>     5.7895     0.0035   124.0007 </r>
       <r>     5.9821    10.9291   126.1060 </r>
       <r>     6.1747    12.6960   128.5517 </r>
       <r>     6.3674     7.5071   130.0002 </r>
       <r>     6.5600     8.4860   131.6349 </r>
       <r>     6.7526     8.3711   133.2492 </r>
       <r>     6.9453    14.2001   135.9846 </r>
       <r>     7.1379     5.1003   136.9687 </r>
       <r>     7.3305     1.7180   137.3020 </r>
       <r>     7.5232     8.8335   139.0036 </r>
       <r>     7.7158    15.0888   141.9130 </r>
       <r>     7.9084     8.7365   143.5961 </r>
       <r>     8.1011    11.2786   145.7697 </r>
       <r>     8.2937    15.3912   148.7354 </r>
       <r>     8.4863    17.4991   152.1089 </r>
       <r>     8.6790    16.1325   155.2192 </r>
       <r>     8.8716    15.3081   158.1684 </r>
       <r>     9.0642    15.4283   161.1411 </r>
       <r>     9.2569    17.3099   164.4772 </r>
       <r>     9.4495    19.1736   168.1707 </r>
       <r>     9.6421    16.3502   171.3268 </r>
       <r>     9.8348    17.5566   174.7122 </r>
       <r>    10.0274     6.6791   176.0000 </r>
       <r>    10.2200     0.0000   176.0000 </r>
       <r>    10.4127     0.0000   176.0000 </r>
       <r>    10.6053     0.0000   176.0000 </r>
       <r>    10.7979     0.0000   176.0000 </r>
       <r>    10.9906     0.0000   176.0000 </r>
       <r>    11.1832     0.0000   176.0000 </r>
       <r>    11.3758     0.0000   176.0000 </r>
       <r>    11.5685     0.0000   176.0000 </r>
       <r>    11.7611     0.0000   176.0000 </r>
       <r>    11.9537     0.0000   176.0000 </r>
       <r>    12.1464     0.0000   176.0000 </r>
       <r>    12.3390     0.0000   176.0000 </r>
       <r>    12.5316     0.0000   176.0000 </r>
      </set>
     </set>
    </array>
   </total>
  </dos>
 </calculation>
 <structure name="finalpos" >
  <crystal>
   <varray name="basis" >
    <v>       9.67066950       0.00000000       0.00000000 </v>
    <v>       0.00000000       9.67066950       0.00000000 </v>
    <v>       0.00000000       0.00000000       9.67066950 </v>
   </varray>
   <i name="volume">    904.41888738 </i>
   <varray name="rec_basis" >
    <v>       0.10340546       0.00000000       0.00000000 </v>
    <v>       0.00000000       0.10340546       0.00000000 </v>
    <v>       0.00000000       0.00000000       0.10340546 </v>
   </varray>
  </crystal>
  <varray name="positions" >
   <v>       0.97609109       0.19185759       0.19908732 </v>
   <v>       0.97667961       0.70559263       0.69996742 </v>
   <v>       0.01320348       0.20837637       0.78405207 </v>
   <v>       0.02024157       0.67674872       0.27719285 </v>
   <v>       0.17649204       0.45156915       0.65914656 </v>
   <v>       0.32812687       0.67876478       0.00880438 </v>
   <v>       0.78593561       0.20057922       0.00597477 </v>
   <v>       0.81872443       0.84812917       0.94713098 </v>
   <v>       0.16839280       0.95260765       0.16761956 </v>
   <v>       0.20161801       0.01467942       0.82170013 </v>
   <v>       0.70202522       0.99627579       0.66197918 </v>
   <v>       0.69505419       0.04154625       0.31518046 </v>
   <v>       0.22507844       0.72010123       0.46964714 </v>
   <v>       0.32644168       0.14470175       0.53094584 </v>
   <v>       0.78700307       0.70010771       0.50032799 </v>
   <v>       0.83412803       0.34407872       0.44845217 </v>
   <v>       0.27627524       0.30102477       0.97072468 </v>
   <v>       0.29175515       0.50747224       0.22538951 </v>
   <v>       0.69527304       0.48671655       0.15958009 </v>
   <v>       0.68308451       0.55233577       0.80492239 </v>
   <v>       0.47283997       0.31196967       0.77597123 </v>
   <v>       0.46633900       0.82319342       0.29512679 </v>
   <v>       0.51614028       0.27177909       0.19750619 </v>
   <v>       0.51690345       0.79897228       0.66339806 </v>
   <v>       0.50381180       0.49077021       0.48903057 </v>
   <v>       0.49945948       0.99666381       0.98397000 </v>
   <v>       0.99665588       0.50665118       0.98472259 </v>
   <v>       0.00777999       0.00250306       0.48336224 </v>
   <v>       0.12402496       0.88643957       0.61845914 </v>
   <v>       0.14055165       0.11285396       0.36136448 </v>
   <v>       0.88769184       0.88193014       0.35570410 </v>
   <v>       0.88297454       0.13852819       0.58859419 </v>
   <v>       0.87110817       0.64323076       0.08772919 </v>
   <v>       0.86891065       0.38900262       0.86236351 </v>
   <v>       0.13446737       0.60966408       0.86195844 </v>
   <v>       0.10428808       0.38636193       0.12374534 </v>
   <v>       0.61260753       0.12468061       0.85733904 </v>
   <v>       0.62970489       0.89032227       0.11238801 </v>
   <v>       0.36279742       0.10643492       0.10448373 </v>
   <v>       0.38680147       0.86379694       0.86316729 </v>
   <v>       0.60625313       0.61919265       0.35397040 </v>
   <v>       0.64299439       0.38942127       0.61161084 </v>
   <v>       0.37858213       0.60228545       0.62057303 </v>
   <v>       0.38004924       0.35265451       0.38624242 </v>
   <v>       0.74830603       0.76883129       0.72762744 </v>
   <v>       0.75040398       0.26247976       0.23403663 </v>
   <v>       0.25001751       0.73804965       0.23332882 </v>
   <v>       0.24686556       0.23820984       0.74264612 </v>
   <v>       0.99331826       0.03471394       0.98441801 </v>
   <v>       0.99761277       0.54370900       0.49423419 </v>
   <v>       0.51487108       0.98118152       0.48736551 </v>
   <v>       0.48054493       0.46754841       0.00502043 </v>
  </varray>
 </structure>
</modeling>
