unknown system                          
           1
     9.670669    0.000000    0.000000
     0.000000    9.670669    0.000000
     0.000000    0.000000    9.670669
   Li   P    S    Cl
    24     4    20     4
Direct configuration=     1
   0.97608990  0.19186595  0.19909404
   0.97668359  0.70561162  0.69996521
   0.01321096  0.20837277  0.78405348
   0.02023854  0.67675227  0.27718720
   0.17649454  0.45157509  0.65914961
   0.32810918  0.67876773  0.00880040
   0.78594218  0.20057127  0.00598334
   0.81872367  0.84812306  0.94713842
   0.16840297  0.95260926  0.16761804
   0.20162504  0.01468128  0.82168851
   0.70202975  0.99627915  0.66197747
   0.69505056  0.04154135  0.31517690
   0.22505437  0.72008891  0.46963677
   0.32644526  0.14470988  0.53094003
   0.78700052  0.70011863  0.50032437
   0.83410751  0.34407976  0.44845694
   0.27627456  0.30101121  0.97072876
   0.29178153  0.50747402  0.22534442
   0.69527141  0.48670927  0.15958048
   0.68312236  0.55232635  0.80487370
   0.47284426  0.31195006  0.77598465
   0.46633462  0.82318249  0.29513685
   0.51613809  0.27178501  0.19751289
   0.51690220  0.79897710  0.66340969
   0.50381015  0.49077163  0.48904332
   0.49946515  0.99665333  0.98397990
   0.99665320  0.50665768  0.98471570
   0.00778827  0.00251266  0.48336456
   0.12403404  0.88644873  0.61844960
   0.14055416  0.11285879  0.36136000
   0.88769603  0.88194019  0.35570813
   0.88298197  0.13853250  0.58859519
   0.87109834  0.64322746  0.08773314
   0.86891373  0.38899560  0.86236869
   0.13445879  0.60966097  0.86195399
   0.10428309  0.38636572  0.12373261
   0.61261567  0.12466808  0.85735057
   0.62970574  0.89031108  0.11239661
   0.36280786  0.10643019  0.10449182
   0.38680347  0.86380127  0.86317714
   0.60625190  0.61918430  0.35397232
   0.64298047  0.38940016  0.61161332
   0.37857749  0.60229970  0.62055601
   0.38003658  0.35267777  0.38624283
   0.74830919  0.76883792  0.72762794
   0.75040126  0.26247737  0.23404159
   0.25001252  0.73804919  0.23332492
   0.24687098  0.23821237  0.74264415
   0.99332353  0.03471140  0.98441823
   0.99760019  0.54372239  0.49423847
   0.51487321  0.98118352  0.48737124
   0.48051695  0.46753598  0.00504928
Direct configuration=     2
   0.97609002  0.19186522  0.19909340
   0.97668310  0.70561009  0.69996531
   0.01321017  0.20837322  0.78405342
   0.02023868  0.67675205  0.27718770
   0.17649430  0.45157438  0.65914922
   0.32811073  0.67876753  0.00880082
   0.78594156  0.20057203  0.00598256
   0.81872374  0.84812368  0.94713783
   0.16840198  0.95260924  0.16761824
   0.20162442  0.01468124  0.82168963
   0.70202933  0.99627890  0.66197764
   0.69505097  0.04154181  0.31517725
   0.22505639  0.72008993  0.46963742
   0.32644497  0.14470930  0.53094036
   0.78700071  0.70011777  0.50032450
   0.83410931  0.34407970  0.44845642
   0.27627460  0.30101231  0.97072856
   0.29177933  0.50747376  0.22534828
   0.69527152  0.48670999  0.15958053
   0.68311933  0.55232709  0.80487792
   0.47284391  0.31195156  0.77598368
   0.46633502  0.82318336  0.29513602
   0.51613814  0.27178450  0.19751240
   0.51690240  0.79897672  0.66340854
   0.50381018  0.49077136  0.48903830
   0.49946484  0.99665617  0.98397946
   0.99665146  0.50665618  0.98471878
   0.00778625  0.00251165  0.48336232
   0.12403417  0.88644727  0.61845169
   0.14055449  0.11285865  0.36136040
   0.88769625  0.88193980  0.35570835
   0.88298104  0.13853270  0.58859563
   0.87109987  0.64322746  0.08773204
   0.86891299  0.38899614  0.86236772
   0.13446133  0.60966283  0.86195287
   0.10428359  0.38636574  0.12373372
   0.61261474  0.12466890  0.85734967
   0.62970631  0.89031144  0.11239643
   0.36280704  0.10643034  0.10449106
   0.38680250  0.86379973  0.86317534
   0.60625186  0.61918441  0.35397315
   0.64298257  0.38940145  0.61161410
   0.37857680  0.60229967  0.62055954
   0.38003814  0.35267551  0.38624354
   0.74830890  0.76883731  0.72762808
   0.75040149  0.26247759  0.23404139
   0.25001303  0.73804931  0.23332507
   0.24687057  0.23821209  0.74264407
   0.99332298  0.03471053  0.98441823
   0.99760154  0.54371982  0.49423792
   0.51487221  0.98118429  0.48737059
   0.48051976  0.46753776  0.00504632
Direct configuration=     3
   0.97609008  0.19186482  0.19909306
   0.97668284  0.70560926  0.69996536
   0.01320974  0.20837346  0.78405338
   0.02023875  0.67675193  0.27718797
   0.17649417  0.45157399  0.65914902
   0.32811157  0.67876742  0.00880105
   0.78594123  0.20057244  0.00598215
   0.81872377  0.84812402  0.94713751
   0.16840144  0.95260924  0.16761835
   0.20162409  0.01468122  0.82169023
   0.70202910  0.99627876  0.66197773
   0.69505120  0.04154206  0.31517744
   0.22505749  0.72009048  0.46963777
   0.32644481  0.14470898  0.53094054
   0.78700082  0.70011730  0.50032457
   0.83411029  0.34407966  0.44845613
   0.27627461  0.30101291  0.97072845
   0.29177814  0.50747362  0.22535037
   0.69527157  0.48671038  0.15958056
   0.68311769  0.55232749  0.80488020
   0.47284372  0.31195237  0.77598316
   0.46633525  0.82318384  0.29513558
   0.51613817  0.27178423  0.19751213
   0.51690251  0.79897652  0.66340792
   0.50381020  0.49077121  0.48903558
   0.49946467  0.99665771  0.98397922
   0.99665051  0.50665536  0.98472044
   0.00778516  0.00251110  0.48336111
   0.12403424  0.88644648  0.61845283
   0.14055466  0.11285857  0.36136062
   0.88769637  0.88193958  0.35570846
   0.88298054  0.13853281  0.58859588
   0.87110070  0.64322745  0.08773145
   0.86891259  0.38899643  0.86236719
   0.13446271  0.60966383  0.86195226
   0.10428386  0.38636576  0.12373433
   0.61261423  0.12466934  0.85734918
   0.62970662  0.89031164  0.11239633
   0.36280660  0.10643043  0.10449064
   0.38680197  0.86379890  0.86317437
   0.60625184  0.61918447  0.35397360
   0.64298371  0.38940214  0.61161452
   0.37857643  0.60229966  0.62056145
   0.38003899  0.35267428  0.38624393
   0.74830874  0.76883697  0.72762816
   0.75040162  0.26247770  0.23404128
   0.25001331  0.73804937  0.23332515
   0.24687034  0.23821194  0.74264403
   0.99332268  0.03471006  0.98441823
   0.99760226  0.54371843  0.49423761
   0.51487167  0.98118471  0.48737024
   0.48052127  0.46753872  0.00504472
Direct configuration=     4
   0.97609021  0.19186402  0.19909238
   0.97668232  0.70560760  0.69996546
   0.01320888  0.20837394  0.78405331
   0.02023890  0.67675170  0.27718851
   0.17649390  0.45157322  0.65914860
   0.32811325  0.67876720  0.00880151
   0.78594057  0.20057326  0.00598131
   0.81872384  0.84812469  0.94713688
   0.16840036  0.95260922  0.16761857
   0.20162342  0.01468118  0.82169144
   0.70202865  0.99627848  0.66197792
   0.69505164  0.04154255  0.31517782
   0.22505968  0.72009159  0.46963847
   0.32644449  0.14470835  0.53094090
   0.78700102  0.70011637  0.50032471
   0.83411225  0.34407959  0.44845556
   0.27627465  0.30101410  0.97072823
   0.29177576  0.50747334  0.22535455
   0.69527168  0.48671116  0.15958062
   0.68311441  0.55232830  0.80488477
   0.47284334  0.31195399  0.77598211
   0.46633569  0.82318478  0.29513468
   0.51613822  0.27178368  0.19751159
   0.51690274  0.79897612  0.66340667
   0.50381023  0.49077091  0.48903015
   0.49946433  0.99666078  0.98397874
   0.99664863  0.50665374  0.98472377
   0.00778298  0.00251001  0.48335868
   0.12403437  0.88644491  0.61845510
   0.14055501  0.11285842  0.36136106
   0.88769661  0.88193915  0.35570869
   0.88297953  0.13853303  0.58859636
   0.87110235  0.64322745  0.08773026
   0.86891179  0.38899701  0.86236614
   0.13446547  0.60966584  0.86195105
   0.10428441  0.38636578  0.12373554
   0.61261322  0.12467023  0.85734821
   0.62970724  0.89031202  0.11239614
   0.36280572  0.10643059  0.10448981
   0.38680092  0.86379723  0.86317242
   0.60625180  0.61918459  0.35397450
   0.64298598  0.38940353  0.61161537
   0.37857569  0.60229962  0.62056527
   0.38004068  0.35267184  0.38624469
   0.74830842  0.76883631  0.72762831
   0.75040187  0.26247794  0.23404107
   0.25001386  0.73804950  0.23332531
   0.24686989  0.23821164  0.74264394
   0.99332208  0.03470912  0.98441823
   0.99760372  0.54371565  0.49423701
   0.51487058  0.98118555  0.48736954
   0.48052431  0.46754065  0.00504151
Direct configuration=     5
   0.97609048  0.19186272  0.19909134
   0.97668199  0.70560489  0.69996583
   0.01320780  0.20837448  0.78405309
   0.02023953  0.67675107  0.27718945
   0.17649357  0.45157245  0.65914822
   0.32811573  0.67876684  0.00880185
   0.78593958  0.20057447  0.00597993
   0.81872399  0.84812570  0.94713559
   0.16839878  0.95260893  0.16761874
   0.20162246  0.01468075  0.82169308
   0.70202797  0.99627796  0.66197817
   0.69505216  0.04154334  0.31517840
   0.22506319  0.72009336  0.46964018
   0.32644393  0.14470701  0.53094193
   0.78700150  0.70011464  0.50032547
   0.83411523  0.34407944  0.44845501
   0.27627474  0.30101609  0.97072750
   0.29177195  0.50747313  0.22536105
   0.69527189  0.48671224  0.15958049
   0.68310885  0.55232965  0.80489177
   0.47284276  0.31195689  0.77598014
   0.46633625  0.82318639  0.29513327
   0.51613859  0.27178274  0.19751055
   0.51690281  0.79897532  0.66340494
   0.50381023  0.49077083  0.48903076
   0.49946308  0.99666124  0.98397650
   0.99665092  0.50665312  0.98472278
   0.00778271  0.00250840  0.48335992
   0.12403243  0.88644417  0.61845559
   0.14055480  0.11285795  0.36136142
   0.88769530  0.88193707  0.35570737
   0.88297856  0.13853234  0.58859609
   0.87110299  0.64322874  0.08773038
   0.86891127  0.38899792  0.86236538
   0.13446516  0.60966529  0.86195291
   0.10428544  0.38636482  0.12373787
   0.61261242  0.12467231  0.85734642
   0.62970709  0.89031361  0.11239499
   0.36280390  0.10643166  0.10448911
   0.38680121  0.86379730  0.86317174
   0.60625273  0.61918659  0.35397334
   0.64298701  0.38940716  0.61161429
   0.37857735  0.60229681  0.62056677
   0.38004180  0.35266783  0.38624396
   0.74830802  0.76883538  0.72762812
   0.75040223  0.26247822  0.23404031
   0.25001456  0.73804949  0.23332586
   0.24686913  0.23821131  0.74264433
   0.99332137  0.03471012  0.98441818
   0.99760541  0.54371441  0.49423647
   0.51487072  0.98118483  0.48736879
   0.48052796  0.46754205  0.00503784
Direct configuration=     6
   0.97609075  0.19186145  0.19909032
   0.97668167  0.70560224  0.69996619
   0.01320673  0.20837501  0.78405287
   0.02024014  0.67675046  0.27719038
   0.17649325  0.45157169  0.65914785
   0.32811816  0.67876649  0.00880219
   0.78593862  0.20057566  0.00597857
   0.81872415  0.84812668  0.94713433
   0.16839723  0.95260864  0.16761890
   0.20162151  0.01468033  0.82169469
   0.70202730  0.99627744  0.66197841
   0.69505267  0.04154412  0.31517897
   0.22506664  0.72009511  0.46964186
   0.32644339  0.14470570  0.53094294
   0.78700196  0.70011293  0.50032621
   0.83411816  0.34407930  0.44845447
   0.27627483  0.30101805  0.97072679
   0.29176822  0.50747293  0.22536742
   0.69527210  0.48671329  0.15958036
   0.68310340  0.55233098  0.80489865
   0.47284219  0.31195972  0.77597821
   0.46633681  0.82318798  0.29513190
   0.51613895  0.27178183  0.19750952
   0.51690287  0.79897454  0.66340323
   0.50381024  0.49077074  0.48903137
   0.49946185  0.99666170  0.98397429
   0.99665317  0.50665252  0.98472180
   0.00778244  0.00250681  0.48336114
   0.12403051  0.88644344  0.61845607
   0.14055460  0.11285750  0.36136178
   0.88769403  0.88193503  0.35570607
   0.88297761  0.13853167  0.58859583
   0.87110362  0.64323000  0.08773050
   0.86891075  0.38899881  0.86236463
   0.13446486  0.60966475  0.86195473
   0.10428646  0.38636387  0.12374016
   0.61261163  0.12467435  0.85734466
   0.62970694  0.89031516  0.11239387
   0.36280212  0.10643270  0.10448843
   0.38680150  0.86379737  0.86317107
   0.60625364  0.61918856  0.35397219
   0.64298803  0.38941072  0.61161324
   0.37857898  0.60229405  0.62056824
   0.38004289  0.35266390  0.38624323
   0.74830763  0.76883446  0.72762793
   0.75040258  0.26247849  0.23403956
   0.25001525  0.73804948  0.23332639
   0.24686838  0.23821099  0.74264472
   0.99332067  0.03471111  0.98441812
   0.99760707  0.54371319  0.49423594
   0.51487085  0.98118412  0.48736804
   0.48053153  0.46754342  0.00503424
Direct configuration=     7
   0.97609128  0.19185890  0.19908828
   0.97668103  0.70559693  0.69996691
   0.01320460  0.20837606  0.78405243
   0.02024137  0.67674923  0.27719224
   0.17649260  0.45157018  0.65914711
   0.32812303  0.67876578  0.00880286
   0.78593669  0.20057805  0.00597585
   0.81872447  0.84812865  0.94713180
   0.16839413  0.95260807  0.16761923
   0.20161962  0.01467949  0.82169790
   0.70202597  0.99627642  0.66197890
   0.69505368  0.04154569  0.31518011
   0.22507353  0.72009859  0.46964521
   0.32644229  0.14470307  0.53094497
   0.78700289  0.70010953  0.50032771
   0.83412402  0.34407901  0.44845338
   0.27627500  0.30102195  0.97072537
   0.29176076  0.50747252  0.22538017
   0.69527250  0.48671540  0.15958009
   0.68309250  0.55233364  0.80491239
   0.47284105  0.31196540  0.77597434
   0.46633792  0.82319115  0.29512914
   0.51613968  0.27177999  0.19750747
   0.51690300  0.79897298  0.66339983
   0.50381024  0.49077056  0.48903257
   0.49945939  0.99666260  0.98396988
   0.99665767  0.50665132  0.98471985
   0.00778191  0.00250364  0.48336356
   0.12402669  0.88644198  0.61845704
   0.14055419  0.11285658  0.36136250
   0.88769147  0.88193095  0.35570346
   0.88297571  0.13853032  0.58859531
   0.87110488  0.64323254  0.08773074
   0.86890972  0.38900061  0.86236314
   0.13446426  0.60966366  0.86195837
   0.10428850  0.38636198  0.12374474
   0.61261006  0.12467844  0.85734114
   0.62970665  0.89031828  0.11239162
   0.36279855  0.10643479  0.10448706
   0.38680207  0.86379751  0.86316974
   0.60625546  0.61919249  0.35396990
   0.64299006  0.38941785  0.61161112
   0.37858225  0.60228853  0.62057119
   0.38004508  0.35265603  0.38624178
   0.74830684  0.76883264  0.72762755
   0.75040329  0.26247903  0.23403807
   0.25001663  0.73804946  0.23332746
   0.24686689  0.23821034  0.74264548
   0.99331928  0.03471309  0.98441801
   0.99761040  0.54371076  0.49423487
   0.51487111  0.98118269  0.48736656
   0.48053869  0.46754616  0.00502703
Direct configuration=     8
   0.97609109  0.19185759  0.19908732
   0.97667961  0.70559263  0.69996742
   0.01320348  0.20837637  0.78405207
   0.02024157  0.67674872  0.27719285
   0.17649204  0.45156915  0.65914656
   0.32812687  0.67876478  0.00880438
   0.78593561  0.20057922  0.00597477
   0.81872443  0.84812917  0.94713098
   0.16839280  0.95260765  0.16761956
   0.20161801  0.01467942  0.82170013
   0.70202522  0.99627579  0.66197918
   0.69505419  0.04154625  0.31518046
   0.22507844  0.72010123  0.46964714
   0.32644168  0.14470175  0.53094584
   0.78700307  0.70010771  0.50032799
   0.83412803  0.34407872  0.44845217
   0.27627524  0.30102477  0.97072468
   0.29175515  0.50747224  0.22538951
   0.69527304  0.48671655  0.15958009
   0.68308451  0.55233577  0.80492239
   0.47283997  0.31196967  0.77597123
   0.46633900  0.82319342  0.29512679
   0.51614028  0.27177909  0.19750619
   0.51690345  0.79897228  0.66339806
   0.50381180  0.49077021  0.48903057
   0.49945948  0.99666381  0.98397000
   0.99665588  0.50665118  0.98472259
   0.00777999  0.00250306  0.48336224
   0.12402496  0.88643957  0.61845914
   0.14055165  0.11285396  0.36136448
   0.88769184  0.88193014  0.35570410
   0.88297454  0.13852819  0.58859419
   0.87110817  0.64323076  0.08772919
   0.86891065  0.38900262  0.86236351
   0.13446737  0.60966408  0.86195844
   0.10428808  0.38636193  0.12374534
   0.61260753  0.12468061  0.85733904
   0.62970489  0.89032227  0.11238801
   0.36279742  0.10643492  0.10448373
   0.38680147  0.86379694  0.86316729
   0.60625313  0.61919265  0.35397040
   0.64299439  0.38942127  0.61161084
   0.37858213  0.60228545  0.62057303
   0.38004924  0.35265451  0.38624242
   0.74830603  0.76883129  0.72762744
   0.75040398  0.26247976  0.23403663
   0.25001751  0.73804965  0.23332882
   0.24686556  0.23820984  0.74264612
   0.99331826  0.03471394  0.98441801
   0.99761277  0.54370900  0.49423419
   0.51487108  0.98118152  0.48736551
   0.48054493  0.46754841  0.00502043
