   52   52 1000    2
  0.1849265E+02  0.9870386E-09  0.9870386E-09  0.9870386E-09  0.2000000E-15
  1.000000000000000E-004
  CAR 
 unknown system                          
    240      3    176
