       N       E                     dE             d eps       ncg     rms          rms(c)
DAV:   1     0.160286671833E+04    0.16029E+04   -0.11297E+05  2344   0.125E+03
DAV:   2    -0.507790536342E+02   -0.16536E+04   -0.15561E+04  2888   0.353E+02
DAV:   3    -0.230632743689E+03   -0.17985E+03   -0.17786E+03  2856   0.118E+02
DAV:   4    -0.243062646037E+03   -0.12430E+02   -0.12406E+02  3536   0.323E+01
DAV:   5    -0.243304120687E+03   -0.24147E+00   -0.24137E+00  3400   0.457E+00
DAV:   6    -0.243314116185E+03   -0.99955E-02   -0.99943E-02  3456   0.107E+00
DAV:   7    -0.243314614294E+03   -0.49811E-03   -0.49809E-03  3432   0.223E-01
DAV:   8    -0.243314647604E+03   -0.33310E-04   -0.33309E-04  3424   0.646E-02
DAV:   9    -0.243314649995E+03   -0.23916E-05   -0.23915E-05  3384   0.150E-02
DAV:  10    -0.243314650139E+03   -0.14429E-06   -0.14432E-06  2032   0.466E-03    0.642E+01
RMM:  11    -0.231633427675E+03    0.11681E+02   -0.54192E+01  2112   0.202E+01    0.325E+01
RMM:  12    -0.256259642578E+03   -0.24626E+02   -0.28807E+01  2224   0.143E+01    0.204E+01
RMM:  13    -0.258655171048E+03   -0.23955E+01   -0.94056E+00  2173   0.551E+00    0.760E+00
RMM:  14    -0.258945058439E+03   -0.28989E+00   -0.25474E+00  2784   0.354E+00    0.337E+00
RMM:  15    -0.258895858003E+03    0.49200E-01   -0.39433E-01  2242   0.176E+00    0.749E-01
RMM:  16    -0.258918457282E+03   -0.22599E-01   -0.14517E-01  2316   0.102E+00    0.328E-01
RMM:  17    -0.258925879994E+03   -0.74227E-02   -0.34632E-02  2569   0.526E-01    0.196E-01
RMM:  18    -0.258927552643E+03   -0.16726E-02   -0.88134E-03  2541   0.234E-01    0.101E-01
RMM:  19    -0.258928353034E+03   -0.80039E-03   -0.25879E-03  2831   0.125E-01    0.501E-02
RMM:  20    -0.258928508606E+03   -0.15557E-03   -0.74072E-04  2877   0.609E-02    0.285E-02
RMM:  21    -0.258928541737E+03   -0.33130E-04   -0.22609E-04  2512   0.334E-02    0.112E-02
RMM:  22    -0.258928553644E+03   -0.11907E-04   -0.81516E-05  2824   0.191E-02    0.762E-03
RMM:  23    -0.258928552930E+03    0.71378E-06   -0.18002E-05  2509   0.978E-03    0.349E-03
RMM:  24    -0.258928552484E+03    0.44620E-06   -0.77334E-06  2021   0.668E-03
   1 F= -.27159844E+03 E0= -.27159844E+03  d E =-.271598E+03  mag=    -0.0007
       N       E                     dE             d eps       ncg     rms          rms(c)
DAV:   1    -0.258984402983E+03   -0.55850E-01   -0.15438E+00  2624   0.224E+00    0.279E-01
RMM:   2    -0.258990091769E+03   -0.56888E-02   -0.90893E-02  2140   0.112E+00    0.130E-01
RMM:   3    -0.258993470086E+03   -0.33783E-02   -0.38511E-02  2451   0.497E-01    0.738E-02
RMM:   4    -0.258994062712E+03   -0.59263E-03   -0.61429E-03  2834   0.217E-01    0.519E-02
RMM:   5    -0.258994075945E+03   -0.13233E-04   -0.72838E-04  2947   0.608E-02    0.284E-02
RMM:   6    -0.258994083853E+03   -0.79081E-05   -0.20255E-04  2707   0.281E-02    0.736E-03
RMM:   7    -0.258994088301E+03   -0.44479E-05   -0.66431E-05  2701   0.152E-02    0.534E-03
RMM:   8    -0.258994089565E+03   -0.12639E-05   -0.25376E-05  2122   0.858E-03    0.389E-03
RMM:   9    -0.258994089045E+03    0.51999E-06   -0.92341E-06  1838   0.593E-03
   2 F= -.27166475E+03 E0= -.27166475E+03  d E =-.663135E-01  mag=    -0.0000
       N       E                     dE             d eps       ncg     rms          rms(c)
DAV:   1    -0.259005644301E+03   -0.11555E-01   -0.37614E+00  2304   0.355E+00    0.421E-01
RMM:   2    -0.259020875863E+03   -0.15232E-01   -0.22439E-01  2139   0.175E+00    0.199E-01
RMM:   3    -0.259029204586E+03   -0.83287E-02   -0.93506E-02  2461   0.787E-01    0.120E-01
RMM:   4    -0.259030693531E+03   -0.14889E-02   -0.15612E-02  2819   0.339E-01    0.848E-02
RMM:   5    -0.259030679647E+03    0.13884E-04   -0.17014E-03  2893   0.927E-02    0.363E-02
RMM:   6    -0.259030714707E+03   -0.35060E-04   -0.51714E-04  2904   0.450E-02    0.121E-02
RMM:   7    -0.259030726070E+03   -0.11363E-04   -0.15477E-04  2827   0.228E-02    0.822E-03
RMM:   8    -0.259030730532E+03   -0.44616E-05   -0.63730E-05  2559   0.130E-02    0.585E-03
RMM:   9    -0.259030731034E+03   -0.50226E-06   -0.21758E-05  2071   0.828E-03    0.317E-03
RMM:  10    -0.259030732743E+03   -0.17092E-05   -0.11550E-05  1842   0.615E-03    0.946E-04
RMM:  11    -0.259030733232E+03   -0.48808E-06   -0.47232E-06  1643   0.476E-03
   3 F= -.27170246E+03 E0= -.27170246E+03  d E =-.104019E+00  mag=    -0.0000
       N       E                     dE             d eps       ncg     rms          rms(c)
DAV:   1    -0.259030762904E+03   -0.30160E-04   -0.18369E-03  2608   0.784E-02    0.910E-03
RMM:   2    -0.259030772216E+03   -0.93124E-05   -0.10706E-04  2144   0.382E-02    0.431E-03
RMM:   3    -0.259030777024E+03   -0.48078E-05   -0.41644E-05  2281   0.173E-02    0.262E-03
RMM:   4    -0.259030777289E+03   -0.26502E-06   -0.64908E-06  1837   0.741E-03
   4 F= -.27170248E+03 E0= -.27170248E+03  d E =-.104042E+00  mag=    -0.0000
       N       E                     dE             d eps       ncg     rms          rms(c)
DAV:   1    -0.259034141549E+03   -0.33645E-02   -0.28086E-01  2376   0.986E-01    0.105E-01
RMM:   2    -0.259034965293E+03   -0.82374E-03   -0.88995E-03  2446   0.312E-01    0.373E-02
RMM:   3    -0.259035179596E+03   -0.21430E-03   -0.22769E-03  2797   0.149E-01    0.244E-02
RMM:   4    -0.259035212694E+03   -0.33098E-04   -0.48885E-04  3117   0.654E-02    0.174E-02
RMM:   5    -0.259035211814E+03    0.88013E-06   -0.27274E-05  2726   0.161E-02    0.101E-02
RMM:   6    -0.259035211886E+03   -0.72674E-07   -0.71276E-06  2029   0.715E-03
   5 F= -.27170669E+03 E0= -.27170669E+03  d E =-.421012E-02  mag=    -0.0000
       N       E                     dE             d eps       ncg     rms          rms(c)
DAV:   1    -0.259035743653E+03   -0.53184E-03   -0.25289E+00  2280   0.296E+00    0.313E-01
RMM:   2    -0.259043177876E+03   -0.74342E-02   -0.80109E-02  2433   0.938E-01    0.112E-01
RMM:   3    -0.259045163880E+03   -0.19860E-02   -0.21013E-02  2802   0.449E-01    0.744E-02
RMM:   4    -0.259045430290E+03   -0.26641E-03   -0.40802E-03  3123   0.191E-01    0.521E-02
RMM:   5    -0.259045420585E+03    0.97053E-05   -0.25776E-04  2863   0.498E-02    0.282E-02
RMM:   6    -0.259045421962E+03   -0.13773E-05   -0.65340E-05  2861   0.216E-02    0.104E-02
RMM:   7    -0.259045423560E+03   -0.15984E-05   -0.18378E-05  2884   0.112E-02    0.397E-03
RMM:   8    -0.259045424237E+03   -0.67610E-06   -0.46408E-06  1853   0.576E-03
   6 F= -.27171624E+03 E0= -.27171624E+03  d E =-.137599E-01  mag=    -0.0000
       N       E                     dE             d eps       ncg     rms          rms(c)
DAV:   1    -0.259012974502E+03    0.32449E-01   -0.10118E+01  2232   0.594E+00    0.614E-01
RMM:   2    -0.259042759040E+03   -0.29785E-01   -0.32094E-01  2428   0.189E+00    0.224E-01
RMM:   3    -0.259051025517E+03   -0.82665E-02   -0.87209E-02  2821   0.906E-01    0.152E-01
RMM:   4    -0.259051921085E+03   -0.89557E-03   -0.14380E-02  3119   0.365E-01    0.106E-01
RMM:   5    -0.259051847986E+03    0.73099E-04   -0.10607E-03  2797   0.987E-02    0.501E-02
RMM:   6    -0.259051859253E+03   -0.11267E-04   -0.30299E-04  2893   0.447E-02    0.192E-02
RMM:   7    -0.259051863582E+03   -0.43287E-05   -0.83939E-05  3061   0.225E-02    0.870E-03
RMM:   8    -0.259051865992E+03   -0.24094E-05   -0.23565E-05  2886   0.115E-02    0.494E-03
RMM:   9    -0.259051866377E+03   -0.38521E-06   -0.64845E-06  2037   0.668E-03
   7 F= -.27172141E+03 E0= -.27172141E+03  d E =-.189273E-01  mag=    -0.0000
       N       E                     dE             d eps       ncg     rms          rms(c)
DAV:   1    -0.259053681567E+03   -0.18156E-02   -0.15827E-01  2768   0.721E-01    0.777E-02
RMM:   2    -0.259054107624E+03   -0.42606E-03   -0.46112E-03  2452   0.224E-01    0.244E-02
RMM:   3    -0.259054221187E+03   -0.11356E-03   -0.12099E-03  2797   0.109E-01    0.163E-02
RMM:   4    -0.259054241898E+03   -0.20712E-04   -0.27729E-04  3034   0.480E-02    0.128E-02
RMM:   5    -0.259054241119E+03    0.77894E-06   -0.14260E-05  2563   0.118E-02    0.828E-03
RMM:   6    -0.259054240841E+03    0.27838E-06   -0.56913E-06  1797   0.617E-03
   8 F= -.27172368E+03 E0= -.27172368E+03  d E =-.227215E-02  mag=    -0.0000
       N       E                     dE             d eps       ncg     rms          rms(c)
DAV:   1    -0.259054920178E+03   -0.67906E-03   -0.14258E+00  2304   0.217E+00    0.230E-01
RMM:   2    -0.259058781534E+03   -0.38614E-02   -0.41609E-02  2453   0.670E-01    0.732E-02
RMM:   3    -0.259059890367E+03   -0.11088E-02   -0.11727E-02  2815   0.326E-01    0.529E-02
RMM:   4    -0.259059991892E+03   -0.10153E-03   -0.15889E-03  3020   0.121E-01    0.395E-02
RMM:   5    -0.259059973909E+03    0.17983E-04   -0.12961E-04  2742   0.358E-02    0.171E-02
RMM:   6    -0.259059974975E+03   -0.10651E-05   -0.51142E-05  2626   0.174E-02    0.522E-03
RMM:   7    -0.259059975307E+03   -0.33224E-06   -0.11589E-05  2492   0.946E-03    0.303E-03
RMM:   8    -0.259059975810E+03   -0.50317E-06   -0.35328E-06  1659   0.522E-03
   9 F= -.27172911E+03 E0= -.27172911E+03  d E =-.770351E-02  mag=     0.0000
       N       E                     dE             d eps       ncg     rms          rms(c)
DAV:   1    -0.259044836256E+03    0.15139E-01   -0.57047E+00  2256   0.434E+00    0.453E-01
RMM:   2    -0.259060325785E+03   -0.15490E-01   -0.16666E-01  2455   0.134E+00    0.146E-01
RMM:   3    -0.259064776702E+03   -0.44509E-02   -0.46965E-02  2814   0.655E-01    0.105E-01
RMM:   4    -0.259065195260E+03   -0.41856E-03   -0.64772E-03  3025   0.244E-01    0.793E-02
RMM:   5    -0.259065121340E+03    0.73920E-04   -0.50709E-04  2778   0.698E-02    0.357E-02
RMM:   6    -0.259065124273E+03   -0.29336E-05   -0.20989E-04  2644   0.342E-02    0.106E-02
RMM:   7    -0.259065125003E+03   -0.73012E-06   -0.43192E-05  2933   0.187E-02    0.570E-03
RMM:   8    -0.259065127270E+03   -0.22666E-05   -0.17647E-05  2603   0.944E-03    0.496E-03
RMM:   9    -0.259065127336E+03   -0.66115E-07   -0.35745E-06  1638   0.523E-03
  10 F= -.27173367E+03 E0= -.27173367E+03  d E =-.122634E-01  mag=     0.0000
       N       E                     dE             d eps       ncg     rms          rms(c)
DAV:   1    -0.259066818364E+03   -0.16911E-02   -0.54667E-02  2688   0.446E-01    0.420E-02
RMM:   2    -0.259066970550E+03   -0.15219E-03   -0.16873E-03  2214   0.152E-01    0.203E-02
RMM:   3    -0.259067018150E+03   -0.47600E-04   -0.53638E-04  2849   0.773E-02    0.824E-03
RMM:   4    -0.259067027953E+03   -0.98038E-05   -0.11387E-04  2905   0.328E-02    0.693E-03
RMM:   5    -0.259067028088E+03   -0.13494E-06   -0.98159E-06  2374   0.909E-03
  11 F= -.27173563E+03 E0= -.27173563E+03  d E =-.196480E-02  mag=    -0.0000
       N       E                     dE             d eps       ncg     rms          rms(c)
DAV:   1    -0.259069262249E+03   -0.22343E-02   -0.47484E-01  2304   0.131E+00    0.124E-01
RMM:   2    -0.259070569919E+03   -0.13077E-02   -0.14606E-02  2215   0.448E-01    0.603E-02
RMM:   3    -0.259070996561E+03   -0.42664E-03   -0.48123E-03  2865   0.228E-01    0.256E-02
RMM:   4    -0.259071068922E+03   -0.72362E-04   -0.83109E-04  2909   0.893E-02    0.199E-02
RMM:   5    -0.259071068159E+03    0.76345E-06   -0.72187E-05  3097   0.253E-02    0.109E-02
RMM:   6    -0.259071067321E+03    0.83741E-06   -0.17012E-05  2624   0.101E-02    0.344E-03
RMM:   7    -0.259071067814E+03   -0.49293E-06   -0.49455E-06  1871   0.564E-03
  12 F= -.27173986E+03 E0= -.27173986E+03  d E =-.619376E-02  mag=     0.0000
       N       E                     dE             d eps       ncg     rms          rms(c)
DAV:   1    -0.259064841834E+03    0.62255E-02   -0.19010E+00  2224   0.263E+00    0.251E-01
RMM:   2    -0.259070092320E+03   -0.52505E-02   -0.58612E-02  2216   0.896E-01    0.122E-01
RMM:   3    -0.259071807120E+03   -0.17148E-02   -0.19343E-02  2863   0.455E-01    0.518E-02
RMM:   4    -0.259072086496E+03   -0.27938E-03   -0.32033E-03  2911   0.176E-01    0.398E-02
RMM:   5    -0.259072081876E+03    0.46204E-05   -0.28039E-04  3149   0.501E-02    0.206E-02
RMM:   6    -0.259072079647E+03    0.22285E-05   -0.65404E-05  2864   0.198E-02    0.649E-03
RMM:   7    -0.259072081448E+03   -0.18005E-05   -0.19247E-05  2881   0.101E-02    0.480E-03
RMM:   8    -0.259072081949E+03   -0.50116E-06   -0.49592E-06  1888   0.595E-03
  13 F= -.27174126E+03 E0= -.27174126E+03  d E =-.758800E-02  mag=    -0.0000
       N       E                     dE             d eps       ncg     rms          rms(c)
DAV:   1    -0.259071875727E+03    0.20572E-03   -0.24465E-01  2304   0.944E-01    0.902E-02
RMM:   2    -0.259072549638E+03   -0.67391E-03   -0.75485E-03  2216   0.322E-01    0.439E-02
RMM:   3    -0.259072764070E+03   -0.21443E-03   -0.24350E-03  2847   0.163E-01    0.181E-02
RMM:   4    -0.259072806060E+03   -0.41990E-04   -0.47146E-04  2911   0.669E-02    0.148E-02
RMM:   5    -0.259072806222E+03   -0.16228E-06   -0.37315E-05  2986   0.181E-02    0.916E-03
RMM:   6    -0.259072805396E+03    0.82621E-06   -0.91737E-06  2230   0.764E-03
  14 F= -.27174184E+03 E0= -.27174184E+03  d E =-.817484E-02  mag=    -0.0000
       N       E                     dE             d eps       ncg     rms          rms(c)
DAV:   1    -0.259073900107E+03   -0.10939E-02   -0.32389E-01  2368   0.105E+00    0.100E-01
RMM:   2    -0.259074793864E+03   -0.89376E-03   -0.98591E-03  2696   0.333E-01    0.416E-02
RMM:   3    -0.259075016052E+03   -0.22219E-03   -0.24467E-03  2900   0.153E-01    0.243E-02
RMM:   4    -0.259075044669E+03   -0.28617E-04   -0.39862E-04  2902   0.597E-02    0.174E-02
RMM:   5    -0.259075042264E+03    0.24048E-05   -0.30051E-05  2670   0.162E-02    0.664E-03
RMM:   6    -0.259075042743E+03   -0.47855E-06   -0.89579E-06  2250   0.743E-03
  15 F= -.27174408E+03 E0= -.27174408E+03  d E =-.223815E-02  mag=     0.0000
       N       E                     dE             d eps       ncg     rms          rms(c)
DAV:   1    -0.259074628025E+03    0.41424E-03   -0.35414E-01  2528   0.110E+00    0.104E-01
RMM:   2    -0.259075606607E+03   -0.97858E-03   -0.10797E-02  2674   0.349E-01    0.434E-02
RMM:   3    -0.259075850507E+03   -0.24390E-03   -0.26966E-03  2908   0.161E-01    0.255E-02
RMM:   4    -0.259075882028E+03   -0.31521E-04   -0.43946E-04  2902   0.628E-02    0.183E-02
RMM:   5    -0.259075879639E+03    0.23891E-05   -0.35299E-05  2699   0.177E-02    0.673E-03
RMM:   6    -0.259075880280E+03   -0.64146E-06   -0.10134E-05  2396   0.819E-03    0.248E-03
RMM:   7    -0.259075880452E+03   -0.17185E-06   -0.19638E-06  1469   0.482E-03
  16 F= -.27174492E+03 E0= -.27174492E+03  d E =-.307700E-02  mag=     0.0000
       N       E                     dE             d eps       ncg     rms          rms(c)
DAV:   1    -0.259076461178E+03   -0.58090E-03   -0.25372E-01  2576   0.788E-01    0.679E-02
RMM:   2    -0.259077023345E+03   -0.56217E-03   -0.58334E-03  2983   0.216E-01    0.150E-02
RMM:   3    -0.259077167636E+03   -0.14429E-03   -0.14641E-03  2917   0.993E-02    0.140E-02
RMM:   4    -0.259077187324E+03   -0.19688E-04   -0.21812E-04  2961   0.394E-02    0.151E-02
RMM:   5    -0.259077186293E+03    0.10307E-05   -0.11421E-05  2147   0.101E-02    0.139E-02
RMM:   6    -0.259077187267E+03   -0.97364E-06   -0.17675E-05  2048   0.872E-03    0.922E-03
RMM:   7    -0.259077187403E+03   -0.13549E-06   -0.42391E-06  1742   0.527E-03
  17 F= -.27174621E+03 E0= -.27174621E+03  d E =-.129011E-02  mag=     0.0000
       N       E                     dE             d eps       ncg     rms          rms(c)
DAV:   1    -0.259073615607E+03    0.35717E-02   -0.22846E+00  2392   0.237E+00    0.201E-01
RMM:   2    -0.259078678753E+03   -0.50631E-02   -0.52675E-02  2986   0.649E-01    0.468E-02
RMM:   3    -0.259080049976E+03   -0.13712E-02   -0.13857E-02  2914   0.298E-01    0.446E-02
RMM:   4    -0.259080166233E+03   -0.11626E-03   -0.13553E-03  2972   0.104E-01    0.438E-02
RMM:   5    -0.259080158990E+03    0.72427E-05   -0.10225E-04  3016   0.300E-02    0.378E-02
RMM:   6    -0.259080169583E+03   -0.10593E-04   -0.16075E-04  2112   0.241E-02    0.272E-02
RMM:   7    -0.259080167210E+03    0.23733E-05   -0.16614E-05  2324   0.109E-02    0.192E-02
RMM:   8    -0.259080163231E+03    0.39793E-05   -0.13242E-05  2062   0.784E-03    0.415E-03
RMM:   9    -0.259080163539E+03   -0.30852E-06   -0.27931E-06  1512   0.499E-03
  18 F= -.27174914E+03 E0= -.27174914E+03  d E =-.421729E-02  mag=     0.0000
       N       E                     dE             d eps       ncg     rms          rms(c)
DAV:   1    -0.259055579657E+03    0.24584E-01   -0.91461E+00  2384   0.475E+00    0.376E-01
RMM:   2    -0.259075910790E+03   -0.20331E-01   -0.21144E-01  2994   0.131E+00    0.957E-02
RMM:   3    -0.259081417530E+03   -0.55067E-02   -0.55807E-02  2948   0.604E-01    0.920E-02
RMM:   4    -0.259081887277E+03   -0.46975E-03   -0.54872E-03  3008   0.211E-01    0.896E-02
RMM:   5    -0.259081858145E+03    0.29132E-04   -0.41596E-04  3050   0.602E-02    0.769E-02
RMM:   6    -0.259081902219E+03   -0.44074E-04   -0.64743E-04  2112   0.493E-02    0.571E-02
RMM:   7    -0.259081892734E+03    0.94852E-05   -0.67007E-05  2475   0.224E-02    0.389E-02
RMM:   8    -0.259081877066E+03    0.15668E-04   -0.55096E-05  2118   0.158E-02    0.803E-03
RMM:   9    -0.259081878647E+03   -0.15813E-05   -0.11963E-05  2403   0.966E-03    0.634E-03
RMM:  10    -0.259081879008E+03   -0.36126E-06   -0.18060E-06  1436   0.492E-03
  19 F= -.27175076E+03 E0= -.27175076E+03  d E =-.584240E-02  mag=     0.0000
       N       E                     dE             d eps       ncg     rms          rms(c)
DAV:   1    -0.259082063837E+03   -0.18519E-03   -0.22763E-01  2736   0.713E-01    0.664E-02
RMM:   2    -0.259082571023E+03   -0.50719E-03   -0.52823E-03  2962   0.199E-01    0.138E-02
RMM:   3    -0.259082708554E+03   -0.13753E-03   -0.13942E-03  2952   0.930E-02    0.147E-02
RMM:   4    -0.259082721215E+03   -0.12661E-04   -0.15075E-04  2920   0.344E-02    0.146E-02
RMM:   5    -0.259082720273E+03    0.94202E-06   -0.11065E-05  2086   0.945E-03    0.122E-02
RMM:   6    -0.259082720836E+03   -0.56294E-06   -0.17567E-05  2010   0.834E-03    0.819E-03
RMM:   7    -0.259082720583E+03    0.25203E-06   -0.16820E-06  1464   0.473E-03
  20 F= -.27175160E+03 E0= -.27175160E+03  d E =-.832293E-03  mag=    -0.0000
       N       E                     dE             d eps       ncg     rms          rms(c)
DAV:   1    -0.259078260152E+03    0.44607E-02   -0.20469E+00  2368   0.214E+00    0.191E-01
RMM:   2    -0.259082830674E+03   -0.45705E-02   -0.47553E-02  2958   0.598E-01    0.411E-02
RMM:   3    -0.259084088591E+03   -0.12579E-02   -0.12755E-02  2958   0.278E-01    0.455E-02
RMM:   4    -0.259084179805E+03   -0.91214E-04   -0.11413E-03  2942   0.979E-02    0.444E-02
RMM:   5    -0.259084170639E+03    0.91661E-05   -0.94340E-05  2954   0.278E-02    0.370E-02
RMM:   6    -0.259084177579E+03   -0.69399E-05   -0.15258E-04  2106   0.227E-02    0.231E-02
RMM:   7    -0.259084175228E+03    0.23509E-05   -0.14824E-05  2273   0.105E-02    0.164E-02
RMM:   8    -0.259084171993E+03    0.32348E-05   -0.25462E-05  2070   0.934E-03    0.649E-03
RMM:   9    -0.259084171917E+03    0.76410E-07   -0.28586E-06  1568   0.554E-03
  21 F= -.27175302E+03 E0= -.27175302E+03  d E =-.225755E-02  mag=    -0.0000
       N       E                     dE             d eps       ncg     rms          rms(c)
DAV:   1    -0.259083531183E+03    0.64081E-03   -0.26569E-01  2656   0.769E-01    0.733E-02
RMM:   2    -0.259084121363E+03   -0.59018E-03   -0.61672E-03  2952   0.216E-01    0.154E-02
RMM:   3    -0.259084281417E+03   -0.16005E-03   -0.16169E-03  2954   0.100E-01    0.151E-02
RMM:   4    -0.259084299213E+03   -0.17796E-04   -0.20306E-04  2940   0.385E-02    0.153E-02
RMM:   5    -0.259084298169E+03    0.10449E-05   -0.12486E-05  2191   0.965E-03    0.130E-02
RMM:   6    -0.259084298778E+03   -0.60963E-06   -0.20288E-05  2030   0.870E-03    0.942E-03
RMM:   7    -0.259084298510E+03    0.26790E-06   -0.19971E-06  1478   0.474E-03
  22 F= -.27175314E+03 E0= -.27175314E+03  d E =-.237543E-02  mag=    -0.0000
       N       E                     dE             d eps       ncg     rms          rms(c)
DAV:   1    -0.259084964934E+03   -0.66616E-03   -0.18423E-01  2448   0.657E-01    0.660E-02
RMM:   2    -0.259085402480E+03   -0.43755E-03   -0.45568E-03  2758   0.194E-01    0.153E-02
RMM:   3    -0.259085518238E+03   -0.11576E-03   -0.11861E-03  2824   0.894E-02    0.157E-02
RMM:   4    -0.259085529277E+03   -0.11039E-04   -0.14002E-04  2956   0.340E-02    0.147E-02
RMM:   5    -0.259085527885E+03    0.13924E-05   -0.93446E-06  2068   0.887E-03    0.109E-02
RMM:   6    -0.259085528102E+03   -0.21710E-06   -0.14272E-05  1962   0.721E-03    0.520E-03
RMM:   7    -0.259085527924E+03    0.17847E-06   -0.14285E-06  1418   0.440E-03
  23 F= -.27175435E+03 E0= -.27175435E+03  d E =-.121485E-02  mag=     0.0000
       N       E                     dE             d eps       ncg     rms          rms(c)
DAV:   1    -0.259083228505E+03    0.22996E-02   -0.16557E+00  2336   0.197E+00    0.193E-01
RMM:   2    -0.259087163584E+03   -0.39351E-02   -0.40957E-02  2752   0.582E-01    0.462E-02
RMM:   3    -0.259088207655E+03   -0.10441E-02   -0.10674E-02  2820   0.269E-01    0.455E-02
RMM:   4    -0.259088307692E+03   -0.10004E-03   -0.12595E-03  2988   0.102E-01    0.429E-02
RMM:   5    -0.259088295078E+03    0.12614E-04   -0.80390E-05  2897   0.269E-02    0.315E-02
RMM:   6    -0.259088296455E+03   -0.13770E-05   -0.12378E-04  2114   0.199E-02    0.151E-02
RMM:   7    -0.259088294715E+03    0.17406E-05   -0.13247E-05  2252   0.102E-02    0.863E-03
RMM:   8    -0.259088294083E+03    0.63209E-06   -0.17068E-05  2004   0.779E-03    0.673E-03
RMM:   9    -0.259088293579E+03    0.50407E-06   -0.26291E-06  1601   0.526E-03
  24 F= -.27175708E+03 E0= -.27175708E+03  d E =-.393793E-02  mag=     0.0000
       N       E                     dE             d eps       ncg     rms          rms(c)
DAV:   1    -0.259069304831E+03    0.18989E-01   -0.66214E+00  2344   0.395E+00    0.375E-01
RMM:   2    -0.259085102427E+03   -0.15798E-01   -0.16478E-01  2766   0.116E+00    0.933E-02
RMM:   3    -0.259089306812E+03   -0.42044E-02   -0.42868E-02  2800   0.538E-01    0.876E-02
RMM:   4    -0.259089714425E+03   -0.40761E-03   -0.50847E-03  2985   0.205E-01    0.831E-02
RMM:   5    -0.259089666686E+03    0.47739E-04   -0.32997E-04  2974   0.545E-02    0.609E-02
RMM:   6    -0.259089669957E+03   -0.32704E-05   -0.46504E-04  2112   0.391E-02    0.296E-02
RMM:   7    -0.259089664108E+03    0.58490E-05   -0.53264E-05  2494   0.201E-02    0.171E-02
RMM:   8    -0.259089661056E+03    0.30522E-05   -0.59548E-05  2120   0.145E-02    0.122E-02
RMM:   9    -0.259089659690E+03    0.13658E-05   -0.94312E-06  2034   0.938E-03    0.218E-03
RMM:  10    -0.259089660300E+03   -0.60987E-06   -0.60538E-06  1835   0.583E-03
  25 F= -.27175836E+03 E0= -.27175836E+03  d E =-.522422E-02  mag=     0.0000
       N       E                     dE             d eps       ncg     rms          rms(c)
DAV:   1    -0.259088482710E+03    0.11770E-02   -0.44451E-01  2576   0.102E+00    0.106E-01
RMM:   2    -0.259089535391E+03   -0.10527E-02   -0.10928E-02  2764   0.300E-01    0.243E-02
RMM:   3    -0.259089815155E+03   -0.27976E-03   -0.28427E-03  2799   0.137E-01    0.241E-02
RMM:   4    -0.259089841790E+03   -0.26635E-04   -0.33105E-04  2983   0.521E-02    0.217E-02
RMM:   5    -0.259089838550E+03    0.32404E-05   -0.21631E-05  2558   0.134E-02    0.149E-02
RMM:   6    -0.259089838471E+03    0.78615E-07   -0.26179E-05  2038   0.964E-03    0.641E-03
RMM:   7    -0.259089838202E+03    0.26937E-06   -0.28079E-06  1612   0.520E-03
  26 F= -.27175856E+03 E0= -.27175856E+03  d E =-.542235E-02  mag=     0.0000
       N       E                     dE             d eps       ncg     rms          rms(c)
DAV:   1    -0.259088711052E+03    0.11274E-02   -0.83441E-01  2336   0.139E+00    0.167E-01
RMM:   2    -0.259090761440E+03   -0.20504E-02   -0.21677E-02  2694   0.421E-01    0.369E-02
RMM:   3    -0.259091330054E+03   -0.56861E-03   -0.58873E-03  2874   0.200E-01    0.338E-02
RMM:   4    -0.259091374587E+03   -0.44533E-04   -0.60175E-04  2946   0.747E-02    0.307E-02
RMM:   5    -0.259091365353E+03    0.92339E-05   -0.52588E-05  2706   0.219E-02    0.187E-02
RMM:   6    -0.259091365872E+03   -0.51839E-06   -0.52648E-05  2064   0.137E-02    0.847E-03
RMM:   7    -0.259091364625E+03    0.12471E-05   -0.65707E-06  1994   0.773E-03    0.344E-03
RMM:   8    -0.259091364983E+03   -0.35797E-06   -0.67148E-06  1830   0.541E-03
  27 F= -.27176007E+03 E0= -.27176007E+03  d E =-.150708E-02  mag=    -0.0000
       N       E                     dE             d eps       ncg     rms          rms(c)
DAV:   1    -0.259090754613E+03    0.61001E-03   -0.32172E-01  2512   0.861E-01    0.104E-01
RMM:   2    -0.259091543965E+03   -0.78935E-03   -0.83308E-03  2689   0.261E-01    0.225E-02
RMM:   3    -0.259091761879E+03   -0.21791E-03   -0.22608E-03  2868   0.123E-01    0.212E-02
RMM:   4    -0.259091779034E+03   -0.17155E-04   -0.23208E-04  2955   0.461E-02    0.192E-02
RMM:   5    -0.259091775613E+03    0.34215E-05   -0.21456E-05  2619   0.141E-02    0.117E-02
RMM:   6    -0.259091775935E+03   -0.32175E-06   -0.20356E-05  1990   0.887E-03    0.517E-03
RMM:   7    -0.259091775455E+03    0.47909E-06   -0.23583E-06  1498   0.508E-03
  28 F= -.27176047E+03 E0= -.27176047E+03  d E =-.190550E-02  mag=     0.0000
       N       E                     dE             d eps       ncg     rms          rms(c)
DAV:   1    -0.259087247689E+03    0.45282E-02   -0.12897E+00  2280   0.173E+00    0.203E-01
RMM:   2    -0.259090441346E+03   -0.31937E-02   -0.33635E-02  2688   0.526E-01    0.450E-02
RMM:   3    -0.259091315781E+03   -0.87444E-03   -0.90891E-03  2872   0.249E-01    0.429E-02
RMM:   4    -0.259091383588E+03   -0.67806E-04   -0.93221E-04  2946   0.928E-02    0.394E-02
RMM:   5    -0.259091368827E+03    0.14761E-04   -0.80645E-05  2778   0.261E-02    0.252E-02
RMM:   6    -0.259091369402E+03   -0.57579E-06   -0.91227E-05  2078   0.173E-02    0.113E-02
RMM:   7    -0.259091367404E+03    0.19987E-05   -0.10692E-05  2172   0.946E-03    0.526E-03
RMM:   8    -0.259091367735E+03   -0.33137E-06   -0.11979E-05  1962   0.656E-03    0.514E-03
RMM:   9    -0.259091367226E+03    0.50862E-06   -0.23963E-06  1545   0.492E-03
  29 F= -.27176003E+03 E0= -.27176003E+03  d E =-.147342E-02  mag=    -0.0000
       N       E                     dE             d eps       ncg     rms          rms(c)
DAV:   1    -0.259089440177E+03    0.19276E-02   -0.74894E-01  2296   0.131E+00    0.164E-01
RMM:   2    -0.259091292155E+03   -0.18520E-02   -0.19427E-02  2696   0.398E-01    0.347E-02
RMM:   3    -0.259091797143E+03   -0.50499E-03   -0.52342E-03  2868   0.188E-01    0.338E-02
RMM:   4    -0.259091834929E+03   -0.37786E-04   -0.53004E-04  2930   0.701E-02    0.298E-02
RMM:   5    -0.259091826317E+03    0.86124E-05   -0.46405E-05  2653   0.206E-02    0.171E-02
RMM:   6    -0.259091826578E+03   -0.26144E-06   -0.42861E-05  2070   0.127E-02    0.721E-03
RMM:   7    -0.259091825599E+03    0.97866E-06   -0.54728E-06  1904   0.731E-03
  30 F= -.27176051E+03 E0= -.27176051E+03  d E =-.194991E-02  mag=    -0.0000
       N       E                     dE             d eps       ncg     rms          rms(c)
DAV:   1    -0.259090313507E+03    0.15131E-02   -0.10206E+00  2240   0.149E+00    0.199E-01
RMM:   2    -0.259092756590E+03   -0.24431E-02   -0.25759E-02  2641   0.448E-01    0.460E-02
RMM:   3    -0.259093444781E+03   -0.68819E-03   -0.71159E-03  2789   0.210E-01    0.364E-02
RMM:   4    -0.259093490995E+03   -0.46214E-04   -0.63826E-04  3006   0.764E-02    0.320E-02
RMM:   5    -0.259093480746E+03    0.10249E-04   -0.58241E-05  2646   0.229E-02    0.184E-02
RMM:   6    -0.259093482353E+03   -0.16072E-05   -0.50476E-05  2142   0.139E-02    0.696E-03
RMM:   7    -0.259093481341E+03    0.10127E-05   -0.61978E-06  1898   0.806E-03    0.251E-03
RMM:   8    -0.259093481704E+03   -0.36337E-06   -0.44170E-06  1715   0.503E-03
  31 F= -.27176207E+03 E0= -.27176207E+03  d E =-.156175E-02  mag=    -0.0000
       N       E                     dE             d eps       ncg     rms          rms(c)
DAV:   1    -0.259090676080E+03    0.28053E-02   -0.11923E+00  2320   0.161E+00    0.212E-01
RMM:   2    -0.259093537386E+03   -0.28613E-02   -0.30078E-02  2632   0.486E-01    0.489E-02
RMM:   3    -0.259094341602E+03   -0.80422E-03   -0.83233E-03  2803   0.228E-01    0.398E-02
RMM:   4    -0.259094395844E+03   -0.54242E-04   -0.75319E-04  3007   0.832E-02    0.353E-02
RMM:   5    -0.259094383655E+03    0.12189E-04   -0.68356E-05  2675   0.249E-02    0.207E-02
RMM:   6    -0.259094385713E+03   -0.20578E-05   -0.63827E-05  2144   0.153E-02    0.795E-03
RMM:   7    -0.259094384420E+03    0.12930E-05   -0.77432E-06  2006   0.888E-03    0.294E-03
RMM:   8    -0.259094384888E+03   -0.46808E-06   -0.60473E-06  1780   0.553E-03
  32 F= -.27176288E+03 E0= -.27176288E+03  d E =-.236520E-02  mag=    -0.0000
       N       E                     dE             d eps       ncg     rms          rms(c)
DAV:   1    -0.259094163530E+03    0.22089E-03   -0.10003E-01  2664   0.466E-01    0.627E-02
RMM:   2    -0.259094401928E+03   -0.23840E-03   -0.25104E-03  2616   0.141E-01    0.141E-02
RMM:   3    -0.259094469630E+03   -0.67702E-04   -0.70234E-04  2828   0.668E-02    0.116E-02
RMM:   4    -0.259094474594E+03   -0.49643E-05   -0.66585E-05  2983   0.250E-02    0.103E-02
RMM:   5    -0.259094473644E+03    0.94992E-06   -0.67210E-06  1851   0.767E-03
  33 F= -.27176294E+03 E0= -.27176294E+03  d E =-.242546E-02  mag=     0.0000
       N       E                     dE             d eps       ncg     rms          rms(c)
DAV:   1    -0.259093713553E+03    0.76104E-03   -0.55652E-01  2272   0.117E+00    0.118E-01
RMM:   2    -0.259095075729E+03   -0.13622E-02   -0.14423E-02  2776   0.350E-01    0.269E-02
RMM:   3    -0.259095437424E+03   -0.36169E-03   -0.37543E-03  2878   0.162E-01    0.264E-02
RMM:   4    -0.259095469448E+03   -0.32024E-04   -0.41877E-04  2990   0.619E-02    0.245E-02
RMM:   5    -0.259095464913E+03    0.45353E-05   -0.32682E-05  2782   0.168E-02    0.167E-02
RMM:   6    -0.259095464925E+03   -0.12142E-07   -0.39161E-05  2064   0.112E-02    0.710E-03
RMM:   7    -0.259095464263E+03    0.66225E-06   -0.40421E-06  1724   0.609E-03
  34 F= -.27176388E+03 E0= -.27176388E+03  d E =-.941047E-03  mag=     0.0000
       N       E                     dE             d eps       ncg     rms          rms(c)
DAV:   1    -0.259094432298E+03    0.10326E-02   -0.44611E-01  2416   0.105E+00    0.102E-01
RMM:   2    -0.259095530811E+03   -0.10985E-02   -0.11583E-02  2768   0.314E-01    0.237E-02
RMM:   3    -0.259095814778E+03   -0.28397E-03   -0.29774E-03  2874   0.144E-01    0.246E-02
RMM:   4    -0.259095839661E+03   -0.24883E-04   -0.33414E-04  2960   0.551E-02    0.228E-02
RMM:   5    -0.259095835599E+03    0.40621E-05   -0.25850E-05  2740   0.149E-02    0.155E-02
RMM:   6    -0.259095835541E+03    0.58206E-07   -0.33450E-05  2048   0.103E-02    0.633E-03
RMM:   7    -0.259095834989E+03    0.55172E-06   -0.32509E-06  1611   0.559E-03
  35 F= -.27176421E+03 E0= -.27176421E+03  d E =-.126812E-02  mag=    -0.0000
       N       E                     dE             d eps       ncg     rms          rms(c)
DAV:   1    -0.259095550900E+03    0.28464E-03   -0.35340E-01  2448   0.929E-01    0.786E-02
RMM:   2    -0.259096387960E+03   -0.83706E-03   -0.87944E-03  2840   0.271E-01    0.190E-02
RMM:   3    -0.259096603813E+03   -0.21585E-03   -0.22474E-03  2874   0.124E-01    0.206E-02
RMM:   4    -0.259096625527E+03   -0.21714E-04   -0.27706E-04  2996   0.481E-02    0.196E-02
RMM:   5    -0.259096622934E+03    0.25930E-05   -0.18186E-05  2450   0.125E-02    0.145E-02
RMM:   6    -0.259096622486E+03    0.44761E-06   -0.29708E-05  2026   0.941E-03    0.695E-03
RMM:   7    -0.259096622072E+03    0.41390E-06   -0.26972E-06  1553   0.492E-03
  36 F= -.27176499E+03 E0= -.27176499E+03  d E =-.781014E-03  mag=    -0.0000
       N       E                     dE             d eps       ncg     rms          rms(c)
DAV:   1    -0.259092073728E+03    0.45488E-02   -0.32196E+00  2272   0.279E+00    0.225E-01
RMM:   2    -0.259096595415E+03   -0.45217E-02   -0.49032E-02  2850   0.706E-01    0.581E-02
RMM:   3    -0.259097516894E+03   -0.92148E-03   -0.10119E-02  2877   0.312E-01    0.464E-02
RMM:   4    -0.259097675702E+03   -0.15881E-03   -0.22520E-03  2996   0.137E-01    0.413E-02
RMM:   5    -0.259097658032E+03    0.17670E-04   -0.13726E-04  2867   0.357E-02    0.215E-02
RMM:   6    -0.259097655549E+03    0.24825E-05   -0.73276E-05  2310   0.180E-02    0.562E-03
RMM:   7    -0.259097655742E+03   -0.19266E-06   -0.14105E-05  2640   0.103E-02    0.322E-03
RMM:   8    -0.259097656412E+03   -0.66995E-06   -0.51097E-06  1816   0.573E-03
  37 F= -.27176600E+03 E0= -.27176600E+03  d E =-.179786E-02  mag=    -0.0000
       N       E                     dE             d eps       ncg     rms          rms(c)
DAV:   1    -0.259097153549E+03    0.50219E-03   -0.41062E-01  2640   0.973E-01    0.856E-02
RMM:   2    -0.259098106615E+03   -0.95307E-03   -0.99298E-03  2830   0.284E-01    0.190E-02
RMM:   3    -0.259098363419E+03   -0.25680E-03   -0.26009E-03  2832   0.130E-01    0.206E-02
RMM:   4    -0.259098390266E+03   -0.26846E-04   -0.31586E-04  2970   0.507E-02    0.204E-02
RMM:   5    -0.259098388335E+03    0.19312E-05   -0.22011E-05  2494   0.132E-02    0.171E-02
RMM:   6    -0.259098388947E+03   -0.61250E-06   -0.41768E-05  2048   0.111E-02    0.107E-02
RMM:   7    -0.259098388151E+03    0.79564E-06   -0.38572E-06  1728   0.562E-03
  38 F= -.27176671E+03 E0= -.27176671E+03  d E =-.709125E-03  mag=     0.0000
       N       E                     dE             d eps       ncg     rms          rms(c)
DAV:   1    -0.259093493979E+03    0.48950E-02   -0.37534E+00  2240   0.293E+00    0.237E-01
RMM:   2    -0.259098551768E+03   -0.50578E-02   -0.54100E-02  2836   0.740E-01    0.579E-02
RMM:   3    -0.259099639254E+03   -0.10875E-02   -0.11381E-02  2823   0.325E-01    0.472E-02
RMM:   4    -0.259099824017E+03   -0.18476E-03   -0.23732E-03  2989   0.139E-01    0.444E-02
RMM:   5    -0.259099808043E+03    0.15973E-04   -0.14921E-04  2909   0.364E-02    0.264E-02
RMM:   6    -0.259099805219E+03    0.28246E-05   -0.10916E-04  2202   0.204E-02    0.874E-03
RMM:   7    -0.259099804630E+03    0.58913E-06   -0.17306E-05  2548   0.115E-02    0.382E-03
RMM:   8    -0.259099805660E+03   -0.10308E-05   -0.10760E-05  2012   0.680E-03    0.562E-03
RMM:   9    -0.259099805029E+03    0.63109E-06   -0.33912E-06  1685   0.511E-03
  39 F= -.27176806E+03 E0= -.27176806E+03  d E =-.205984E-02  mag=     0.0000
       N       E                     dE             d eps       ncg     rms          rms(c)
DAV:   1    -0.259054116535E+03    0.45689E-01   -0.14849E+01  2224   0.591E+00    0.454E-01
RMM:   2    -0.259088979895E+03   -0.34863E-01   -0.36526E-01  2836   0.171E+00    0.115E-01
RMM:   3    -0.259098327109E+03   -0.93472E-02   -0.95042E-02  2818   0.789E-01    0.118E-01
RMM:   4    -0.259099338974E+03   -0.10119E-02   -0.11795E-02  3002   0.307E-01    0.121E-01
RMM:   5    -0.259099255866E+03    0.83108E-04   -0.68618E-04  3016   0.795E-02    0.998E-02
RMM:   6    -0.259099293136E+03   -0.37270E-04   -0.15504E-03  2112   0.680E-02    0.686E-02
RMM:   7    -0.259099263323E+03    0.29814E-04   -0.14293E-04  2360   0.328E-02    0.450E-02
RMM:   8    -0.259099232720E+03    0.30603E-04   -0.21554E-04  2116   0.269E-02    0.148E-02
RMM:   9    -0.259099232538E+03    0.18175E-06   -0.22193E-05  2224   0.160E-02    0.412E-03
RMM:  10    -0.259099233927E+03   -0.13891E-05   -0.11858E-05  2205   0.818E-03    0.707E-03
RMM:  11    -0.259099233764E+03    0.16270E-06   -0.66950E-06  1845   0.625E-03
  40 F= -.27176737E+03 E0= -.27176737E+03  d E =-.136439E-02  mag=    -0.0000
       N       E                     dE             d eps       ncg     rms          rms(c)
DAV:   1    -0.259080192234E+03    0.19042E-01   -0.65808E+00  2240   0.389E+00    0.377E-01
RMM:   2    -0.259095604769E+03   -0.15413E-01   -0.16104E-01  2842   0.114E+00    0.807E-02
RMM:   3    -0.259099727820E+03   -0.41231E-02   -0.41853E-02  2814   0.520E-01    0.960E-02
RMM:   4    -0.259100166502E+03   -0.43868E-03   -0.51305E-03  2991   0.203E-01    0.860E-02
RMM:   5    -0.259100128792E+03    0.37710E-04   -0.27775E-04  2970   0.510E-02    0.681E-02
RMM:   6    -0.259100134469E+03   -0.56779E-05   -0.53603E-04  2112   0.401E-02    0.340E-02
RMM:   7    -0.259100128245E+03    0.62250E-05   -0.53956E-05  2453   0.197E-02    0.237E-02
RMM:   8    -0.259100117679E+03    0.10566E-04   -0.54255E-05  2102   0.140E-02    0.550E-03
RMM:   9    -0.259100118222E+03   -0.54299E-06   -0.79656E-06  2100   0.854E-03
  41 F= -.27176833E+03 E0= -.27176833E+03  d E =-.233028E-02  mag=     0.0000
       N       E                     dE             d eps       ncg     rms          rms(c)
DAV:   1    -0.259098781301E+03    0.13364E-02   -0.72138E-01  2288   0.128E+00    0.134E-01
RMM:   2    -0.259100495883E+03   -0.17146E-02   -0.17897E-02  2706   0.390E-01    0.291E-02
RMM:   3    -0.259100977778E+03   -0.48189E-03   -0.48597E-03  2888   0.182E-01    0.294E-02
RMM:   4    -0.259101024168E+03   -0.46390E-04   -0.54996E-04  3002   0.704E-02    0.285E-02
RMM:   5    -0.259101019836E+03    0.43328E-05   -0.39044E-05  2896   0.189E-02    0.222E-02
RMM:   6    -0.259101021924E+03   -0.20887E-05   -0.64024E-05  2070   0.146E-02    0.124E-02
RMM:   7    -0.259101020727E+03    0.11969E-05   -0.70301E-06  2003   0.760E-03    0.855E-03
RMM:   8    -0.259101019194E+03    0.15329E-05   -0.64945E-06  1884   0.535E-03    0.133E-03
RMM:   9    -0.259101019321E+03   -0.12680E-06   -0.96874E-07  1392   0.382E-03
  42 F= -.27176923E+03 E0= -.27176923E+03  d E =-.900726E-03  mag=    -0.0000
       N       E                     dE             d eps       ncg     rms          rms(c)
DAV:   1    -0.259091246159E+03    0.97730E-02   -0.33700E+00  2192   0.277E+00    0.280E-01
RMM:   2    -0.259099282345E+03   -0.80362E-02   -0.84045E-02  2705   0.844E-01    0.635E-02
RMM:   3    -0.259101553072E+03   -0.22707E-02   -0.22922E-02  2890   0.395E-01    0.610E-02
RMM:   4    -0.259101774718E+03   -0.22165E-03   -0.26022E-03  3015   0.153E-01    0.603E-02
RMM:   5    -0.259101755301E+03    0.19417E-04   -0.18847E-04  3014   0.418E-02    0.472E-02
RMM:   6    -0.259101766460E+03   -0.11159E-04   -0.30948E-04  2112   0.318E-02    0.280E-02
RMM:   7    -0.259101759869E+03    0.65910E-05   -0.33514E-05  2393   0.164E-02    0.187E-02
RMM:   8    -0.259101752523E+03    0.73462E-05   -0.29560E-05  2054   0.106E-02    0.308E-03
RMM:   9    -0.259101753798E+03   -0.12756E-05   -0.10023E-05  2236   0.730E-03    0.357E-03
RMM:  10    -0.259101753413E+03    0.38527E-06   -0.26019E-06  1584   0.491E-03
  43 F= -.27176997E+03 E0= -.27176997E+03  d E =-.163466E-02  mag=     0.0000
       N       E                     dE             d eps       ncg     rms          rms(c)
DAV:   1    -0.259101014955E+03    0.73884E-03   -0.43412E-01  2416   0.979E-01    0.108E-01
RMM:   2    -0.259102050507E+03   -0.10356E-02   -0.10849E-02  2722   0.299E-01    0.230E-02
RMM:   3    -0.259102348090E+03   -0.29758E-03   -0.29815E-03  2904   0.141E-01    0.233E-02
RMM:   4    -0.259102375369E+03   -0.27278E-04   -0.32201E-04  2994   0.543E-02    0.217E-02
RMM:   5    -0.259102373338E+03    0.20308E-05   -0.27911E-05  2838   0.153E-02    0.163E-02
RMM:   6    -0.259102374560E+03   -0.12218E-05   -0.32004E-05  2028   0.105E-02    0.880E-03
RMM:   7    -0.259102373784E+03    0.77583E-06   -0.38040E-06  1731   0.559E-03
  44 F= -.27177063E+03 E0= -.27177063E+03  d E =-.662904E-03  mag=    -0.0000
       N       E                     dE             d eps       ncg     rms          rms(c)
DAV:   1    -0.259090842359E+03    0.11532E-01   -0.39156E+00  2144   0.295E+00    0.302E-01
RMM:   2    -0.259100254713E+03   -0.94124E-02   -0.98532E-02  2714   0.900E-01    0.690E-02
RMM:   3    -0.259102950450E+03   -0.26957E-02   -0.27083E-02  2898   0.425E-01    0.682E-02
RMM:   4    -0.259103202682E+03   -0.25223E-03   -0.29825E-03  3016   0.164E-01    0.665E-02
RMM:   5    -0.259103178787E+03    0.23896E-04   -0.22034E-04  2986   0.440E-02    0.507E-02
RMM:   6    -0.259103195181E+03   -0.16395E-04   -0.35841E-04  2116   0.338E-02    0.314E-02
RMM:   7    -0.259103186398E+03    0.87832E-05   -0.38951E-05  2366   0.171E-02    0.205E-02
RMM:   8    -0.259103178319E+03    0.80791E-05   -0.44881E-05  2062   0.122E-02    0.437E-03
RMM:   9    -0.259103178776E+03   -0.45648E-06   -0.63271E-06  1942   0.767E-03
  45 F= -.27177156E+03 E0= -.27177156E+03  d E =-.159639E-02  mag=    -0.0000
       N       E                     dE             d eps       ncg     rms          rms(c)
DAV:   1    -0.259103214611E+03   -0.36292E-04   -0.13616E-01  2608   0.560E-01    0.580E-02
RMM:   2    -0.259103555188E+03   -0.34058E-03   -0.35577E-03  2780   0.177E-01    0.139E-02
RMM:   3    -0.259103648718E+03   -0.93530E-04   -0.93283E-04  2928   0.814E-02    0.140E-02
RMM:   4    -0.259103661170E+03   -0.12452E-04   -0.14189E-04  2976   0.339E-02    0.127E-02
RMM:   5    -0.259103660716E+03    0.45347E-06   -0.11249E-05  2404   0.941E-03    0.937E-03
RMM:   6    -0.259103660887E+03   -0.17067E-06   -0.98873E-06  1946   0.660E-03
  46 F= -.27177209E+03 E0= -.27177209E+03  d E =-.523085E-03  mag=    -0.0000
       N       E                     dE             d eps       ncg     rms          rms(c)
DAV:   1    -0.259100490689E+03    0.31700E-02   -0.12247E+00  2160   0.168E+00    0.165E-01
RMM:   2    -0.259103541506E+03   -0.30508E-02   -0.31852E-02  2790   0.524E-01    0.412E-02
RMM:   3    -0.259104373194E+03   -0.83169E-03   -0.82844E-03  2920   0.242E-01    0.407E-02
RMM:   4    -0.259104484304E+03   -0.11111E-03   -0.12617E-03  3016   0.101E-01    0.379E-02
RMM:   5    -0.259104479889E+03    0.44144E-05   -0.93109E-05  2974   0.275E-02    0.283E-02
RMM:   6    -0.259104481882E+03   -0.19929E-05   -0.88838E-05  2090   0.183E-02    0.149E-02
RMM:   7    -0.259104480867E+03    0.10150E-05   -0.13789E-05  2360   0.101E-02    0.884E-03
RMM:   8    -0.259104480209E+03    0.65857E-06   -0.15225E-05  1990   0.759E-03    0.609E-03
RMM:   9    -0.259104479837E+03    0.37197E-06   -0.29631E-06  1670   0.510E-03
  47 F= -.27177303E+03 E0= -.27177303E+03  d E =-.146526E-02  mag=     0.0000
       N       E                     dE             d eps       ncg     rms          rms(c)
DAV:   1    -0.259103607972E+03    0.87224E-03   -0.28735E-01  2448   0.816E-01    0.824E-02
RMM:   2    -0.259104327027E+03   -0.71905E-03   -0.75053E-03  2790   0.256E-01    0.200E-02
RMM:   3    -0.259104523421E+03   -0.19639E-03   -0.19533E-03  2922   0.118E-01    0.202E-02
RMM:   4    -0.259104549555E+03   -0.26133E-04   -0.29737E-04  2996   0.494E-02    0.186E-02
RMM:   5    -0.259104548542E+03    0.10127E-05   -0.22619E-05  2812   0.133E-02    0.138E-02
RMM:   6    -0.259104548968E+03   -0.42595E-06   -0.20852E-05  2026   0.894E-03    0.708E-03
RMM:   7    -0.259104548732E+03    0.23608E-06   -0.30128E-06  1586   0.510E-03
  48 F= -.27177316E+03 E0= -.27177316E+03  d E =-.159401E-02  mag=    -0.0000
       N       E                     dE             d eps       ncg     rms          rms(c)
DAV:   1    -0.259104018167E+03    0.53080E-03   -0.21881E-01  2400   0.771E-01    0.751E-02
RMM:   2    -0.259104611354E+03   -0.59319E-03   -0.64160E-03  2654   0.250E-01    0.222E-02
RMM:   3    -0.259104767382E+03   -0.15603E-03   -0.16738E-03  2882   0.115E-01    0.208E-02
RMM:   4    -0.259104785287E+03   -0.17905E-04   -0.24672E-04  2944   0.460E-02    0.166E-02
RMM:   5    -0.259104782562E+03    0.27251E-05   -0.19686E-05  2575   0.122E-02    0.760E-03
RMM:   6    -0.259104782544E+03    0.18201E-07   -0.84875E-06  1994   0.658E-03
  49 F= -.27177344E+03 E0= -.27177344E+03  d E =-.277055E-03  mag=     0.0000
       N       E                     dE             d eps       ncg     rms          rms(c)
DAV:   1    -0.259104783562E+03   -0.10004E-05   -0.13283E-04  2608   0.194E-02    0.247E-03
RMM:   2    -0.259104783895E+03   -0.33256E-06   -0.35387E-06  1524   0.608E-03
  50 F= -.27177344E+03 E0= -.27177344E+03  d E =-.277319E-03  mag=     0.0000
       N       E                     dE             d eps       ncg     rms          rms(c)
DAV:   1    -0.259104541749E+03    0.24181E-03   -0.13540E-01  2352   0.590E-01    0.558E-02
RMM:   2    -0.259104878023E+03   -0.33627E-03   -0.35262E-03  2736   0.180E-01    0.146E-02
RMM:   3    -0.259104968373E+03   -0.90350E-04   -0.91215E-04  2878   0.825E-02    0.128E-02
RMM:   4    -0.259104978204E+03   -0.98310E-05   -0.11676E-04  2974   0.318E-02    0.120E-02
RMM:   5    -0.259104977482E+03    0.72169E-06   -0.95711E-06  2167   0.899E-03
  51 F= -.27177368E+03 E0= -.27177368E+03  d E =-.243734E-03  mag=    -0.0000
       N       E                     dE             d eps       ncg     rms          rms(c)
DAV:   1    -0.259104604794E+03    0.37341E-03   -0.14360E-01  2432   0.606E-01    0.597E-02
RMM:   2    -0.259104955933E+03   -0.35114E-03   -0.37168E-03  2738   0.185E-01    0.163E-02
RMM:   3    -0.259105051139E+03   -0.95207E-04   -0.95607E-04  2880   0.858E-02    0.124E-02
RMM:   4    -0.259105064751E+03   -0.13612E-04   -0.15287E-04  3004   0.358E-02    0.117E-02
RMM:   5    -0.259105064379E+03    0.37199E-06   -0.10978E-05  2260   0.958E-03    0.874E-03
RMM:   6    -0.259105064602E+03   -0.22229E-06   -0.95145E-06  1936   0.645E-03
  52 F= -.27177382E+03 E0= -.27177382E+03  d E =-.382749E-03  mag=    -0.0000
       N       E                     dE             d eps       ncg     rms          rms(c)
DAV:   1    -0.259103033920E+03    0.20305E-02   -0.57776E-01  2256   0.122E+00    0.115E-01
RMM:   2    -0.259104475930E+03   -0.14420E-02   -0.15148E-02  2750   0.372E-01    0.306E-02
RMM:   3    -0.259104857899E+03   -0.38197E-03   -0.38370E-03  2864   0.170E-01    0.257E-02
RMM:   4    -0.259104905796E+03   -0.47897E-04   -0.55392E-04  3030   0.680E-02    0.244E-02
RMM:   5    -0.259104902956E+03    0.28393E-05   -0.39150E-05  2896   0.189E-02    0.175E-02
RMM:   6    -0.259104903835E+03   -0.87827E-06   -0.38522E-05  2062   0.119E-02    0.867E-03
RMM:   7    -0.259104903029E+03    0.80508E-06   -0.49478E-06  1886   0.634E-03
  53 F= -.27177376E+03 E0= -.27177376E+03  d E =-.325389E-03  mag=     0.0000
       N       E                     dE             d eps       ncg     rms          rms(c)
DAV:   1    -0.259104454424E+03    0.44941E-03   -0.18566E-01  2256   0.689E-01    0.693E-02
RMM:   2    -0.259104911267E+03   -0.45684E-03   -0.48281E-03  2760   0.210E-01    0.182E-02
RMM:   3    -0.259105036655E+03   -0.12539E-03   -0.12537E-03  2874   0.966E-02    0.144E-02
RMM:   4    -0.259105050351E+03   -0.13696E-04   -0.15938E-04  2978   0.378E-02    0.129E-02
RMM:   5    -0.259105049567E+03    0.78464E-06   -0.13134E-05  2370   0.109E-02    0.822E-03
RMM:   6    -0.259105049654E+03   -0.87080E-07   -0.82468E-06  1924   0.652E-03
  54 F= -.27177385E+03 E0= -.27177385E+03  d E =-.412694E-03  mag=    -0.0000
       N       E                     dE             d eps       ncg     rms          rms(c)
DAV:   1    -0.259104416440E+03    0.63313E-03   -0.25425E-01  2352   0.834E-01    0.640E-02
RMM:   2    -0.259105057676E+03   -0.64124E-03   -0.67294E-03  2774   0.253E-01    0.176E-02
RMM:   3    -0.259105229908E+03   -0.17223E-03   -0.17421E-03  2932   0.118E-01    0.193E-02
RMM:   4    -0.259105246590E+03   -0.16682E-04   -0.20614E-04  2926   0.422E-02    0.174E-02
RMM:   5    -0.259105244828E+03    0.17622E-05   -0.17407E-05  2580   0.121E-02    0.121E-02
RMM:   6    -0.259105244784E+03    0.44380E-07   -0.17638E-05  2006   0.819E-03    0.612E-03
RMM:   7    -0.259105244420E+03    0.36336E-06   -0.20732E-06  1472   0.462E-03
  55 F= -.27177408E+03 E0= -.27177408E+03  d E =-.227129E-03  mag=     0.0000
       N       E                     dE             d eps       ncg     rms          rms(c)
DAV:   1    -0.259105185356E+03    0.59427E-04   -0.18663E-02  2704   0.227E-01    0.158E-02
RMM:   2    -0.259105234192E+03   -0.48836E-04   -0.50445E-04  2726   0.706E-02    0.475E-03
RMM:   3    -0.259105246020E+03   -0.11828E-04   -0.12121E-04  2842   0.329E-02    0.562E-03
RMM:   4    -0.259105247993E+03   -0.19725E-05   -0.25506E-05  2190   0.138E-02    0.536E-03
RMM:   5    -0.259105247811E+03    0.18244E-06   -0.12250E-06  1418   0.448E-03
  56 F= -.27177409E+03 E0= -.27177409E+03  d E =-.239229E-03  mag=     0.0000
       N       E                     dE             d eps       ncg     rms          rms(c)
DAV:   1    -0.259105041939E+03    0.20605E-03   -0.13409E-01  2400   0.603E-01    0.496E-02
RMM:   2    -0.259105369673E+03   -0.32773E-03   -0.34334E-03  2762   0.183E-01    0.138E-02
RMM:   3    -0.259105458950E+03   -0.89276E-04   -0.89846E-04  2918   0.853E-02    0.130E-02
RMM:   4    -0.259105469090E+03   -0.10141E-04   -0.11743E-04  2928   0.308E-02    0.117E-02
RMM:   5    -0.259105468420E+03    0.67097E-06   -0.90536E-06  2146   0.903E-03
  57 F= -.27177431E+03 E0= -.27177431E+03  d E =-.219891E-03  mag=     0.0000
       N       E                     dE             d eps       ncg     rms          rms(c)
DAV:   1    -0.259105444631E+03    0.24459E-04   -0.30357E-02  2576   0.286E-01    0.266E-02
RMM:   2    -0.259105517830E+03   -0.73199E-04   -0.78290E-04  2760   0.881E-02    0.772E-03
RMM:   3    -0.259105538083E+03   -0.20253E-04   -0.20417E-04  2902   0.415E-02    0.540E-03
RMM:   4    -0.259105541450E+03   -0.33669E-05   -0.37216E-05  2490   0.169E-02    0.498E-03
RMM:   5    -0.259105541351E+03    0.98822E-07   -0.21576E-06  1516   0.497E-03
  58 F= -.27177438E+03 E0= -.27177438E+03  d E =-.292478E-03  mag=     0.0000
       N       E                     dE             d eps       ncg     rms          rms(c)
DAV:   1    -0.259105233312E+03    0.30814E-03   -0.12263E-01  2320   0.577E-01    0.476E-02
RMM:   2    -0.259105534978E+03   -0.30167E-03   -0.31609E-03  2760   0.176E-01    0.131E-02
RMM:   3    -0.259105616911E+03   -0.81932E-04   -0.82368E-04  2894   0.813E-02    0.124E-02
RMM:   4    -0.259105626190E+03   -0.92793E-05   -0.10865E-04  2950   0.293E-02    0.113E-02
RMM:   5    -0.259105625553E+03    0.63731E-06   -0.83603E-06  2046   0.855E-03
  59 F= -.27177446E+03 E0= -.27177446E+03  d E =-.376012E-03  mag=     0.0000
       N       E                     dE             d eps       ncg     rms          rms(c)
DAV:   1    -0.259105568639E+03    0.57551E-04   -0.56636E-02  2496   0.407E-01    0.365E-02
RMM:   2    -0.259105710892E+03   -0.14225E-03   -0.15403E-03  2594   0.131E-01    0.115E-02
RMM:   3    -0.259105751974E+03   -0.41082E-04   -0.42806E-04  2956   0.618E-02    0.850E-03
RMM:   4    -0.259105757936E+03   -0.59618E-05   -0.65837E-05  2898   0.228E-02    0.725E-03
RMM:   5    -0.259105757823E+03    0.11282E-06   -0.52190E-06  1830   0.659E-03
  60 F= -.27177460E+03 E0= -.27177460E+03  d E =-.137953E-03  mag=    -0.0000
       N       E                     dE             d eps       ncg     rms          rms(c)
DAV:   1    -0.259105755965E+03    0.19703E-05   -0.94375E-03  2688   0.165E-01    0.155E-02
RMM:   2    -0.259105779389E+03   -0.23424E-04   -0.25599E-04  2588   0.530E-02    0.485E-03
RMM:   3    -0.259105785854E+03   -0.64650E-05   -0.69365E-05  2888   0.252E-02    0.315E-03
RMM:   4    -0.259105787081E+03   -0.12267E-05   -0.13704E-05  1932   0.104E-02    0.279E-03
RMM:   5    -0.259105787069E+03    0.11440E-07   -0.96503E-07  1422   0.431E-03
  61 F= -.27177463E+03 E0= -.27177463E+03  d E =-.169496E-03  mag=     0.0000
       N       E                     dE             d eps       ncg     rms          rms(c)
DAV:   1    -0.259105674536E+03    0.11254E-03   -0.38142E-02  2336   0.334E-01    0.279E-02
RMM:   2    -0.259105771680E+03   -0.97143E-04   -0.10356E-03  2578   0.107E-01    0.857E-03
RMM:   3    -0.259105799026E+03   -0.27347E-04   -0.28579E-04  2958   0.504E-02    0.740E-03
RMM:   4    -0.259105802665E+03   -0.36385E-05   -0.42789E-05  2820   0.184E-02    0.639E-03
RMM:   5    -0.259105802527E+03    0.13773E-06   -0.33777E-06  1596   0.583E-03
  62 F= -.27177465E+03 E0= -.27177465E+03  d E =-.189528E-03  mag=     0.0000
       N       E                     dE             d eps       ncg     rms          rms(c)
DAV:   1    -0.259105789291E+03    0.13374E-04   -0.42038E-03  2528   0.112E-01    0.774E-03
RMM:   2    -0.259105800815E+03   -0.11524E-04   -0.11855E-04  2564   0.362E-02    0.251E-03
RMM:   3    -0.259105803627E+03   -0.28122E-05   -0.30304E-05  2520   0.167E-02    0.282E-03
RMM:   4    -0.259105803853E+03   -0.22622E-06   -0.48633E-06  1562   0.750E-03
  63 F= -.27177465E+03 E0= -.27177465E+03  d E =-.189348E-03  mag=     0.0000
       N       E                     dE             d eps       ncg     rms          rms(c)
DAV:   1    -0.259105799676E+03    0.39506E-05   -0.12559E-03  2496   0.613E-02    0.598E-03
RMM:   2    -0.259105802978E+03   -0.33018E-05   -0.36830E-05  2502   0.199E-02    0.172E-03
RMM:   3    -0.259105803810E+03   -0.83212E-06   -0.10311E-05  1962   0.923E-03    0.109E-03
RMM:   4    -0.259105803830E+03   -0.19385E-07   -0.75333E-07  1366   0.460E-03
  64 F= -.27177465E+03 E0= -.27177465E+03  d E =-.190159E-03  mag=    -0.0000
       N       E                     dE             d eps       ncg     rms          rms(c)
DAV:   1    -0.259105623818E+03    0.17999E-03   -0.84477E-02  2368   0.486E-01    0.399E-02
RMM:   2    -0.259105834650E+03   -0.21083E-03   -0.22128E-03  2850   0.146E-01    0.104E-02
RMM:   3    -0.259105888413E+03   -0.53763E-04   -0.54656E-04  2914   0.677E-02    0.975E-03
RMM:   4    -0.259105895376E+03   -0.69629E-05   -0.81685E-05  2842   0.256E-02    0.964E-03
RMM:   5    -0.259105894861E+03    0.51538E-06   -0.51746E-06  1790   0.683E-03
  65 F= -.27177475E+03 E0= -.27177475E+03  d E =-.925909E-04  mag=    -0.0000
       N       E                     dE             d eps       ncg     rms          rms(c)
DAV:   1    -0.259105891714E+03    0.36624E-05   -0.49666E-03  2720   0.116E-01    0.131E-02
RMM:   2    -0.259105903247E+03   -0.11533E-04   -0.13207E-04  2812   0.355E-02    0.428E-03
RMM:   3    -0.259105906361E+03   -0.31138E-05   -0.34157E-05  2492   0.165E-02    0.189E-03
RMM:   4    -0.259105906884E+03   -0.52366E-06   -0.60263E-06  1576   0.765E-03
  66 F= -.27177476E+03 E0= -.27177476E+03  d E =-.104992E-03  mag=    -0.0000
       N       E                     dE             d eps       ncg     rms          rms(c)
DAV:   1    -0.259105855416E+03    0.50944E-04   -0.20523E-02  2352   0.239E-01    0.193E-02
RMM:   2    -0.259105906873E+03   -0.51457E-04   -0.54016E-04  2816   0.719E-02    0.525E-03
RMM:   3    -0.259105919413E+03   -0.12540E-04   -0.13106E-04  2854   0.329E-02    0.494E-03
RMM:   4    -0.259105921062E+03   -0.16487E-05   -0.19896E-05  2132   0.122E-02    0.471E-03
RMM:   5    -0.259105920920E+03    0.14202E-06   -0.13284E-06  1430   0.495E-03
  67 F= -.27177477E+03 E0= -.27177477E+03  d E =-.119796E-03  mag=     0.0000
       N       E                     dE             d eps       ncg     rms          rms(c)
DAV:   1    -0.259105812020E+03    0.10904E-03   -0.76877E-02  2384   0.460E-01    0.379E-02
RMM:   2    -0.259106002917E+03   -0.19090E-03   -0.20039E-03  2866   0.139E-01    0.961E-03
RMM:   3    -0.259106054061E+03   -0.51144E-04   -0.51089E-04  2918   0.636E-02    0.904E-03
RMM:   4    -0.259106059819E+03   -0.57584E-05   -0.66531E-05  2796   0.236E-02    0.879E-03
RMM:   5    -0.259106059522E+03    0.29778E-06   -0.58701E-06  1822   0.736E-03
  68 F= -.27177489E+03 E0= -.27177489E+03  d E =-.121288E-03  mag=    -0.0000
       N       E                     dE             d eps       ncg     rms          rms(c)
DAV:   1    -0.259106062041E+03   -0.22217E-05   -0.11797E-02  2672   0.179E-01    0.174E-02
RMM:   2    -0.259106090632E+03   -0.28591E-04   -0.30862E-04  2856   0.543E-02    0.511E-03
RMM:   3    -0.259106098358E+03   -0.77260E-05   -0.77727E-05  2800   0.251E-02    0.302E-03
RMM:   4    -0.259106099705E+03   -0.13464E-05   -0.14784E-05  1830   0.107E-02    0.291E-03
RMM:   5    -0.259106099697E+03    0.70759E-08   -0.92599E-07  1392   0.440E-03
  69 F= -.27177493E+03 E0= -.27177493E+03  d E =-.154643E-03  mag=     0.0000
       N       E                     dE             d eps       ncg     rms          rms(c)
DAV:   1    -0.259106002415E+03    0.97290E-04   -0.47888E-02  2368   0.363E-01    0.299E-02
RMM:   2    -0.259106121985E+03   -0.11957E-03   -0.12522E-03  2858   0.109E-01    0.753E-03
RMM:   3    -0.259106154003E+03   -0.32018E-04   -0.31930E-04  2910   0.499E-02    0.726E-03
RMM:   4    -0.259106157476E+03   -0.34732E-05   -0.40694E-05  2652   0.178E-02    0.707E-03
RMM:   5    -0.259106157170E+03    0.30568E-06   -0.27952E-06  1556   0.584E-03
  70 F= -.27177497E+03 E0= -.27177497E+03  d E =-.198531E-03  mag=    -0.0000
       N       E                     dE             d eps       ncg     rms          rms(c)
DAV:   1    -0.259106152113E+03    0.53630E-05   -0.53938E-03  2800   0.121E-01    0.122E-02
RMM:   2    -0.259106165172E+03   -0.13059E-04   -0.14189E-04  2818   0.364E-02    0.365E-03
RMM:   3    -0.259106168640E+03   -0.34679E-05   -0.35605E-05  2480   0.167E-02    0.194E-03
RMM:   4    -0.259106169219E+03   -0.57975E-06   -0.64646E-06  1588   0.775E-03
  71 F= -.27177498E+03 E0= -.27177498E+03  d E =-.205993E-03  mag=     0.0000
       N       E                     dE             d eps       ncg     rms          rms(c)
DAV:   1    -0.259106089077E+03    0.79562E-04   -0.49544E-02  2384   0.386E-01    0.265E-02
RMM:   2    -0.259106215205E+03   -0.12613E-03   -0.13198E-03  2796   0.117E-01    0.820E-03
RMM:   3    -0.259106247951E+03   -0.32746E-04   -0.33343E-04  2920   0.542E-02    0.838E-03
RMM:   4    -0.259106251600E+03   -0.36495E-05   -0.44886E-05  2724   0.197E-02    0.766E-03
RMM:   5    -0.259106251232E+03    0.36813E-06   -0.31609E-06  1574   0.599E-03
  72 F= -.27177505E+03 E0= -.27177505E+03  d E =-.742300E-04  mag=     0.0000
       N       E                     dE             d eps       ncg     rms          rms(c)
DAV:   1    -0.259106254604E+03   -0.30034E-05   -0.22865E-03  2720   0.821E-02    0.811E-03
RMM:   2    -0.259106260192E+03   -0.55877E-05   -0.63967E-05  2706   0.255E-02    0.271E-03
RMM:   3    -0.259106261695E+03   -0.15037E-05   -0.17304E-05  2168   0.121E-02    0.133E-03
RMM:   4    -0.259106261841E+03   -0.14620E-06   -0.20458E-06  1474   0.562E-03
  73 F= -.27177506E+03 E0= -.27177506E+03  d E =-.831379E-04  mag=     0.0000
       N       E                     dE             d eps       ncg     rms          rms(c)
DAV:   1    -0.259106244780E+03    0.16915E-04   -0.94029E-03  2416   0.168E-01    0.116E-02
RMM:   2    -0.259106268887E+03   -0.24107E-04   -0.25270E-04  2752   0.515E-02    0.365E-03
RMM:   3    -0.259106275207E+03   -0.63195E-05   -0.65989E-05  2834   0.238E-02    0.374E-03
RMM:   4    -0.259106275597E+03   -0.39059E-06   -0.59431E-06  1732   0.800E-03
  74 F= -.27177507E+03 E0= -.27177507E+03  d E =-.935084E-04  mag=     0.0000
       N       E                     dE             d eps       ncg     rms          rms(c)
DAV:   1    -0.259106264338E+03    0.10868E-04   -0.18779E-03  2480   0.761E-02    0.608E-03
RMM:   2    -0.259106269484E+03   -0.51459E-05   -0.54156E-05  2682   0.235E-02    0.163E-03
RMM:   3    -0.259106270655E+03   -0.11710E-05   -0.13773E-05  1998   0.107E-02    0.134E-03
RMM:   4    -0.259106270677E+03   -0.21531E-07   -0.80581E-07  1338   0.459E-03
  75 F= -.27177507E+03 E0= -.27177507E+03  d E =-.901196E-04  mag=    -0.0000
       N       E                     dE             d eps       ncg     rms          rms(c)
DAV:   1    -0.259106271275E+03   -0.62022E-06   -0.91631E-04  2464   0.529E-02    0.375E-03
RMM:   2    -0.259106273855E+03   -0.25795E-05   -0.26929E-05  2480   0.163E-02    0.116E-03
RMM:   3    -0.259106274281E+03   -0.42631E-06   -0.62412E-06  1626   0.760E-03
  76 F= -.27177507E+03 E0= -.27177507E+03  d E =-.926555E-04  mag=    -0.0000
       N       E                     dE             d eps       ncg     rms          rms(c)
DAV:   1    -0.259106220098E+03    0.53757E-04   -0.34817E-02  2352   0.325E-01    0.212E-02
RMM:   2    -0.259106306287E+03   -0.86189E-04   -0.90605E-04  2724   0.996E-02    0.676E-03
RMM:   3    -0.259106329981E+03   -0.23695E-04   -0.24142E-04  2944   0.464E-02    0.710E-03
RMM:   4    -0.259106332128E+03   -0.21474E-05   -0.26151E-05  2566   0.154E-02    0.615E-03
RMM:   5    -0.259106331927E+03    0.20098E-06   -0.25147E-06  1534   0.564E-03
  77 F= -.27177513E+03 E0= -.27177513E+03  d E =-.621644E-04  mag=     0.0000
       N       E                     dE             d eps       ncg     rms          rms(c)
DAV:   1    -0.259105897326E+03    0.43480E-03   -0.14948E-01  2416   0.674E-01    0.466E-02
RMM:   2    -0.259106265914E+03   -0.36859E-03   -0.38967E-03  2732   0.205E-01    0.145E-02
RMM:   3    -0.259106367436E+03   -0.10152E-03   -0.10239E-03  2884   0.944E-02    0.137E-02
RMM:   4    -0.259106378275E+03   -0.10839E-04   -0.12655E-04  2938   0.330E-02    0.120E-02
RMM:   5    -0.259106377734E+03    0.54080E-06   -0.11273E-05  2302   0.102E-02    0.813E-03
RMM:   6    -0.259106377935E+03   -0.20069E-06   -0.90098E-06  1932   0.656E-03
  78 F= -.27177519E+03 E0= -.27177519E+03  d E =-.117462E-03  mag=     0.0000
       N       E                     dE             d eps       ncg     rms          rms(c)
DAV:   1    -0.259106258849E+03    0.11888E-03   -0.32894E-02  2672   0.317E-01    0.227E-02
RMM:   2    -0.259106340821E+03   -0.81972E-04   -0.87275E-04  2724   0.966E-02    0.699E-03
RMM:   3    -0.259106362378E+03   -0.21557E-04   -0.22016E-04  2822   0.444E-02    0.596E-03
RMM:   4    -0.259106365671E+03   -0.32927E-05   -0.37601E-05  2602   0.172E-02    0.549E-03
RMM:   5    -0.259106365522E+03    0.14847E-06   -0.22010E-06  1498   0.553E-03
  79 F= -.27177518E+03 E0= -.27177518E+03  d E =-.109388E-03  mag=    -0.0000
       N       E                     dE             d eps       ncg     rms          rms(c)
DAV:   1    -0.259106322284E+03    0.43387E-04   -0.16645E-02  2496   0.226E-01    0.137E-02
RMM:   2    -0.259106364625E+03   -0.42342E-04   -0.43737E-04  2710   0.689E-02    0.455E-03
RMM:   3    -0.259106375528E+03   -0.10903E-04   -0.11173E-04  2878   0.320E-02    0.516E-03
RMM:   4    -0.259106376582E+03   -0.10540E-05   -0.13697E-05  2106   0.112E-02    0.458E-03
RMM:   5    -0.259106376418E+03    0.16419E-06   -0.10832E-06  1406   0.472E-03
  80 F= -.27177519E+03 E0= -.27177519E+03  d E =-.117194E-03  mag=    -0.0000
       N       E                     dE             d eps       ncg     rms          rms(c)
DAV:   1    -0.259106220721E+03    0.15586E-03   -0.66190E-02  2304   0.443E-01    0.289E-02
RMM:   2    -0.259106383523E+03   -0.16280E-03   -0.16800E-03  2826   0.131E-01    0.784E-03
RMM:   3    -0.259106425720E+03   -0.42198E-04   -0.42032E-04  2882   0.596E-02    0.899E-03
RMM:   4    -0.259106430312E+03   -0.45918E-05   -0.53348E-05  2724   0.210E-02    0.879E-03
RMM:   5    -0.259106429935E+03    0.37693E-06   -0.36383E-06  1674   0.658E-03
  81 F= -.27177523E+03 E0= -.27177523E+03  d E =-.421595E-04  mag=     0.0000
       N       E                     dE             d eps       ncg     rms          rms(c)
DAV:   1    -0.259106432261E+03   -0.19491E-05   -0.19797E-03  2704   0.752E-02    0.982E-03
RMM:   2    -0.259106436291E+03   -0.40302E-05   -0.52674E-05  2630   0.226E-02    0.399E-03
RMM:   3    -0.259106437581E+03   -0.12890E-05   -0.15879E-05  2134   0.112E-02    0.110E-03
RMM:   4    -0.259106437743E+03   -0.16296E-06   -0.20296E-06  1444   0.567E-03
  82 F= -.27177524E+03 E0= -.27177524E+03  d E =-.479667E-04  mag=     0.0000
       N       E                     dE             d eps       ncg     rms          rms(c)
DAV:   1    -0.259106425636E+03    0.11945E-04   -0.82939E-03  2368   0.157E-01    0.104E-02
RMM:   2    -0.259106446318E+03   -0.20682E-04   -0.21344E-04  2750   0.470E-02    0.291E-03
RMM:   3    -0.259106451514E+03   -0.51958E-05   -0.53969E-05  2666   0.216E-02    0.314E-03
RMM:   4    -0.259106451996E+03   -0.48206E-06   -0.62082E-06  1674   0.812E-03
  83 F= -.27177525E+03 E0= -.27177525E+03  d E =-.582174E-04  mag=    -0.0000
       N       E                     dE             d eps       ncg     rms          rms(c)
DAV:   1    -0.259106472882E+03   -0.21368E-04   -0.68300E-03  2208   0.162E-01    0.140E-02
RMM:   2    -0.259106494102E+03   -0.21219E-04   -0.23690E-04  2296   0.576E-02    0.624E-03
RMM:   3    -0.259106500694E+03   -0.65926E-05   -0.73735E-05  2854   0.278E-02    0.381E-03
RMM:   4    -0.259106501723E+03   -0.10286E-05   -0.14243E-05  2204   0.112E-02    0.270E-03
RMM:   5    -0.259106501616E+03    0.10656E-06   -0.10781E-06  1406   0.430E-03
  84 F= -.27177529E+03 E0= -.27177529E+03  d E =-.375286E-04  mag=     0.0000
       N       E                     dE             d eps       ncg     rms          rms(c)
DAV:   1    -0.259106504776E+03   -0.30530E-05   -0.17510E-04  2768   0.258E-02    0.243E-03
RMM:   2    -0.259106505400E+03   -0.62366E-06   -0.64694E-06  1968   0.101E-02
  85 F= -.27177529E+03 E0= -.27177529E+03  d E =-.393728E-04  mag=     0.0000
       N       E                     dE             d eps       ncg     rms          rms(c)
DAV:   1    -0.259106508629E+03   -0.38534E-05   -0.46977E-03  2144   0.134E-01    0.130E-02
RMM:   2    -0.259106522585E+03   -0.13955E-04   -0.15671E-04  2374   0.457E-02    0.527E-03
RMM:   3    -0.259106526728E+03   -0.41435E-05   -0.47676E-05  2832   0.218E-02    0.317E-03
RMM:   4    -0.259106527137E+03   -0.40839E-06   -0.75828E-06  1854   0.867E-03
  86 F= -.27177531E+03 E0= -.27177531E+03  d E =-.198244E-04  mag=     0.0000
       N       E                     dE             d eps       ncg     rms          rms(c)
DAV:   1    -0.259106527663E+03   -0.93440E-06   -0.18369E-05  2432   0.912E-03    0.136E-03
RMM:   2    -0.259106527716E+03   -0.53173E-07   -0.84353E-07  1340   0.408E-03
  87 F= -.27177531E+03 E0= -.27177531E+03  d E =-.203008E-04  mag=    -0.0000
       N       E                     dE             d eps       ncg     rms          rms(c)
DAV:   1    -0.259106528435E+03   -0.77273E-06   -0.65919E-05  2576   0.161E-02    0.157E-03
RMM:   2    -0.259106528667E+03   -0.23166E-06   -0.25125E-06  1384   0.652E-03
  88 F= -.27177531E+03 E0= -.27177531E+03  d E =-.210257E-04  mag=    -0.0000
       N       E                     dE             d eps       ncg     rms          rms(c)
DAV:   1    -0.259106526063E+03    0.23723E-05   -0.32322E-03  2256   0.104E-01    0.849E-03
RMM:   2    -0.259106534853E+03   -0.87896E-05   -0.94535E-05  2592   0.341E-02    0.294E-03
RMM:   3    -0.259106537438E+03   -0.25853E-05   -0.28296E-05  2648   0.160E-02    0.247E-03
RMM:   4    -0.259106537424E+03    0.14044E-07   -0.21574E-06  1454   0.604E-03
  89 F= -.27177532E+03 E0= -.27177532E+03  d E =-.108864E-04  mag=    -0.0000
       N       E                     dE             d eps       ncg     rms          rms(c)
DAV:   1    -0.259106536049E+03    0.13889E-05   -0.12566E-03  2528   0.646E-02    0.552E-03
RMM:   2    -0.259106539461E+03   -0.34115E-05   -0.37188E-05  2540   0.216E-02    0.195E-03
RMM:   3    -0.259106540436E+03   -0.97563E-06   -0.11566E-05  2138   0.102E-02    0.149E-03
RMM:   4    -0.259106540412E+03    0.24027E-07   -0.87877E-07  1392   0.515E-03
  90 F= -.27177532E+03 E0= -.27177532E+03  d E =-.151991E-04  mag=    -0.0000
       N       E                     dE             d eps       ncg     rms          rms(c)
DAV:   1    -0.259106522957E+03    0.17479E-04   -0.50007E-03  2272   0.130E-01    0.109E-02
RMM:   2    -0.259106536374E+03   -0.13417E-04   -0.14490E-04  2606   0.417E-02    0.367E-03
RMM:   3    -0.259106540024E+03   -0.36495E-05   -0.39720E-05  2804   0.196E-02    0.271E-03
RMM:   4    -0.259106540396E+03   -0.37278E-06   -0.59673E-06  1706   0.829E-03
  91 F= -.27177533E+03 E0= -.27177533E+03  d E =-.178206E-04  mag=    -0.0000
       N       E                     dE             d eps       ncg     rms          rms(c)
DAV:   1    -0.259106531615E+03    0.84084E-05   -0.26659E-03  2224   0.956E-02    0.831E-03
RMM:   2    -0.259106539149E+03   -0.75336E-05   -0.80042E-05  2670   0.303E-02    0.262E-03
RMM:   3    -0.259106541199E+03   -0.20501E-05   -0.21787E-05  2556   0.140E-02    0.195E-03
RMM:   4    -0.259106541240E+03   -0.40740E-07   -0.18634E-06  1442   0.535E-03
  92 F= -.27177532E+03 E0= -.27177532E+03  d E =-.167183E-04  mag=     0.0000
       N       E                     dE             d eps       ncg     rms          rms(c)
DAV:   1    -0.259106538643E+03    0.25557E-05   -0.76763E-04  2224   0.515E-02    0.441E-03
RMM:   2    -0.259106540885E+03   -0.22415E-05   -0.24368E-05  2502   0.165E-02    0.137E-03
RMM:   3    -0.259106541331E+03   -0.44608E-06   -0.61062E-06  1750   0.764E-03
  93 F= -.27177533E+03 E0= -.27177533E+03  d E =-.178548E-04  mag=    -0.0000
       N       E                     dE             d eps       ncg     rms          rms(c)
DAV:   1    -0.259106540737E+03    0.14808E-06   -0.18335E-04  2352   0.257E-02    0.264E-03
RMM:   2    -0.259106541311E+03   -0.57445E-06   -0.63110E-06  1744   0.886E-03
  94 F= -.27177533E+03 E0= -.27177533E+03  d E =-.173114E-04  mag=    -0.0000
       N       E                     dE             d eps       ncg     rms          rms(c)
DAV:   1    -0.259106541198E+03   -0.46163E-06   -0.79702E-05  2400   0.169E-02    0.161E-03
RMM:   2    -0.259106541363E+03   -0.16455E-06   -0.20475E-06  1304   0.537E-03
  95 F= -.27177533E+03 E0= -.27177533E+03  d E =-.177160E-04  mag=     0.0000
       N       E                     dE             d eps       ncg     rms          rms(c)
DAV:   1    -0.259106541401E+03   -0.20303E-06   -0.18963E-05  2112   0.871E-03    0.927E-04
RMM:   2    -0.259106541452E+03   -0.50777E-07   -0.57407E-07  1090   0.284E-03
  96 F= -.27177533E+03 E0= -.27177533E+03  d E =-.176197E-04  mag=    -0.0000
       N       E                     dE             d eps       ncg     rms          rms(c)
DAV:   1    -0.259106541426E+03   -0.24740E-07   -0.67375E-06  1424   0.498E-03    0.520E-04
RMM:   2    -0.259106541447E+03   -0.21153E-07   -0.29255E-07  1066   0.253E-03
  97 F= -.27177533E+03 E0= -.27177533E+03  d E =-.177312E-04  mag=    -0.0000
       N       E                     dE             d eps       ncg     rms          rms(c)
DAV:   1    -0.259106542545E+03   -0.11191E-05   -0.13755E-03  2240   0.658E-02    0.488E-03
RMM:   2    -0.259106546365E+03   -0.38193E-05   -0.39244E-05  2574   0.204E-02    0.153E-03
RMM:   3    -0.259106547098E+03   -0.73298E-06   -0.92001E-06  1834   0.955E-03
  98 F= -.27177533E+03 E0= -.27177533E+03  d E =-.582616E-05  mag=     0.0000
       N       E                     dE             d eps       ncg     rms          rms(c)
DAV:   1    -0.259106547422E+03   -0.10574E-05   -0.76382E-06  1936   0.727E-03    0.112E-03
RMM:   2    -0.259106547470E+03   -0.47559E-07   -0.62475E-07  1128   0.395E-03
  99 F= -.27177533E+03 E0= -.27177533E+03  d E =-.620794E-05  mag=     0.0000
       N       E                     dE             d eps       ncg     rms          rms(c)
DAV:   1    -0.259106547990E+03   -0.56766E-06   -0.16841E-05  1856   0.775E-03    0.491E-04
RMM:   2    -0.259106548053E+03   -0.63161E-07   -0.60912E-07  1102   0.334E-03
 100 F= -.27177533E+03 E0= -.27177533E+03  d E =-.681091E-05  mag=     0.0000
       N       E                     dE             d eps       ncg     rms          rms(c)
DAV:   1    -0.259106548916E+03   -0.92625E-06   -0.66404E-05  2352   0.149E-02    0.101E-03
RMM:   2    -0.259106549116E+03   -0.20020E-06   -0.19788E-06  1302   0.559E-03
 101 F= -.27177533E+03 E0= -.27177533E+03  d E =-.791365E-05  mag=     0.0000
       N       E                     dE             d eps       ncg     rms          rms(c)
DAV:   1    -0.259106550308E+03   -0.13919E-05   -0.26560E-04  2336   0.292E-02    0.201E-03
RMM:   2    -0.259106551144E+03   -0.83580E-06   -0.84566E-06  1898   0.107E-02
 102 F= -.27177534E+03 E0= -.27177534E+03  d E =-.100202E-04  mag=    -0.0000
       N       E                     dE             d eps       ncg     rms          rms(c)
DAV:   1    -0.259106551492E+03   -0.11843E-05   -0.10616E-03  2416   0.579E-02    0.396E-03
RMM:   2    -0.259106554478E+03   -0.29856E-05   -0.30546E-05  2460   0.190E-02    0.148E-03
RMM:   3    -0.259106555162E+03   -0.68413E-06   -0.83593E-06  1922   0.911E-03
 103 F= -.27177534E+03 E0= -.27177534E+03  d E =-.141969E-04  mag=     0.0000
       N       E                     dE             d eps       ncg     rms          rms(c)
DAV:   1    -0.259106559340E+03   -0.48621E-05   -0.13535E-04  2176   0.243E-02    0.270E-03
RMM:   2    -0.259106559996E+03   -0.65638E-06   -0.66853E-06  2014   0.103E-02
 104 F= -.27177534E+03 E0= -.27177534E+03  d E =-.359699E-05  mag=    -0.0000
       N       E                     dE             d eps       ncg     rms          rms(c)
DAV:   1    -0.259106562423E+03   -0.30833E-05   -0.67124E-05  2544   0.168E-02    0.177E-03
RMM:   2    -0.259106562717E+03   -0.29346E-06   -0.31332E-06  1626   0.753E-03
 105 F= -.27177535E+03 E0= -.27177535E+03  d E =-.550251E-05  mag=    -0.0000
       N       E                     dE             d eps       ncg     rms          rms(c)
DAV:   1    -0.259106564821E+03   -0.23976E-05   -0.23373E-04  2176   0.310E-02    0.302E-03
RMM:   2    -0.259106565847E+03   -0.10265E-05   -0.10615E-05  2070   0.135E-02    0.156E-03
RMM:   3    -0.259106566338E+03   -0.49024E-06   -0.47157E-06  1798   0.669E-03
 106 F= -.27177535E+03 E0= -.27177535E+03  d E =-.749088E-05  mag=     0.0000
       N       E                     dE             d eps       ncg     rms          rms(c)
DAV:   1    -0.259106567604E+03   -0.17564E-05   -0.39198E-04  2416   0.389E-02    0.294E-03
RMM:   2    -0.259106568856E+03   -0.12522E-05   -0.13566E-05  2250   0.149E-02    0.144E-03
RMM:   3    -0.259106569364E+03   -0.50801E-06   -0.56681E-06  1842   0.716E-03
 107 F= -.27177535E+03 E0= -.27177535E+03  d E =-.359075E-05  mag=    -0.0000
       N       E                     dE             d eps       ncg     rms          rms(c)
DAV:   1    -0.259106569871E+03   -0.10155E-05   -0.16651E-04  2544   0.256E-02    0.194E-03
RMM:   2    -0.259106570504E+03   -0.63247E-06   -0.68826E-06  1974   0.106E-02
 108 F= -.27177535E+03 E0= -.27177535E+03  d E =-.509215E-05  mag=    -0.0000
       N       E                     dE             d eps       ncg     rms          rms(c)
DAV:   1    -0.259106570624E+03   -0.75243E-06   -0.14586E-04  2144   0.234E-02    0.179E-03
RMM:   2    -0.259106570994E+03   -0.37058E-06   -0.52625E-06  1772   0.908E-03
 109 F= -.27177535E+03 E0= -.27177535E+03  d E =-.190569E-05  mag=    -0.0000
       N       E                     dE             d eps       ncg     rms          rms(c)
DAV:   1    -0.259106570902E+03   -0.27814E-06   -0.58007E-05  2480   0.147E-02    0.121E-03
RMM:   2    -0.259106571038E+03   -0.13608E-06   -0.23689E-06  1410   0.645E-03
 110 F= -.27177536E+03 E0= -.27177536E+03  d E =-.282517E-05  mag=    -0.0000
       N       E                     dE             d eps       ncg     rms          rms(c)
DAV:   1    -0.259106569487E+03    0.14147E-05   -0.20922E-04  2160   0.273E-02    0.219E-03
RMM:   2    -0.259106570099E+03   -0.61190E-06   -0.81179E-06  2040   0.114E-02
 111 F= -.27177536E+03 E0= -.27177536E+03  d E =-.360869E-05  mag=     0.0000
       N       E                     dE             d eps       ncg     rms          rms(c)
DAV:   1    -0.259106570579E+03   -0.10917E-05   -0.35765E-05  2192   0.125E-02    0.162E-03
RMM:   2    -0.259106570712E+03   -0.13288E-06   -0.10153E-06  1104   0.398E-03
 112 F= -.27177536E+03 E0= -.27177536E+03  d E =-.349346E-05  mag=     0.0000
       N       E                     dE             d eps       ncg     rms          rms(c)
DAV:   1    -0.259106570463E+03    0.11600E-06   -0.16473E-05  2128   0.807E-03    0.787E-04
RMM:   2    -0.259106570488E+03   -0.25280E-07   -0.70406E-07  1065   0.312E-03
 113 F= -.27177536E+03 E0= -.27177536E+03  d E =-.379038E-05  mag=    -0.0000
       N       E                     dE             d eps       ncg     rms          rms(c)
DAV:   1    -0.259106571059E+03   -0.59564E-06   -0.80037E-05  2336   0.162E-02    0.115E-03
RMM:   2    -0.259106571259E+03   -0.20007E-06   -0.23216E-06  1326   0.595E-03
 114 F= -.27177536E+03 E0= -.27177536E+03  d E =-.110571E-05  mag=    -0.0000
       N       E                     dE             d eps       ncg     rms          rms(c)
DAV:   1    -0.259106571263E+03   -0.20449E-06   -0.70415E-04  2320   0.468E-02    0.312E-03
RMM:   2    -0.259106573261E+03   -0.19983E-05   -0.21169E-05  2354   0.165E-02    0.942E-04
RMM:   3    -0.259106573696E+03   -0.43500E-06   -0.58807E-06  1764   0.727E-03
 115 F= -.27177536E+03 E0= -.27177536E+03  d E =-.452966E-05  mag=     0.0000
       N       E                     dE             d eps       ncg     rms          rms(c)
DAV:   1    -0.259106568343E+03    0.49185E-05   -0.28059E-03  2304   0.930E-02    0.613E-03
RMM:   2    -0.259106575604E+03   -0.72608E-05   -0.76298E-05  2596   0.299E-02    0.191E-03
RMM:   3    -0.259106577555E+03   -0.19515E-05   -0.21940E-05  2392   0.141E-02    0.219E-03
RMM:   4    -0.259106577625E+03   -0.69347E-07   -0.21184E-06  1468   0.549E-03
 116 F= -.27177537E+03 E0= -.27177537E+03  d E =-.104287E-04  mag=     0.0000
       N       E                     dE             d eps       ncg     rms          rms(c)
DAV:   1    -0.259106545485E+03    0.32070E-04   -0.11089E-02  2288   0.185E-01    0.128E-02
RMM:   2    -0.259106573502E+03   -0.28017E-04   -0.29391E-04  2700   0.574E-02    0.369E-03
RMM:   3    -0.259106580943E+03   -0.74417E-05   -0.76804E-05  2868   0.269E-02    0.386E-03
RMM:   4    -0.259106581912E+03   -0.96900E-06   -0.11832E-05  1998   0.107E-02    0.359E-03
RMM:   5    -0.259106581874E+03    0.38359E-07   -0.11006E-06  1412   0.493E-03
 117 F= -.27177537E+03 E0= -.27177537E+03  d E =-.185915E-04  mag=     0.0000
       N       E                     dE             d eps       ncg     rms          rms(c)
DAV:   1    -0.259106584370E+03   -0.24577E-05   -0.22526E-04  2656   0.265E-02    0.316E-03
RMM:   2    -0.259106584931E+03   -0.56052E-06   -0.67672E-06  1734   0.904E-03
 118 F= -.27177538E+03 E0= -.27177538E+03  d E =-.268533E-05  mag=    -0.0000
       N       E                     dE             d eps       ncg     rms          rms(c)
DAV:   1    -0.259106587727E+03   -0.33570E-05   -0.51331E-04  2352   0.403E-02    0.272E-03
RMM:   2    -0.259106589284E+03   -0.15573E-05   -0.15700E-05  2294   0.141E-02    0.868E-04
RMM:   3    -0.259106589613E+03   -0.32881E-06   -0.42121E-06  1620   0.657E-03
 119 F= -.27177538E+03 E0= -.27177538E+03  d E =-.682881E-05  mag=    -0.0000
       N       E                     dE             d eps       ncg     rms          rms(c)
DAV:   1    -0.259106591308E+03   -0.20238E-05   -0.19817E-03  2288   0.784E-02    0.509E-03
RMM:   2    -0.259106596707E+03   -0.53987E-05   -0.55151E-05  2546   0.253E-02    0.163E-03
RMM:   3    -0.259106598070E+03   -0.13631E-05   -0.15809E-05  2190   0.120E-02    0.190E-03
RMM:   4    -0.259106598081E+03   -0.10759E-07   -0.10366E-06  1392   0.491E-03
 120 F= -.27177539E+03 E0= -.27177539E+03  d E =-.141826E-04  mag=     0.0000
       N       E                     dE             d eps       ncg     rms          rms(c)
DAV:   1    -0.259106586652E+03    0.11418E-04   -0.78166E-03  2304   0.156E-01    0.111E-02
RMM:   2    -0.259106606907E+03   -0.20256E-04   -0.21094E-04  2720   0.485E-02    0.313E-03
RMM:   3    -0.259106612248E+03   -0.53408E-05   -0.55480E-05  2816   0.227E-02    0.310E-03
RMM:   4    -0.259106612836E+03   -0.58781E-06   -0.79016E-06  1786   0.903E-03
 121 F= -.27177540E+03 E0= -.27177540E+03  d E =-.267225E-04  mag=    -0.0000
       N       E                     dE             d eps       ncg     rms          rms(c)
DAV:   1    -0.259106614152E+03   -0.19044E-05   -0.21547E-04  2576   0.259E-02    0.204E-03
RMM:   2    -0.259106614770E+03   -0.61748E-06   -0.63819E-06  1726   0.980E-03
 122 F= -.27177540E+03 E0= -.27177540E+03  d E =-.282995E-04  mag=     0.0000
       N       E                     dE             d eps       ncg     rms          rms(c)
DAV:   1    -0.259106615915E+03   -0.17620E-05   -0.83277E-04  2352   0.510E-02    0.316E-03
RMM:   2    -0.259106618346E+03   -0.24315E-05   -0.24596E-05  2428   0.170E-02    0.121E-03
RMM:   3    -0.259106618831E+03   -0.48525E-06   -0.63239E-06  1768   0.803E-03
 123 F= -.27177541E+03 E0= -.27177541E+03  d E =-.316459E-04  mag=     0.0000
       N       E                     dE             d eps       ncg     rms          rms(c)
DAV:   1    -0.259106620190E+03   -0.18439E-05   -0.94367E-05  2576   0.196E-02    0.152E-03
RMM:   2    -0.259106620580E+03   -0.38959E-06   -0.40942E-06  1696   0.827E-03
 124 F= -.27177541E+03 E0= -.27177541E+03  d E =-.188310E-05  mag=     0.0000
       N       E                     dE             d eps       ncg     rms          rms(c)
DAV:   1    -0.259106621088E+03   -0.89848E-06   -0.23838E-04  2240   0.309E-02    0.217E-03
RMM:   2    -0.259106621918E+03   -0.82933E-06   -0.91942E-06  2104   0.121E-02
 125 F= -.27177541E+03 E0= -.27177541E+03  d E =-.342811E-05  mag=     0.0000
       N       E                     dE             d eps       ncg     rms          rms(c)
DAV:   1    -0.259106621878E+03   -0.78976E-06   -0.18965E-05  2400   0.104E-02    0.141E-03
RMM:   2    -0.259106621896E+03   -0.17644E-07   -0.54496E-07  1106   0.292E-03
 126 F= -.27177541E+03 E0= -.27177541E+03  d E =-.334464E-05  mag=     0.0000
       N       E                     dE             d eps       ncg     rms          rms(c)
DAV:   1    -0.259106622079E+03   -0.20065E-06   -0.10521E-05  2128   0.677E-03    0.520E-04
RMM:   2    -0.259106622129E+03   -0.50020E-07   -0.47781E-07  1066   0.268E-03
 127 F= -.27177541E+03 E0= -.27177541E+03  d E =-.362777E-05  mag=    -0.0000
       N       E                     dE             d eps       ncg     rms          rms(c)
DAV:   1    -0.259106622151E+03   -0.72148E-07   -0.31718E-07  1200   0.236E-03    0.171E-04
RMM:   2    -0.259106622165E+03   -0.13591E-07   -0.13176E-07  1042   0.173E-03
 128 F= -.27177541E+03 E0= -.27177541E+03  d E =-.366891E-05  mag=    -0.0000
       N       E                     dE             d eps       ncg     rms          rms(c)
DAV:   1    -0.259106622178E+03   -0.26730E-07   -0.14451E-07  1200   0.137E-03    0.111E-04
RMM:   2    -0.259106622183E+03   -0.51296E-08   -0.50643E-08   982   0.123E-03
 129 F= -.27177541E+03 E0= -.27177541E+03  d E =-.369018E-05  mag=    -0.0000
       N       E                     dE             d eps       ncg     rms          rms(c)
DAV:   1    -0.259106622190E+03   -0.12627E-07   -0.49494E-08  1200   0.766E-04    0.506E-05
RMM:   2    -0.259106622192E+03   -0.14152E-08   -0.16742E-08   924   0.769E-04
 130 F= -.27177541E+03 E0= -.27177541E+03  d E =-.370083E-05  mag=    -0.0000
       N       E                     dE             d eps       ncg     rms          rms(c)
DAV:   1    -0.259106622195E+03   -0.49677E-08   -0.15321E-08  1200   0.428E-04    0.328E-05
RMM:   2    -0.259106622195E+03   -0.61846E-10   -0.31379E-09   607   0.463E-04
 131 F= -.27177541E+03 E0= -.27177541E+03  d E =-.370524E-05  mag=     0.0000
       N       E                     dE             d eps       ncg     rms          rms(c)
DAV:   1    -0.259106622197E+03   -0.17535E-08   -0.52471E-09  1200   0.341E-04    0.873E-06
RMM:   2    -0.259106622197E+03    0.13279E-09    0.00000E+00   328   0.238E-04
 132 F= -.27177541E+03 E0= -.27177541E+03  d E =-.370711E-05  mag=    -0.0000
       N       E                     dE             d eps       ncg     rms          rms(c)
DAV:   1    -0.259106622198E+03   -0.85129E-09   -0.26044E-09  1152   0.241E-04    0.819E-06
RMM:   2    -0.259106622198E+03    0.34379E-09    0.00000E+00   282   0.176E-04
 133 F= -.27177541E+03 E0= -.27177541E+03  d E =-.370786E-05  mag=    -0.0000
       N       E                     dE             d eps       ncg     rms          rms(c)
DAV:   1    -0.259106622198E+03   -0.41473E-09   -0.12999E-09  1152   0.177E-04    0.676E-06
RMM:   2    -0.259106622198E+03    0.50568E-09    0.00000E+00   253   0.121E-04
 134 F= -.27177541E+03 E0= -.27177541E+03  d E =-.370815E-05  mag=     0.0000
       N       E                     dE             d eps       ncg     rms          rms(c)
DAV:   1    -0.259106622198E+03    0.19281E-09   -0.68059E-10  1152   0.121E-04    0.384E-06
RMM:   2    -0.259106622198E+03    0.20555E-09    0.00000E+00   226   0.910E-05
 135 F= -.27177541E+03 E0= -.27177541E+03  d E =-.370827E-05  mag=     0.0000
       N       E                     dE             d eps       ncg     rms          rms(c)
DAV:   1    -0.259106622198E+03    0.26557E-09   -0.36801E-10  1152   0.911E-05    0.354E-06
RMM:   2    -0.259106622198E+03   -0.14188E-09    0.00000E+00   204   0.639E-05
 136 F= -.27177541E+03 E0= -.27177541E+03  d E =-.370836E-05  mag=     0.0000
       N       E                     dE             d eps       ncg     rms          rms(c)
DAV:   1    -0.259106622198E+03   -0.74579E-10   -0.20018E-10  1136   0.639E-05    0.267E-06
RMM:   2    -0.259106622198E+03   -0.11642E-09    0.00000E+00   168   0.493E-05
 137 F= -.27177541E+03 E0= -.27177541E+03  d E =-.370841E-05  mag=    -0.0000
       N       E                     dE             d eps       ncg     rms          rms(c)
DAV:   1    -0.259106622198E+03   -0.37835E-09   -0.13307E-10  1152   0.493E-05    0.220E-06
RMM:   2    -0.259106622198E+03    0.21646E-09    0.00000E+00   127   0.354E-05
 138 F= -.27177541E+03 E0= -.27177541E+03  d E =-.370845E-05  mag=     0.0000
       N       E                     dE             d eps       ncg     rms          rms(c)
DAV:   1    -0.259106622198E+03    0.90949E-10   -0.69293E-11  1120   0.354E-05    0.161E-06
RMM:   2    -0.259106622198E+03    0.10004E-09    0.00000E+00   116   0.279E-05
 139 F= -.27177541E+03 E0= -.27177541E+03  d E =-.370848E-05  mag=     0.0000
       N       E                     dE             d eps       ncg     rms          rms(c)
DAV:   1    -0.259106622198E+03    0.72760E-10   -0.41786E-11  1056   0.279E-05    0.127E-06
RMM:   2    -0.259106622198E+03   -0.36380E-10    0.00000E+00   100   0.206E-05
 140 F= -.27177541E+03 E0= -.27177541E+03  d E =-.370854E-05  mag=     0.0000
       N       E                     dE             d eps       ncg     rms          rms(c)
DAV:   1    -0.259106622198E+03   -0.15643E-09   -0.37308E-11  1056   0.206E-05    0.952E-07
RMM:   2    -0.259106622198E+03    0.15461E-09    0.00000E+00    90   0.164E-05
 141 F= -.27177541E+03 E0= -.27177541E+03  d E =-.370851E-05  mag=     0.0000
       N       E                     dE             d eps       ncg     rms          rms(c)
DAV:   1    -0.259106616619E+03    0.55789E-05   -0.60218E-04  2208   0.488E-02    0.356E-03
RMM:   2    -0.259106618302E+03   -0.16831E-05   -0.20236E-05  2216   0.166E-02    0.160E-03
RMM:   3    -0.259106618855E+03   -0.55214E-06   -0.68454E-06  1996   0.826E-03
 142 F= -.27177541E+03 E0= -.27177541E+03  d E =-.233231E-07  mag=     0.0000
