 vasp.6.4.1 05Apr23 (build Jun 07 2023 15:38:11) complex                        
  
 executed on             LinuxIFC date 2023.10.01  03:44:50
 running  128 mpi-ranks, with    1 threads/rank, on    1 nodes
 distrk:  each k-point on  128 cores,    1 groups
 distr:  one band on NCORE=  32 cores,    4 groups


--------------------------------------------------------------------------------------------------------


 INCAR:
   GGA = PE
   PREC = Accu
   EDIFF = 1.e-5
   EDIFFG = -1.e-2
   ENCUT = 520.
   NELM = 100
   NELMDL = -10
   LASPH = .TRUE.
   LREAL = Auto
   LMAXMIX = 4
   ISPIN = 2
   LDIAG = .TRUE.
   LPLANE = .TRUE.
   IVDW = 12
   SIGMA = 0.03
   ISMEAR = 0
   NSW = 1000    number of steps for IOM
   IBRION = 1    ionic relax: 0-MD 1-quasi-New 2-CG
   ISIF = 2    ionic relaxation + stress tensor calcn.
   LCHARG = .FALSE.
   LWAVE = .FALSE.
   ALGO = V
   KPAR = 1
   NPAR = 4

 POTCAR:    PAW_PBE Li_sv_GW 25Mar2010            
 POTCAR:    PAW_PBE P_GW 19Mar2012                
 POTCAR:    PAW_PBE S_GW 19Mar2012                
 POTCAR:    PAW_PBE Cl_GW 19Mar2012               
 -----------------------------------------------------------------------------
|                                                                             |
|           W    W    AA    RRRRR   N    N  II  N    N   GGGG   !!!           |
|           W    W   A  A   R    R  NN   N  II  NN   N  G    G  !!!           |
|           W    W  A    A  R    R  N N  N  II  N N  N  G       !!!           |
|           W WW W  AAAAAA  RRRRR   N  N N  II  N  N N  G  GGG   !            |
|           WW  WW  A    A  R   R   N   NN  II  N   NN  G    G                |
|           W    W  A    A  R    R  N    N  II  N    N   GGGG   !!!           |
|                                                                             |
|     You use a magnetic or noncollinear calculation, but did not specify     |
|     the initial magnetic moment with the MAGMOM tag. Note that a            |
|     default of 1 will be used for all atoms. This ferromagnetic setup       |
|     may break the symmetry of the crystal, in particular it may rule        |
|     out finding an antiferromagnetic solution. Thence, we recommend         |
|     setting the initial magnetic moment manually or verifying carefully     |
|     that this magnetic setup is desired.                                    |
|                                                                             |
 -----------------------------------------------------------------------------

 POTCAR:    PAW_PBE Li_sv_GW 25Mar2010            
   SHA256 =  24a6ace15a582615486b36ce4dc781b048409f4015b7684ed1273ae395fa2fdc Li_sv_GW/POTCAR       
   COPYR  = (c) Copyright 25Mar2010 Georg Kresse                                                    
   COPYR  = This file is part of the software VASP. Any use, copying, and all other rights are regul
   COPYR  = If you do not have a valid VASP license, you may not use, copy or distribute this file. 
   VRHFIN =Li: 1s2s                                                                                 
   LEXCH  = PE                                                                                      
   EATOM  =   200.9989 eV,   14.7730 Ry                                                             
                                                                                                    
   TITEL  = PAW_PBE Li_sv_GW 25Mar2010                                                              
   LULTRA =        F    use ultrasoft PP ?                                                          
   IUNSCR =        0    unscreen: 0-lin 1-nonlin 2-no                                               
   RPACOR =    0.000    partial core radius                                                         
   POMASS =    7.010; ZVAL   =    3.000    mass and valenz                                          
   RCORE  =    1.500    outmost cutoff radius                                                       
   RWIGS  =    1.600; RWIGS  =    0.847    wigner-seitz radius (au A)                               
   ENMAX  =  433.699; ENMIN  =  325.274 eV                                                          
   RCLOC  =    1.003    cutoff for local pot                                                        
   LCOR   =        T    correct aug charges                                                         
   LPAW   =        T    paw PP                                                                      
   EAUG   = 1041.699                                                                                
   RMAX   =    1.536    core radius for proj-oper                                                   
   RAUG   =    1.300    factor for augmentation sphere                                              
   RDEP   =    1.520    radius for radial grids                                                     
   RDEPT  =    1.300    core radius for aug-charge                                                  
                                                                                                    
   Atomic configuration                                                                             
    4 entries                                                                                       
     n  l   j            E        occ.                                                              
     1  0  0.50       -53.3604   2.0000                                                             
     1  0  0.50       -52.0001   0.0000                                                             
     2  1  0.50        -1.5636   1.0000                                                             
     3  2  1.50        -1.3606   0.0000                                                             
   Description                                                                                      
     l       E           TYP  RCUT    TYP  RCUT                                                     
     0    -53.3603633     23  1.200                                                                 
     0    -52.0001064     23  1.200                                                                 
     0    176.8757380     23  1.300                                                                 
     1     -1.5635925     23  1.500                                                                 
     1    108.8466080     23  1.500                                                                 
     2     81.6349560     23  1.500                                                                 
  local pseudopotential read in
  kinetic energy density of atom read in
  atomic valenz-charges read in
  non local Contribution for L=           0  read in
    real space projection operators read in
  non local Contribution for L=           0  read in
    real space projection operators read in
  non local Contribution for L=           0  read in
    real space projection operators read in
  non local Contribution for L=           1  read in
    real space projection operators read in
  non local Contribution for L=           1  read in
    real space projection operators read in
  non local Contribution for L=           2  read in
    real space projection operators read in
    PAW grid and wavefunctions read in
 
   number of l-projection  operators is LMAX  =           6
   number of lm-projection operators is LMMAX =          14
 
 POTCAR:    PAW_PBE P_GW 19Mar2012                
   SHA256 =  715c28f2291d37b61637ce89646c59f66f71c8b8d8bfba631e5feb9f7b42defe P_GW/POTCAR           
   COPYR  = (c) Copyright 19Mar2012 Georg Kresse                                                    
   COPYR  = This file is part of the software VASP. Any use, copying, and all other rights are regul
   COPYR  = If you do not have a valid VASP license, you may not use, copy or distribute this file. 
   VRHFIN =P : s2p3                                                                                 
   LEXCH  = PE                                                                                      
   EATOM  =   176.0430 eV,   12.9388 Ry                                                             
                                                                                                    
   TITEL  = PAW_PBE P_GW 19Mar2012                                                                  
   LULTRA =        F    use ultrasoft PP ?                                                          
   IUNSCR =        1    unscreen: 0-lin 1-nonlin 2-no                                               
   RPACOR =    1.400    partial core radius                                                         
   POMASS =   30.974; ZVAL   =    5.000    mass and valenz                                          
   RCORE  =    2.000    outmost cutoff radius                                                       
   RWIGS  =    1.900; RWIGS  =    1.005    wigner-seitz radius (au A)                               
   ENMAX  =  255.040; ENMIN  =  191.280 eV                                                          
   ICORE  =        3    local potential                                                             
   LCOR   =        T    correct aug charges                                                         
   LPAW   =        T    paw PP                                                                      
   EAUG   =  499.732                                                                                
   DEXC   =    0.000                                                                                
   RMAX   =    2.047    core radius for proj-oper                                                   
   RAUG   =    1.300    factor for augmentation sphere                                              
   RDEP   =    2.059    radius for radial grids                                                     
   RDEPT  =    1.900    core radius for aug-charge                                                  
                                                                                                    
   Atomic configuration                                                                             
    7 entries                                                                                       
     n  l   j            E        occ.                                                              
     1  0  0.50     -2084.0982   2.0000                                                             
     2  0  0.50      -173.9859   2.0000                                                             
     2  1  1.50      -124.4865   6.0000                                                             
     3  0  0.50       -13.9692   2.0000                                                             
     3  1  0.50        -5.5067   3.0000                                                             
     3  2  1.50        -6.8029   0.0000                                                             
     4  3  2.50        -1.3606   0.0000                                                             
   Description                                                                                      
     l       E           TYP  RCUT    TYP  RCUT                                                     
     0    -13.9691528     23  1.900                                                                 
     0    102.0436950     23  1.900                                                                 
     1     -5.5066939     23  1.900                                                                 
     1    102.0436950     23  1.900                                                                 
     2     -8.1634956     23  2.000                                                                 
     2     81.6349560     23  2.000                                                                 
     3     27.2116520     23  2.000                                                                 
  local pseudopotential read in
  partial core-charges read in
  partial kinetic energy density read in
  kinetic energy density of atom read in
  atomic valenz-charges read in
  non local Contribution for L=           0  read in
    real space projection operators read in
  non local Contribution for L=           0  read in
    real space projection operators read in
  non local Contribution for L=           1  read in
    real space projection operators read in
  non local Contribution for L=           1  read in
    real space projection operators read in
  non local Contribution for L=           2  read in
    real space projection operators read in
  non local Contribution for L=           2  read in
    real space projection operators read in
    PAW grid and wavefunctions read in
 
   number of l-projection  operators is LMAX  =           6
   number of lm-projection operators is LMMAX =          18
 
 POTCAR:    PAW_PBE S_GW 19Mar2012                
   SHA256 =  357db9cfb0783579b2eebe03197c2d807131fea8ea663b1fcfb6ce2fa75af011 S_GW/POTCAR           
   COPYR  = (c) Copyright 19Mar2012 Georg Kresse                                                    
   COPYR  = This file is part of the software VASP. Any use, copying, and all other rights are regul
   COPYR  = If you do not have a valid VASP license, you may not use, copy or distribute this file. 
   VRHFIN =S : s2p4                                                                                 
   LEXCH  = PE                                                                                      
   EATOM  =   276.8230 eV,   20.3459 Ry                                                             
                                                                                                    
   TITEL  = PAW_PBE S_GW 19Mar2012                                                                  
   LULTRA =        F    use ultrasoft PP ?                                                          
   IUNSCR =        1    unscreen: 0-lin 1-nonlin 2-no                                               
   RPACOR =    1.400    partial core radius                                                         
   POMASS =   32.066; ZVAL   =    6.000    mass and valenz                                          
   RCORE  =    1.900    outmost cutoff radius                                                       
   RWIGS  =    1.900; RWIGS  =    1.005    wigner-seitz radius (au A)                               
   ENMAX  =  258.689; ENMIN  =  194.016 eV                                                          
   ICORE  =        3    local potential                                                             
   LCOR   =        T    correct aug charges                                                         
   LPAW   =        T    paw PP                                                                      
   EAUG   =  488.319                                                                                
   DEXC   =    0.000                                                                                
   RMAX   =    1.942    core radius for proj-oper                                                   
   RAUG   =    1.300    factor for augmentation sphere                                              
   RDEP   =    1.954    radius for radial grids                                                     
   RDEPT  =    1.900    core radius for aug-charge                                                  
                                                                                                    
   Atomic configuration                                                                             
    7 entries                                                                                       
     n  l   j            E        occ.                                                              
     1  0  0.50     -2405.8406   2.0000                                                             
     2  0  0.50      -211.7007   2.0000                                                             
     2  1  1.50      -156.4958   6.0000                                                             
     3  0  0.50       -17.2562   2.0000                                                             
     3  1  0.50        -7.0085   4.0000                                                             
     3  2  1.50        -8.1635   0.0000                                                             
     4  3  2.50        -1.3606   0.0000                                                             
   Description                                                                                      
     l       E           TYP  RCUT    TYP  RCUT                                                     
     0    -17.2561639     23  1.700                                                                 
     0     88.4378690     23  1.900                                                                 
     1     -7.0085399     23  1.900                                                                 
     1     88.4378690     23  1.900                                                                 
     2    -10.8846608     23  1.900                                                                 
     2     54.4233040     23  1.900                                                                 
     3     27.2116520     23  1.800                                                                 
  local pseudopotential read in
  partial core-charges read in
  partial kinetic energy density read in
  kinetic energy density of atom read in
  atomic valenz-charges read in
  non local Contribution for L=           0  read in
    real space projection operators read in
  non local Contribution for L=           0  read in
    real space projection operators read in
  non local Contribution for L=           1  read in
    real space projection operators read in
  non local Contribution for L=           1  read in
    real space projection operators read in
  non local Contribution for L=           2  read in
    real space projection operators read in
  non local Contribution for L=           2  read in
    real space projection operators read in
    PAW grid and wavefunctions read in
 
   number of l-projection  operators is LMAX  =           6
   number of lm-projection operators is LMMAX =          18
 
 POTCAR:    PAW_PBE Cl_GW 19Mar2012               
   SHA256 =  3ef3b3169d6a9a89979f58b4cf17d927a58518fc660d8883d88cacaee8175441 Cl_GW/POTCAR          
   COPYR  = (c) Copyright 19Mar2012 Georg Kresse                                                    
   COPYR  = This file is part of the software VASP. Any use, copying, and all other rights are regul
   COPYR  = If you do not have a valid VASP license, you may not use, copy or distribute this file. 
   VRHFIN =Cl: s2p5                                                                                 
   LEXCH  = PE                                                                                      
   EATOM  =   409.7259 eV,   30.1140 Ry                                                             
                                                                                                    
   TITEL  = PAW_PBE Cl_GW 19Mar2012                                                                 
   LULTRA =        F    use ultrasoft PP ?                                                          
   IUNSCR =        1    unscreen: 0-lin 1-nonlin 2-no                                               
   RPACOR =    1.400    partial core radius                                                         
   POMASS =   35.453; ZVAL   =    7.000    mass and valenz                                          
   RCORE  =    1.900    outmost cutoff radius                                                       
   RWIGS  =    1.900; RWIGS  =    1.005    wigner-seitz radius (au A)                               
   ENMAX  =  262.472; ENMIN  =  196.854 eV                                                          
   ICORE  =        3    local potential                                                             
   LCOR   =        T    correct aug charges                                                         
   LPAW   =        T    paw PP                                                                      
   EAUG   =  456.703                                                                                
   DEXC   =    0.000                                                                                
   RMAX   =    1.945    core radius for proj-oper                                                   
   RAUG   =    1.300    factor for augmentation sphere                                              
   RDEP   =    2.020    radius for radial grids                                                     
   RDEPT  =    1.900    core radius for aug-charge                                                  
                                                                                                    
   Atomic configuration                                                                             
    7 entries                                                                                       
     n  l   j            E        occ.                                                              
     1  0  0.50     -2751.1850   2.0000                                                             
     2  0  0.50      -252.6861   2.0000                                                             
     2  1  1.50      -191.6157   6.0000                                                             
     3  0  0.50       -20.6916   2.0000                                                             
     3  1  0.50        -8.5949   5.0000                                                             
     3  2  1.50        -9.5241   0.0000                                                             
     4  3  2.50        -9.5241   0.0000                                                             
   Description                                                                                      
     l       E           TYP  RCUT    TYP  RCUT                                                     
     0    -20.6915657     23  1.700                                                                 
     0     95.2407820     23  1.800                                                                 
     1     -8.5948577     23  1.900                                                                 
     1     95.2407820     23  1.900                                                                 
     2    -10.8846608     23  1.900                                                                 
     2     54.4233040     23  1.900                                                                 
     3     27.2116520     23  1.900                                                                 
  local pseudopotential read in
  partial core-charges read in
  partial kinetic energy density read in
  kinetic energy density of atom read in
  atomic valenz-charges read in
  non local Contribution for L=           0  read in
    real space projection operators read in
  non local Contribution for L=           0  read in
    real space projection operators read in
  non local Contribution for L=           1  read in
    real space projection operators read in
  non local Contribution for L=           1  read in
    real space projection operators read in
  non local Contribution for L=           2  read in
    real space projection operators read in
  non local Contribution for L=           2  read in
    real space projection operators read in
    PAW grid and wavefunctions read in
 
   number of l-projection  operators is LMAX  =           6
   number of lm-projection operators is LMMAX =          18
 
 Optimization of the real space projectors (new method)

 maximal supplied QI-value         = 25.13
 optimisation between [QCUT,QGAM] = [ 11.56, 23.12] = [ 37.43,149.72] Ry 
 Optimized for a Real-space Cutoff    1.28 Angstroem

   l    n(q)    QCUT    max X(q) W(low)/X(q) W(high)/X(q)  e(spline) 
   0      9    11.561    87.733    0.11E-03    0.32E-04    0.56E-06
   0      9    11.561    82.800    0.11E-03    0.35E-04    0.56E-06
   0      9    11.561     2.509    0.22E-03    0.42E-04    0.79E-06
   1      8    11.561    12.580    0.94E-04    0.26E-03    0.21E-06
   1      8    11.561     1.319    0.33E-04    0.15E-03    0.19E-06
   2      8    11.561     1.993    0.36E-04    0.89E-04    0.26E-06
 Optimization of the real space projectors (new method)

 maximal supplied QI-value         = 18.90
 optimisation between [QCUT,QGAM] = [ 11.53, 23.24] = [ 37.21,151.29] Ry 
 Optimized for a Real-space Cutoff    1.21 Angstroem

   l    n(q)    QCUT    max X(q) W(low)/X(q) W(high)/X(q)  e(spline) 
   0      8    11.527     8.355    0.73E-04    0.70E-04    0.26E-07
   0      8    11.527     1.401    0.17E-03    0.17E-03    0.63E-07
   1      8    11.527     4.747    0.13E-03    0.17E-03    0.11E-06
   1      8    11.527     2.025    0.16E-03    0.18E-03    0.12E-06
   2      7    11.527     3.169    0.51E-04    0.25E-03    0.60E-07
   2      7    11.527     3.441    0.82E-04    0.22E-03    0.14E-06
 Optimization of the real space projectors (new method)

 maximal supplied QI-value         = 19.84
 optimisation between [QCUT,QGAM] = [ 11.51, 23.22] = [ 37.09,150.92] Ry 
 Optimized for a Real-space Cutoff    1.49 Angstroem

   l    n(q)    QCUT    max X(q) W(low)/X(q) W(high)/X(q)  e(spline) 
   0     10    11.508     7.541    0.34E-04    0.13E-04    0.69E-07
   0     10    11.508     1.809    0.49E-04    0.27E-04    0.14E-06
   1     10    11.508     4.107    0.27E-05    0.41E-05    0.14E-06
   1     10    11.508     2.196    0.26E-05    0.25E-05    0.22E-06
   2      9    11.508     4.265    0.18E-03    0.11E-03    0.81E-06
   2      9    11.508     1.925    0.97E-04    0.76E-04    0.47E-06
 Optimization of the real space projectors (new method)

 maximal supplied QI-value         = 19.84
 optimisation between [QCUT,QGAM] = [ 11.51, 23.22] = [ 37.09,150.92] Ry 
 Optimized for a Real-space Cutoff    1.21 Angstroem

   l    n(q)    QCUT    max X(q) W(low)/X(q) W(high)/X(q)  e(spline) 
   0      8    11.508     6.761    0.57E-04    0.57E-04    0.35E-07
   0      8    11.508     1.642    0.14E-03    0.14E-03    0.91E-07
   1      8    11.508     3.519    0.20E-04    0.72E-04    0.47E-07
   1      8    11.508     2.150    0.27E-04    0.11E-03    0.89E-07
   2      7    11.508     2.976    0.19E-03    0.33E-03    0.16E-06
   2      7    11.508     1.494    0.14E-03    0.29E-03    0.14E-06
  PAW_PBE Li_sv_GW 25Mar2010            :
 energy of atom  1       EATOM= -200.9989
 kinetic energy error for atom=    0.0127 (will be added to EATOM!!)
  PAW_PBE P_GW 19Mar2012                :
 energy of atom  2       EATOM= -176.0430
 kinetic energy error for atom=    0.0011 (will be added to EATOM!!)
  PAW_PBE S_GW 19Mar2012                :
 energy of atom  3       EATOM= -276.8230
 kinetic energy error for atom=    0.0024 (will be added to EATOM!!)
  PAW_PBE Cl_GW 19Mar2012               :
 energy of atom  4       EATOM= -409.7259
 kinetic energy error for atom=    0.0030 (will be added to EATOM!!)
 
 
 POSCAR: Li24 P4 S20 Cl4
  positions in direct lattice
  No initial velocities read in
 exchange correlation table for  LEXCH =        8
   RHO(1)=    0.500       N(1)  =     2000
   RHO(2)=  100.500       N(2)  =     4000

 VTST: version 4.1, (05/19/21)

 CHAIN: initializing optimizer
 
 OPT: Using VASP QUASI-newton optimizer
 CHAIN: Read ICHAIN            0
 
 POSCAR: Li24 P4 S20 Cl4
  positions in direct lattice
  No initial velocities read in
 


--------------------------------------------------------------------------------------------------------


 ion  position               nearest neighbor table
   1  0.977  0.250  0.250-
   2  0.977  0.750  0.750-
   3  0.023  0.250  0.750-
   4  0.023  0.750  0.250-
   5  0.250  0.250  0.977-
   6  0.250  0.750  0.023-
   7  0.750  0.250  0.023-
   8  0.750  0.750  0.977-
   9  0.250  0.977  0.250-
  10  0.250  0.023  0.750-
  11  0.750  0.977  0.750-
  12  0.750  0.022  0.250-
  13  0.250  0.750  0.477-
  14  0.250  0.250  0.523-
  15  0.750  0.750  0.523-
  16  0.750  0.250  0.477-
  17  0.250  0.477  0.750-
  18  0.250  0.523  0.250-
  19  0.750  0.477  0.250-
  20  0.750  0.523  0.750-
  21  0.477  0.250  0.750-
  22  0.477  0.750  0.250-
  23  0.523  0.250  0.250-
  24  0.523  0.750  0.750-
  25  0.500  0.500  0.500-  42 2.05  44 2.05  41 2.05  43 2.05
  26  0.500  0.000  1.000-  40 2.05  38 2.05  39 2.05  37 2.05
  27  0.000  0.500  0.000-  36 2.05  34 2.05  33 2.05  35 2.05
  28  1.000  1.000  0.500-  29 2.05  31 2.05  30 2.05  32 2.05
  29  0.118  0.882  0.618-  28 2.05
  30  0.118  0.118  0.382-  28 2.05
  31  0.882  0.882  0.382-  28 2.05
  32  0.882  0.118  0.618-  28 2.05
  33  0.882  0.618  0.118-  27 2.05
  34  0.882  0.382  0.882-  27 2.05
  35  0.118  0.618  0.882-  27 2.05
  36  0.118  0.382  0.118-  27 2.05
  37  0.618  0.118  0.882-  26 2.05
  38  0.618  0.882  0.118-  26 2.05
  39  0.382  0.118  0.118-  26 2.05
  40  0.382  0.882  0.882-  26 2.05
  41  0.618  0.618  0.382-  25 2.05
  42  0.618  0.382  0.618-  25 2.05
  43  0.382  0.618  0.618-  25 2.05
  44  0.382  0.382  0.382-  25 2.05
  45  0.750  0.750  0.750-
  46  0.750  0.249  0.250-
  47  0.250  0.750  0.250-
  48  0.250  0.250  0.750-
  49  1.000  1.000  1.000-
  50  0.000  0.500  0.500-
  51  0.500  1.000  0.500-
  52  0.500  0.500  0.000-
 
  LATTYP: Found a simple cubic cell.
 ALAT       =    10.0303535718
  
  Lattice vectors:
  
 A1 = (  10.0303535718,   0.0000000000,   0.0000000000)
 A2 = (   0.0000000000,  10.0303535718,   0.0000000000)
 A3 = (   0.0000000000,   0.0000000000,  10.0303535718)


Analysis of symmetry for initial positions (statically):
=====================================================================
 Subroutine PRICEL returns:
 Original cell was already a primitive cell.
 

 Routine SETGRP: Setting up the symmetry group for a 
 simple cubic supercell.


 Subroutine GETGRP returns: Found  2 space group operations
 (whereof  1 operations were pure point group operations)
 out of a pool of 48 trial point group operations.


The static configuration has the point symmetry C_1 .
 The point group associated with its full space group is C_1h.


Analysis of symmetry for dynamics (positions and initial velocities):
=====================================================================
 Subroutine PRICEL returns:
 Original cell was already a primitive cell.
 

 Routine SETGRP: Setting up the symmetry group for a 
 simple cubic supercell.


 Subroutine GETGRP returns: Found  2 space group operations
 (whereof  1 operations were pure point group operations)
 out of a pool of 48 trial point group operations.


The dynamic configuration has the point symmetry C_1 .
 The point group associated with its full space group is C_1h.


Analysis of structural, dynamic, and magnetic symmetry:
=====================================================================
 Subroutine PRICEL returns:
 Original cell was already a primitive cell.
 

 Routine SETGRP: Setting up the symmetry group for a 
 simple cubic supercell.


 Subroutine GETGRP returns: Found  2 space group operations
 (whereof  1 operations were pure point group operations)
 out of a pool of 48 trial point group operations.


The overall configuration has the point symmetry C_1 .
 The point group associated with its full space group is C_1h.


 Subroutine INISYM returns: Found  2 space group operations
 (whereof  1 operations are pure point group operations),
 and found     1 'primitive' translations


----------------------------------------------------------------------------------------

                                     Primitive cell                                     

  volume of cell :    1009.1337

  direct lattice vectors                    reciprocal lattice vectors
    10.030353572  0.000000000  0.000000000     0.099697383  0.000000000  0.000000000
     0.000000000 10.030353572  0.000000000     0.000000000  0.099697383  0.000000000
     0.000000000  0.000000000 10.030353572     0.000000000  0.000000000  0.099697383

  length of vectors
    10.030353572 10.030353572 10.030353572     0.099697383  0.099697383  0.099697383

  position of ions in fractional coordinates (direct lattice)
     0.976733307  0.249947864  0.249933233
     0.976641272  0.750017415  0.750114991
     0.023284899  0.250028497  0.750051179
     0.023367221  0.750021706  0.249959397
     0.249898720  0.249925041  0.976703015
     0.250021041  0.750066645  0.023317363
     0.750117341  0.249950884  0.023322196
     0.750080612  0.750023157  0.976676880
     0.250031362  0.977103537  0.250015660
     0.249839273  0.022561077  0.749839273
     0.750015660  0.977103537  0.750031362
     0.749940943  0.022458184  0.249940943
     0.250114991  0.750017415  0.476641272
     0.250051179  0.250028497  0.523284899
     0.749959397  0.750021706  0.523367221
     0.749933233  0.249947864  0.476733307
     0.250014775  0.476581724  0.750014775
     0.250031383  0.523160844  0.250001866
     0.750017678  0.476513674  0.250017678
     0.750001866  0.523160844  0.750031383
     0.476703015  0.249925041  0.749898720
     0.476676880  0.750023157  0.250080612
     0.523322196  0.249950884  0.250117341
     0.523317363  0.750066645  0.750021041
     0.500033347  0.500239782  0.500025312
     0.499945976  0.000033298  0.999945976
     0.000025312  0.500239782  0.000033347
     0.999954051  0.999935535  0.499954051
     0.117825247  0.881654456  0.617825247
     0.118009617  0.118251876  0.381998593
     0.882031361  0.881723284  0.382031361
     0.881998593  0.118251876  0.618009617
     0.881893813  0.618289462  0.118155656
     0.882039532  0.382098772  0.882059655
     0.118140122  0.618311637  0.881912116
     0.117991250  0.382083407  0.117982266
     0.618028929  0.118328376  0.881991221
     0.617816268  0.881732748  0.117816268
     0.381991221  0.118328376  0.118028929
     0.381996256  0.881901571  0.881996256
     0.618155656  0.618289462  0.381893813
     0.617982266  0.382083407  0.617991250
     0.381912116  0.618311637  0.618140122
     0.382059655  0.382098772  0.382039532
     0.749983689  0.750132656  0.750021288
     0.750024871  0.249472837  0.250024871
     0.250021288  0.750132656  0.249983689
     0.249992518  0.249555921  0.749992518
     0.999993309  0.999891636  0.999999924
     0.000022731  0.500036966  0.500022731
     0.499999924  0.999891636  0.499993309
     0.500015477  0.500092336  0.000015477

  ion indices of the primitive-cell ions
   primitive index   ion index
                 1           1
                 2           2
                 3           3
                 4           4
                 5           5
                 6           6
                 7           7
                 8           8
                 9           9
                10          10
                11          11
                12          12
                13          13
                14          14
                15          15
                16          16
                17          17
                18          18
                19          19
                20          20
                21          21
                22          22
                23          23
                24          24
                25          25
                26          26
                27          27
                28          28
                29          29
                30          30
                31          31
                32          32
                33          33
                34          34
                35          35
                36          36
                37          37
                38          38
                39          39
                40          40
                41          41
                42          42
                43          43
                44          44
                45          45
                46          46
                47          47
                48          48
                49          49
                50          50
                51          51
                52          52

----------------------------------------------------------------------------------------

 
 
 KPOINTS: Automatic mesh                          

Automatic generation of k-mesh.
 Grid dimensions read from file:
 generate k-points for:    2    2    2

 Generating k-lattice:

  Cartesian coordinates                     Fractional coordinates (reciprocal lattice)
     0.049848691  0.000000000  0.000000000     0.500000000  0.000000000  0.000000000
     0.000000000  0.049848691  0.000000000     0.000000000  0.500000000  0.000000000
     0.000000000  0.000000000  0.049848691     0.000000000  0.000000000  0.500000000

  Length of vectors
     0.049848691  0.049848691  0.049848691

  Shift w.r.t. Gamma in fractional coordinates (k-lattice)
     0.500000000  0.500000000  0.500000000

 
 Subroutine IBZKPT returns following result:
 ===========================================
 
 Found      3 irreducible k-points:
 
 Following reciprocal coordinates:
            Coordinates               Weight
  0.250000  0.250000  0.250000      2.000000
 -0.250000  0.250000  0.250000      4.000000
  0.250000 -0.250000  0.250000      2.000000
 
 Following cartesian coordinates:
            Coordinates               Weight
  0.024924  0.024924  0.024924      2.000000
 -0.024924  0.024924  0.024924      4.000000
  0.024924 -0.024924  0.024924      2.000000
 


--------------------------------------------------------------------------------------------------------




 Dimension of arrays:
   k-points           NKPTS =      3   k-points in BZ     NKDIM =      3   number of bands    NBANDS=    176
   number of dos      NEDOS =    301   number of ions     NIONS =     52
   non local maximal  LDIM  =      6   non local SUM 2l+1 LMDIM =     18
   total plane-waves  NPLWV = 512000
   max r-space proj   IRMAX =   7068   max aug-charges    IRDMAX=  21611
   dimension x,y,z NGX =    80 NGY =   80 NGZ =   80
   dimension x,y,z NGXF=   160 NGYF=  160 NGZF=  160
   support grid    NGXF=   160 NGYF=  160 NGZF=  160
   ions per type =              24   4  20   4
   NGX,Y,Z   is equivalent  to a cutoff of  13.26, 13.26, 13.26 a.u.
   NGXF,Y,Z  is equivalent  to a cutoff of  26.52, 26.52, 26.52 a.u.

 SYSTEM =  unknown system                          
 POSCAR =  Li24 P4 S20 Cl4                         

 Startparameter for this run:
   NWRITE =      2    write-flag & timer
   PREC   = accu      normal or accurate (medium, high low for compatibility)
   ISTART =      0    job   : 0-new  1-cont  2-samecut
   ICHARG =      2    charge: 1-file 2-atom 10-const
   ISPIN  =      2    spin polarized calculation?
   LNONCOLLINEAR =      F non collinear calculations
   LSORBIT =      F    spin-orbit coupling
   INIWAV =      1    electr: 0-lowe 1-rand  2-diag
   LASPH  =      T    aspherical Exc in radial PAW
 Electronic Relaxation 1
   ENCUT  =  520.0 eV  38.22 Ry    6.18 a.u.  18.65 18.65 18.65*2*pi/ulx,y,z
   ENINI  =  520.0     initial cutoff
   ENAUG  = 1041.7 eV  augmentation charge cutoff
   NELM   =    100;   NELMIN=  2; NELMDL=-10     # of ELM steps 
   EDIFF  = 0.1E-04   stopping-criterion for ELM
   LREAL  =      T    real-space projection
   NLSPLINE    = F    spline interpolate recip. space projectors
   LCOMPAT=      F    compatible to vasp.4.4
   GGA_COMPAT  = T    GGA compatible to vasp.4.4-vasp.4.6
   LMAXPAW     = -100 max onsite density
   LMAXMIX     =    4 max onsite mixed and CHGCAR
   VOSKOWN=      0    Vosko Wilk Nusair interpolation
   ROPT   =   -0.00025  -0.00025  -0.00025  -0.00025
 Ionic relaxation
   EDIFFG = -.1E-01   stopping-criterion for IOM
   NSW    =   1000    number of steps for IOM
   NBLOCK =      1;   KBLOCK =   1000    inner block; outer block 
   IBRION =      1    ionic relax: 0-MD 1-quasi-New 2-CG
   NFREE  =      0    steps in history (QN), initial steepest desc. (CG)
   ISIF   =      2    stress and relaxation
   IWAVPR =     11    prediction:  0-non 1-charg 2-wave 3-comb
   ISYM   =      2    0-nonsym 1-usesym 2-fastsym
   LCORR  =      T    Harris-Foulkes like correction to forces

   POTIM  = 0.5000    time-step for ionic-motion
   TEIN   =    0.0    initial temperature
   TEBEG  =    0.0;   TEEND  =   0.0 temperature during run
   SMASS  =  -3.00    Nose mass-parameter (am)
   estimated Nose-frequenzy (Omega)   =  0.10E-29 period in steps = 0.13E+47 mass=  -0.230E-26a.u.
   SCALEE = 1.0000    scale energy and forces
   NPACO  =    256;   APACO  = 10.0  distance and # of slots for P.C.
   PSTRESS=    0.0 pullay stress

  Mass of Ions in am
   POMASS =   7.01 30.97 32.07 35.45
  Ionic Valenz
   ZVAL   =   3.00  5.00  6.00  7.00
  Atomic Wigner-Seitz radii
   RWIGS  =  -1.00 -1.00 -1.00 -1.00
  virtual crystal weights 
   VCA    =   1.00  1.00  1.00  1.00
   NELECT =     240.0000    total number of electrons
   NUPDOWN=      -1.0000    fix difference up-down

 DOS related values:
   EMIN   =  10.00;   EMAX   =-10.00  energy-range for DOS
   EFERMI =   0.00;   METHOD = LEGACY      
   ISMEAR =     0;   SIGMA  =   0.03  broadening in eV -4-tet -1-fermi 0-gaus

 Electronic relaxation 2 (details)
   IALGO  =     48    algorithm
   LDIAG  =      T    sub-space diagonalisation (order eigenvalues)
   LSUBROT=      F    optimize rotation matrix (better conditioning)
   TURBO    =      0    0=normal 1=particle mesh
   IRESTART =      0    0=no restart 2=restart with 2 vectors
   NREBOOT  =      0    no. of reboots
   NMIN     =      0    reboot dimension
   EREF     =   0.00    reference energy to select bands
   IMIX   =      4    mixing-type and parameters
     AMIX     =   0.40;   BMIX     =  1.00
     AMIX_MAG =   1.60;   BMIX_MAG =  1.00
     AMIN     =   0.10
     WC   =   100.;   INIMIX=   1;  MIXPRE=   1;  MAXMIX= -45

 Intra band minimization:
   WEIMIN = 0.0010     energy-eigenvalue tresh-hold
   EBREAK =  0.14E-07  absolut break condition
   DEPER  =   0.30     relativ break condition  

   TIME   =   0.40     timestep for ELM

  volume/ion in A,a.u.               =      19.41       130.96
  Fermi-wavevector in a.u.,A,eV,Ry     =   1.014290  1.916731 13.997471  1.028785
  Thomas-Fermi vector in A             =   2.147509
 
 Write flags
   LWAVE        =      F    write WAVECAR
   LDOWNSAMPLE  =      F    k-point downsampling of WAVECAR
   LCHARG       =      F    write CHGCAR
   LVTOT        =      F    write LOCPOT, total local potential
   LVHAR        =      F    write LOCPOT, Hartree potential only
   LELF         =      F    write electronic localiz. function (ELF)
   LORBIT       =      0    0 simple, 1 ext, 2 COOP (PROOUT), +10 PAW based schemes


 Dipole corrections
   LMONO  =      F    monopole corrections only (constant potential shift)
   LDIPOL =      F    correct potential (dipole corrections)
   IDIPOL =      0    1-x, 2-y, 3-z, 4-all directions 
   EPSILON=  1.0000000 bulk dielectric constant

 Exchange correlation treatment:
   GGA     =    PE    GGA type
   LEXCH   =     8    internal setting for exchange type
   LIBXC   =     F    Libxc                    
   VOSKOWN =     0    Vosko Wilk Nusair interpolation
   LHFCALC =     F    Hartree Fock is set to
   LHFONE  =     F    Hartree Fock one center treatment
   AEXX    =    0.0000 exact exchange contribution

 Linear response parameters
   LEPSILON=     F    determine dielectric tensor
   LRPA    =     F    only Hartree local field effects (RPA)
   LNABLA  =     F    use nabla operator in PAW spheres
   LVEL    =     F    velocity operator in full k-point grid
   CSHIFT  =0.1000    complex shift for real part using Kramers Kronig
   OMEGAMAX=  -1.0    maximum frequency
   DEG_THRESHOLD= 0.2000000E-02 threshold for treating states as degnerate
   RTIME   =   -0.100 relaxation time in fs
  (WPLASMAI=    0.000 imaginary part of plasma frequency in eV, 0.658/RTIME)
   DFIELD  = 0.0000000 0.0000000 0.0000000 field for delta impulse in time
 
  Optional k-point grid parameters
   LKPOINTS_OPT  =     F    use optional k-point grid
   KPOINTS_OPT_MODE=     1    mode for optional k-point grid
 
 Orbital magnetization related:
   ORBITALMAG=     F  switch on orbital magnetization
   LCHIMAG   =     F  perturbation theory with respect to B field
   DQ        =  0.001000  dq finite difference perturbation B field
   LLRAUG    =     F  two centre corrections for induced B field
   LBONE     =     F  B-component reconstruction in AE one-centre
   LVGVCALC  =     T  calculate vGv susceptibility
   LVGVAPPL  =     F  apply vGv susceptibility instead of pGv for G=0

 Random number generation:
   RANDOM_GENERATOR = DEFAULT
   PCG_SEED         = not used


--------------------------------------------------------------------------------------------------------


 quasi-Newton-method for relaxation of ions
 charge density and potential will be updated during run
 spin polarized calculation
 RMM-DIIS sequential band-by-band
 perform sub-space diagonalisation
    before iterative eigenvector-optimisation
 modified Broyden-mixing scheme, WC =      100.0
 initial mixing is a Kerker type mixing with AMIX =  0.4000 and BMIX =      1.0000
 Hartree-type preconditioning will be used
 using additional bands           56
 real space projection scheme for non local part
 use partial core corrections
 calculate Harris-corrections to forces 
   (improved forces if not selfconsistent)
 use gradient corrections 
 use of overlap-Matrix (Vanderbilt PP)
 Gauss-broadening in eV      SIGMA  =   0.03


--------------------------------------------------------------------------------------------------------


  energy-cutoff  :      520.00
  volume of cell :     1009.13
      direct lattice vectors                 reciprocal lattice vectors
    10.030353572  0.000000000  0.000000000     0.099697383  0.000000000  0.000000000
     0.000000000 10.030353572  0.000000000     0.000000000  0.099697383  0.000000000
     0.000000000  0.000000000 10.030353572     0.000000000  0.000000000  0.099697383

  length of vectors
    10.030353572 10.030353572 10.030353572     0.099697383  0.099697383  0.099697383


 
 k-points in units of 2pi/SCALE and weight: Automatic mesh                          
   0.02492435  0.02492435  0.02492435       0.250
  -0.02492435  0.02492435  0.02492435       0.500
   0.02492435 -0.02492435  0.02492435       0.250
 
 k-points in reciprocal lattice and weights: Automatic mesh                          
   0.25000000  0.25000000  0.25000000       0.250
  -0.25000000  0.25000000  0.25000000       0.500
   0.25000000 -0.25000000  0.25000000       0.250
 
 position of ions in fractional coordinates (direct lattice) 
   0.97673331  0.24994786  0.24993323
   0.97664127  0.75001742  0.75011499
   0.02328490  0.25002850  0.75005118
   0.02336722  0.75002171  0.24995940
   0.24989872  0.24992504  0.97670301
   0.25002104  0.75006665  0.02331736
   0.75011734  0.24995088  0.02332220
   0.75008061  0.75002316  0.97667688
   0.25003136  0.97710354  0.25001566
   0.24983927  0.02256108  0.74983927
   0.75001566  0.97710354  0.75003136
   0.74994094  0.02245818  0.24994094
   0.25011499  0.75001742  0.47664127
   0.25005118  0.25002850  0.52328490
   0.74995940  0.75002171  0.52336722
   0.74993323  0.24994786  0.47673331
   0.25001478  0.47658172  0.75001478
   0.25003138  0.52316084  0.25000187
   0.75001768  0.47651367  0.25001768
   0.75000187  0.52316084  0.75003138
   0.47670301  0.24992504  0.74989872
   0.47667688  0.75002316  0.25008061
   0.52332220  0.24995088  0.25011734
   0.52331736  0.75006665  0.75002104
   0.50003335  0.50023978  0.50002531
   0.49994598  0.00003330  0.99994598
   0.00002531  0.50023978  0.00003335
   0.99995405  0.99993553  0.49995405
   0.11782525  0.88165446  0.61782525
   0.11800962  0.11825188  0.38199859
   0.88203136  0.88172328  0.38203136
   0.88199859  0.11825188  0.61800962
   0.88189381  0.61828946  0.11815566
   0.88203953  0.38209877  0.88205965
   0.11814012  0.61831164  0.88191212
   0.11799125  0.38208341  0.11798227
   0.61802893  0.11832838  0.88199122
   0.61781627  0.88173275  0.11781627
   0.38199122  0.11832838  0.11802893
   0.38199626  0.88190157  0.88199626
   0.61815566  0.61828946  0.38189381
   0.61798227  0.38208341  0.61799125
   0.38191212  0.61831164  0.61814012
   0.38205965  0.38209877  0.38203953
   0.74998369  0.75013266  0.75002129
   0.75002487  0.24947284  0.25002487
   0.25002129  0.75013266  0.24998369
   0.24999252  0.24955592  0.74999252
   0.99999331  0.99989164  0.99999992
   0.00002273  0.50003697  0.50002273
   0.49999992  0.99989164  0.49999331
   0.50001548  0.50009234  0.00001548
 
 position of ions in cartesian coordinates  (Angst):
   9.79698042  2.50706545  2.50691870
   9.79605727  7.52293986  7.52391858
   0.23355577  2.50787423  7.52327852
   0.23438148  7.52298290  2.50718113
   2.50657252  2.50683652  9.79667657
   2.50779944  7.52343366  0.23388139
   7.52394215  2.50709574  0.23392987
   7.52357374  7.52299746  9.79641444
   2.50790296  9.80069395  2.50774547
   2.50597625  0.22629558  7.52115303
   7.52292225  9.80069395  7.52307975
   7.52217282  0.22526352  2.50699604
   2.50874179  7.52293986  4.78088049
   2.50810174  2.50787423  5.24873256
   7.52235791  7.52298290  5.24955827
   7.52209548  2.50706545  4.78180363
   2.50773659  4.78028320  7.52291338
   2.50790317  5.24748824  2.50760711
   7.52294250  4.77960063  2.50776571
   7.52278390  5.24748824  7.52307996
   4.78149978  2.50683652  7.52174930
   4.78123765  7.52299746  2.50839696
   5.24910665  2.50709574  2.50876536
   5.24905818  7.52343366  7.52297623
   5.01551126  5.01758189  5.01543068
   5.01463491  0.00033399 10.02981169
   0.00025389  5.01758189  0.00033448
  10.02989268 10.02970696  5.01471590
   1.18182889  8.84330592  6.19700567
   1.18367818  1.18610812  3.83158095
   8.84708641  8.84399629  3.83190963
   8.84675773  1.18610812  6.19885497
   8.84570676  6.20166192  1.18514301
   8.84716837  3.83258578  8.84737021
   1.18498719  6.20188434  8.84589034
   1.18349395  3.83243166  1.18340385
   6.19904868  1.18687545  8.84668380
   6.19691561  8.84409122  1.18173882
   3.83150701  1.18687545  1.18387189
   3.83155751  8.84578458  8.84673430
   6.20031979  6.20166192  3.83052998
   6.19858063  3.83243166  6.19867074
   3.83071356  6.20188434  6.20016398
   3.83219342  3.83258578  3.83199159
   7.52260157  7.52409577  7.52297870
   7.52301464  2.50230076  2.50783786
   2.50780192  7.52409577  2.50742478
   2.50751335  2.50313412  7.52269013
  10.03028646 10.02926664 10.03035281
   0.00022800  5.01554756  5.01540478
   5.01517602 10.02926664  5.01510967
   5.01533203  5.01610295  0.00015524
 


--------------------------------------------------------------------------------------------------------


 k-point   1 :   0.2500 0.2500 0.2500  plane waves:   27169
 k-point   2 :  -0.2500 0.2500 0.2500  plane waves:   27169
 k-point   3 :   0.2500-0.2500 0.2500  plane waves:   27169

 maximum and minimum number of plane-waves per node :       862      835

 maximum number of plane-waves:     27169
 maximum index in each direction: 
   IXMAX=   18   IYMAX=   18   IZMAX=   18
   IXMIN=  -18   IYMIN=  -18   IZMIN=  -18


 real space projection operators:
  total allocation   :      34869.56 KBytes
  max/ min on nodes  :       1343.73        816.50


 parallel 3D FFT for wavefunctions:
    minimum data exchange during FFTs selected (reduces bandwidth)
 parallel 3D FFT for charge:
    minimum data exchange during FFTs selected (reduces bandwidth)


 total amount of memory used by VASP MPI-rank0    50377. kBytes
=======================================================================

   base      :      30000. kBytes
   nonlr-proj:       7915. kBytes
   fftplans  :       2173. kBytes
   grid      :       6510. kBytes
   one-center:         62. kBytes
   wavefun   :       3717. kBytes
 
     INWAV:  cpu time      0.0000: real time      0.0000
 Broyden mixing: mesh for mixing (old mesh)
   NGX = 37   NGY = 37   NGZ = 37
  (NGX  =160   NGY  =160   NGZ  =160)
  gives a total of  50653 points

 initial charge density was supplied:
 charge density of overlapping atoms calculated
 number of electron     240.0000000 magnetization      52.0000000
 keeping initial charge density in first step


--------------------------------------------------------------------------------------------------------


 Maximum index for non-local projection operator          458
 Maximum index for augmentation-charges          917 (set IRDMAX)


--------------------------------------------------------------------------------------------------------


 First call to EWALD:  gamma=   0.177
 Maximum number of real-space cells 3x 3x 3
 Maximum number of reciprocal cells 3x 3x 3

    FEWALD:  cpu time      0.0024: real time      0.0029


--------------------------------------- Ionic step        1  -------------------------------------------




--------------------------------------- Iteration      1(   1)  ---------------------------------------


    POTLOK:  cpu time      0.0772: real time      0.0850
    SETDIJ:  cpu time      0.4123: real time      0.4192
    EDDIAG:  cpu time      0.3600: real time      0.3940
  RMM-DIIS:  cpu time      0.6355: real time      0.6412
    ORTHCH:  cpu time      0.0549: real time      0.0577
       DOS:  cpu time      0.0031: real time      0.0047
    --------------------------------------------
      LOOP:  cpu time      1.5430: real time      1.6017

 eigenvalue-minimisations  :  1056
 total energy-change (2. order) : 0.2400467E+04  (-0.8823146E+04)
 number of electron     240.0000000 magnetization      52.0000000
 augmentation part      240.0000000 magnetization      52.0000000

 Free energy of the ion-electron system (eV)
  ---------------------------------------------------
  alpha Z        PSCENC =       269.00052293
  Ewald energy   TEWEN  =     -8271.82137795
  -Hartree energ DENC   =     -2407.80216064
  -exchange      EXHF   =         0.00000000
  -V(xc)+E(xc)   XCENC  =       529.46462633
  PAW double counting   =      8141.38806575    -8271.61346273
  entropy T*S    EENTRO =        -0.00668916
  eigenvalues    EBANDS =      -291.28222027
  atomic energy  EATOM  =     12703.13999606
  Solvation  Ediel_sol  =         0.00000000
  ---------------------------------------------------
  free energy    TOTEN  =      2400.46730031 eV

  energy without entropy =     2400.47398947  energy(sigma->0) =     2400.47064489


--------------------------------------------------------------------------------------------------------




--------------------------------------- Iteration      1(   2)  ---------------------------------------


    EDDIAG:  cpu time      0.2940: real time      0.2985
  RMM-DIIS:  cpu time      0.6339: real time      0.6392
    ORTHCH:  cpu time      0.0528: real time      0.0537
       DOS:  cpu time      0.0010: real time      0.0010
    --------------------------------------------
      LOOP:  cpu time      0.9818: real time      0.9924

 eigenvalue-minimisations  :  1056
 total energy-change (2. order) :-0.2161883E+04  (-0.2661756E+04)
 number of electron     240.0000000 magnetization      52.0000000
 augmentation part      240.0000000 magnetization      52.0000000

 Free energy of the ion-electron system (eV)
  ---------------------------------------------------
  alpha Z        PSCENC =       269.00052293
  Ewald energy   TEWEN  =     -8271.82137795
  -Hartree energ DENC   =     -2407.80216064
  -exchange      EXHF   =         0.00000000
  -V(xc)+E(xc)   XCENC  =       529.46462633
  PAW double counting   =      8141.38806575    -8271.61346273
  entropy T*S    EENTRO =        -0.02044270
  eigenvalues    EBANDS =     -2453.15106298
  atomic energy  EATOM  =     12703.13999606
  Solvation  Ediel_sol  =         0.00000000
  ---------------------------------------------------
  free energy    TOTEN  =       238.58470406 eV

  energy without entropy =      238.60514676  energy(sigma->0) =      238.59492541


--------------------------------------------------------------------------------------------------------




--------------------------------------- Iteration      1(   3)  ---------------------------------------


    EDDIAG:  cpu time      0.2948: real time      0.2983
  RMM-DIIS:  cpu time      0.6360: real time      0.6412
    ORTHCH:  cpu time      0.0546: real time      0.0562
       DOS:  cpu time      0.0009: real time      0.0009
    --------------------------------------------
      LOOP:  cpu time      0.9863: real time      0.9966

 eigenvalue-minimisations  :  1056
 total energy-change (2. order) :-0.1141294E+03  (-0.6201932E+03)
 number of electron     240.0000000 magnetization      52.0000000
 augmentation part      240.0000000 magnetization      52.0000000

 Free energy of the ion-electron system (eV)
  ---------------------------------------------------
  alpha Z        PSCENC =       269.00052293
  Ewald energy   TEWEN  =     -8271.82137795
  -Hartree energ DENC   =     -2407.80216064
  -exchange      EXHF   =         0.00000000
  -V(xc)+E(xc)   XCENC  =       529.46462633
  PAW double counting   =      8141.38806575    -8271.61346273
  entropy T*S    EENTRO =        -0.00863855
  eigenvalues    EBANDS =     -2567.29228623
  atomic energy  EATOM  =     12703.13999606
  Solvation  Ediel_sol  =         0.00000000
  ---------------------------------------------------
  free energy    TOTEN  =       124.45528496 eV

  energy without entropy =      124.46392351  energy(sigma->0) =      124.45960424


--------------------------------------------------------------------------------------------------------




--------------------------------------- Iteration      1(   4)  ---------------------------------------


    EDDIAG:  cpu time      0.2929: real time      0.2962
  RMM-DIIS:  cpu time      0.6341: real time      0.6393
    ORTHCH:  cpu time      0.0524: real time      0.0537
       DOS:  cpu time      0.0006: real time      0.0006
    --------------------------------------------
      LOOP:  cpu time      0.9800: real time      0.9899

 eigenvalue-minimisations  :  1056
 total energy-change (2. order) :-0.2068702E+03  (-0.1755339E+03)
 number of electron     240.0000000 magnetization      52.0000000
 augmentation part      240.0000000 magnetization      52.0000000

 Free energy of the ion-electron system (eV)
  ---------------------------------------------------
  alpha Z        PSCENC =       269.00052293
  Ewald energy   TEWEN  =     -8271.82137795
  -Hartree energ DENC   =     -2407.80216064
  -exchange      EXHF   =         0.00000000
  -V(xc)+E(xc)   XCENC  =       529.46462633
  PAW double counting   =      8141.38806575    -8271.61346273
  entropy T*S    EENTRO =        -0.00000000
  eigenvalues    EBANDS =     -2774.17107559
  atomic energy  EATOM  =     12703.13999606
  Solvation  Ediel_sol  =         0.00000000
  ---------------------------------------------------
  free energy    TOTEN  =       -82.41486585 eV

  energy without entropy =      -82.41486585  energy(sigma->0) =      -82.41486585


--------------------------------------------------------------------------------------------------------




--------------------------------------- Iteration      1(   5)  ---------------------------------------


    EDDIAG:  cpu time      0.2955: real time      0.2989
  RMM-DIIS:  cpu time      0.6344: real time      0.6400
    ORTHCH:  cpu time      0.0521: real time      0.0524
       DOS:  cpu time      0.0004: real time      0.0004
    --------------------------------------------
      LOOP:  cpu time      0.9825: real time      0.9917

 eigenvalue-minimisations  :  1056
 total energy-change (2. order) :-0.8024712E+02  (-0.7358784E+02)
 number of electron     240.0000000 magnetization      52.0000000
 augmentation part      240.0000000 magnetization      52.0000000

 Free energy of the ion-electron system (eV)
  ---------------------------------------------------
  alpha Z        PSCENC =       269.00052293
  Ewald energy   TEWEN  =     -8271.82137795
  -Hartree energ DENC   =     -2407.80216064
  -exchange      EXHF   =         0.00000000
  -V(xc)+E(xc)   XCENC  =       529.46462633
  PAW double counting   =      8141.38806575    -8271.61346273
  entropy T*S    EENTRO =        -0.00000000
  eigenvalues    EBANDS =     -2854.41819294
  atomic energy  EATOM  =     12703.13999606
  Solvation  Ediel_sol  =         0.00000000
  ---------------------------------------------------
  free energy    TOTEN  =      -162.66198320 eV

  energy without entropy =     -162.66198320  energy(sigma->0) =     -162.66198320


--------------------------------------------------------------------------------------------------------




--------------------------------------- Iteration      1(   6)  ---------------------------------------


    EDDIAG:  cpu time      0.2940: real time      0.2973
  RMM-DIIS:  cpu time      0.6497: real time      0.6553
    ORTHCH:  cpu time      0.0525: real time      0.0532
       DOS:  cpu time      0.0004: real time      0.0004
    --------------------------------------------
      LOOP:  cpu time      0.9967: real time      1.0063

 eigenvalue-minimisations  :  1056
 total energy-change (2. order) :-0.3722476E+02  (-0.3547506E+02)
 number of electron     240.0000000 magnetization      52.0000000
 augmentation part      240.0000000 magnetization      52.0000000

 Free energy of the ion-electron system (eV)
  ---------------------------------------------------
  alpha Z        PSCENC =       269.00052293
  Ewald energy   TEWEN  =     -8271.82137795
  -Hartree energ DENC   =     -2407.80216064
  -exchange      EXHF   =         0.00000000
  -V(xc)+E(xc)   XCENC  =       529.46462633
  PAW double counting   =      8141.38806575    -8271.61346273
  entropy T*S    EENTRO =        -0.00000000
  eigenvalues    EBANDS =     -2891.64295445
  atomic energy  EATOM  =     12703.13999606
  Solvation  Ediel_sol  =         0.00000000
  ---------------------------------------------------
  free energy    TOTEN  =      -199.88674471 eV

  energy without entropy =     -199.88674471  energy(sigma->0) =     -199.88674471


--------------------------------------------------------------------------------------------------------




--------------------------------------- Iteration      1(   7)  ---------------------------------------


    EDDIAG:  cpu time      0.2920: real time      0.2948
  RMM-DIIS:  cpu time      0.6540: real time      0.6598
    ORTHCH:  cpu time      0.0520: real time      0.0523
       DOS:  cpu time      0.0004: real time      0.0004
    --------------------------------------------
      LOOP:  cpu time      0.9984: real time      1.0073

 eigenvalue-minimisations  :  1056
 total energy-change (2. order) :-0.1866412E+02  (-0.1790741E+02)
 number of electron     240.0000000 magnetization      52.0000000
 augmentation part      240.0000000 magnetization      52.0000000

 Free energy of the ion-electron system (eV)
  ---------------------------------------------------
  alpha Z        PSCENC =       269.00052293
  Ewald energy   TEWEN  =     -8271.82137795
  -Hartree energ DENC   =     -2407.80216064
  -exchange      EXHF   =         0.00000000
  -V(xc)+E(xc)   XCENC  =       529.46462633
  PAW double counting   =      8141.38806575    -8271.61346273
  entropy T*S    EENTRO =        -0.00000000
  eigenvalues    EBANDS =     -2910.30707060
  atomic energy  EATOM  =     12703.13999606
  Solvation  Ediel_sol  =         0.00000000
  ---------------------------------------------------
  free energy    TOTEN  =      -218.55086086 eV

  energy without entropy =     -218.55086086  energy(sigma->0) =     -218.55086086


--------------------------------------------------------------------------------------------------------




--------------------------------------- Iteration      1(   8)  ---------------------------------------


    EDDIAG:  cpu time      0.2920: real time      0.2950
  RMM-DIIS:  cpu time      1.5013: real time      1.5657
    ORTHCH:  cpu time      0.0510: real time      0.0529
       DOS:  cpu time      0.0005: real time      0.0005
    --------------------------------------------
      LOOP:  cpu time      1.8448: real time      1.9140

 eigenvalue-minimisations  :  2688
 total energy-change (2. order) :-0.1901936E+02  (-0.1868730E+02)
 number of electron     240.0000000 magnetization      52.0000000
 augmentation part      240.0000000 magnetization      52.0000000

 Free energy of the ion-electron system (eV)
  ---------------------------------------------------
  alpha Z        PSCENC =       269.00052293
  Ewald energy   TEWEN  =     -8271.82137795
  -Hartree energ DENC   =     -2407.80216064
  -exchange      EXHF   =         0.00000000
  -V(xc)+E(xc)   XCENC  =       529.46462633
  PAW double counting   =      8141.38806575    -8271.61346273
  entropy T*S    EENTRO =        -0.00000000
  eigenvalues    EBANDS =     -2929.32643291
  atomic energy  EATOM  =     12703.13999606
  Solvation  Ediel_sol  =         0.00000000
  ---------------------------------------------------
  free energy    TOTEN  =      -237.57022316 eV

  energy without entropy =     -237.57022316  energy(sigma->0) =     -237.57022316


--------------------------------------------------------------------------------------------------------




--------------------------------------- Iteration      1(   9)  ---------------------------------------


    EDDIAG:  cpu time      0.2919: real time      0.2945
  RMM-DIIS:  cpu time      1.6922: real time      1.7075
    ORTHCH:  cpu time      0.0529: real time      0.0537
       DOS:  cpu time      0.0004: real time      0.0004
    --------------------------------------------
      LOOP:  cpu time      2.0375: real time      2.0561

 eigenvalue-minimisations  :  2969
 total energy-change (2. order) :-0.2400720E+01  (-0.2505068E+01)
 number of electron     240.0000000 magnetization      52.0000000
 augmentation part      240.0000000 magnetization      52.0000000

 Free energy of the ion-electron system (eV)
  ---------------------------------------------------
  alpha Z        PSCENC =       269.00052293
  Ewald energy   TEWEN  =     -8271.82137795
  -Hartree energ DENC   =     -2407.80216064
  -exchange      EXHF   =         0.00000000
  -V(xc)+E(xc)   XCENC  =       529.46462633
  PAW double counting   =      8141.38806575    -8271.61346273
  entropy T*S    EENTRO =        -0.00000000
  eigenvalues    EBANDS =     -2931.72715333
  atomic energy  EATOM  =     12703.13999606
  Solvation  Ediel_sol  =         0.00000000
  ---------------------------------------------------
  free energy    TOTEN  =      -239.97094358 eV

  energy without entropy =     -239.97094358  energy(sigma->0) =     -239.97094358


--------------------------------------------------------------------------------------------------------




--------------------------------------- Iteration      1(  10)  ---------------------------------------


    EDDIAG:  cpu time      0.2909: real time      0.2934
  RMM-DIIS:  cpu time      1.8979: real time      1.9152
    ORTHCH:  cpu time      0.0520: real time      0.0523
       DOS:  cpu time      0.0005: real time      0.0005
    CHARGE:  cpu time      0.2629: real time      0.5336
    MIXING:  cpu time      0.0023: real time      0.0039
    --------------------------------------------
      LOOP:  cpu time      2.5064: real time      2.7988

 eigenvalue-minimisations  :  3379
 total energy-change (2. order) :-0.2783666E+00  (-0.2434091E+00)
 number of electron     240.0000138 magnetization      28.5530124
 augmentation part        1.5603212 magnetization      28.9815057

 Broyden mixing:
  rms(total) = 0.65425E+01    rms(broyden)= 0.65422E+01
  rms(prec ) = 0.67845E+01
  weight for this iteration     100.00

 Free energy of the ion-electron system (eV)
  ---------------------------------------------------
  alpha Z        PSCENC =       269.00052293
  Ewald energy   TEWEN  =     -8271.82137795
  -Hartree energ DENC   =     -2407.80216064
  -exchange      EXHF   =         0.00000000
  -V(xc)+E(xc)   XCENC  =       529.46462633
  PAW double counting   =      8141.38806575    -8271.61346273
  entropy T*S    EENTRO =        -0.00000000
  eigenvalues    EBANDS =     -2932.00551990
  atomic energy  EATOM  =     12703.13999606
  Solvation  Ediel_sol  =         0.00000000
  ---------------------------------------------------
  free energy    TOTEN  =      -240.24931016 eV

  energy without entropy =     -240.24931016  energy(sigma->0) =     -240.24931016


--------------------------------------------------------------------------------------------------------




--------------------------------------- Iteration      1(  11)  ---------------------------------------


    POTLOK:  cpu time      0.0731: real time      0.0742
    SETDIJ:  cpu time      0.4090: real time      0.4240
    EDDIAG:  cpu time      0.2970: real time      0.2997
  RMM-DIIS:  cpu time      1.4830: real time      1.4968
    ORTHCH:  cpu time      0.0519: real time      0.0527
       DOS:  cpu time      0.0005: real time      0.0005
    CHARGE:  cpu time      0.5528: real time      0.6727
    MIXING:  cpu time      0.0012: real time      0.0020
    --------------------------------------------
      LOOP:  cpu time      2.8686: real time      3.0226

 eigenvalue-minimisations  :  2658
 total energy-change (2. order) : 0.1757485E+02  (-0.7313246E+01)
 number of electron     240.0000138 magnetization      17.5705468
 augmentation part        1.7191174 magnetization      17.8464959

 Broyden mixing:
  rms(total) = 0.32938E+01    rms(broyden)= 0.32937E+01
  rms(prec ) = 0.34154E+01
  weight for this iteration     100.00

 eigenvalues of (default mixing * dielectric matrix)
  average eigenvalue GAMMA=   0.7275
  0.7275

 Free energy of the ion-electron system (eV)
  ---------------------------------------------------
  alpha Z        PSCENC =       269.00052293
  Ewald energy   TEWEN  =     -8271.82137795
  -Hartree energ DENC   =     -2468.35686971
  -exchange      EXHF   =         0.00000000
  -V(xc)+E(xc)   XCENC  =       542.33682591
  PAW double counting   =      8974.68968471    -9111.46576709
  entropy T*S    EENTRO =        -0.00000000
  eigenvalues    EBANDS =     -2860.19747707
  atomic energy  EATOM  =     12703.13999606
  Solvation  Ediel_sol  =         0.00000000
  ---------------------------------------------------
  free energy    TOTEN  =      -222.67446222 eV

  energy without entropy =     -222.67446222  energy(sigma->0) =     -222.67446222


--------------------------------------------------------------------------------------------------------




--------------------------------------- Iteration      1(  12)  ---------------------------------------


    POTLOK:  cpu time      0.0656: real time      0.0711
    SETDIJ:  cpu time      0.4376: real time      0.4625
    EDDIAG:  cpu time      0.5997: real time      0.6058
  RMM-DIIS:  cpu time      1.4508: real time      1.4633
    ORTHCH:  cpu time      0.0527: real time      0.0536
       DOS:  cpu time      0.0005: real time      0.0005
    CHARGE:  cpu time      0.1619: real time      0.2236
    MIXING:  cpu time      0.0012: real time      0.0013
    --------------------------------------------
      LOOP:  cpu time      2.7699: real time      2.8816

 eigenvalue-minimisations  :  2569
 total energy-change (2. order) :-0.3118955E+02  (-0.4161284E+01)
 number of electron     240.0000138 magnetization       4.2321958
 augmentation part        1.9340842 magnetization       4.5800475

 Broyden mixing:
  rms(total) = 0.22445E+01    rms(broyden)= 0.22445E+01
  rms(prec ) = 0.22926E+01
  weight for this iteration     100.00

 eigenvalues of (default mixing * dielectric matrix)
  average eigenvalue GAMMA=   0.9424
  1.2382  0.6465

 Free energy of the ion-electron system (eV)
  ---------------------------------------------------
  alpha Z        PSCENC =       269.00052293
  Ewald energy   TEWEN  =     -8271.82137795
  -Hartree energ DENC   =     -2505.49832409
  -exchange      EXHF   =         0.00000000
  -V(xc)+E(xc)   XCENC  =       534.82318385
  PAW double counting   =      9368.26879641    -9508.97319903
  entropy T*S    EENTRO =        -0.00000000
  eigenvalues    EBANDS =     -2842.80360797
  atomic energy  EATOM  =     12703.13999606
  Solvation  Ediel_sol  =         0.00000000
  ---------------------------------------------------
  free energy    TOTEN  =      -253.86400980 eV

  energy without entropy =     -253.86400980  energy(sigma->0) =     -253.86400980


--------------------------------------------------------------------------------------------------------




--------------------------------------- Iteration      1(  13)  ---------------------------------------


    POTLOK:  cpu time      0.0677: real time      0.0723
    SETDIJ:  cpu time      0.4077: real time      0.4151
    EDDIAG:  cpu time      0.2922: real time      0.2941
  RMM-DIIS:  cpu time      1.2405: real time      1.2518
    ORTHCH:  cpu time      0.0512: real time      0.0519
       DOS:  cpu time      0.0004: real time      0.0004
    CHARGE:  cpu time      0.1618: real time      0.1977
    MIXING:  cpu time      0.0014: real time      0.0014
    --------------------------------------------
      LOOP:  cpu time      2.2229: real time      2.2848

 eigenvalue-minimisations  :  2216
 total energy-change (2. order) :-0.1943364E+01  (-0.6261908E+00)
 number of electron     240.0000138 magnetization      -1.9254247
 augmentation part        1.9830147 magnetization      -1.7865371

 Broyden mixing:
  rms(total) = 0.97186E+00    rms(broyden)= 0.97186E+00
  rms(prec ) = 0.99951E+00
  weight for this iteration     100.00

 eigenvalues of (default mixing * dielectric matrix)
  average eigenvalue GAMMA=   1.3310
  2.6210  0.7286  0.6432

 Free energy of the ion-electron system (eV)
  ---------------------------------------------------
  alpha Z        PSCENC =       269.00052293
  Ewald energy   TEWEN  =     -8271.82137795
  -Hartree energ DENC   =     -2528.91291030
  -exchange      EXHF   =         0.00000000
  -V(xc)+E(xc)   XCENC  =       534.92725390
  PAW double counting   =      9755.86228930    -9899.94877875
  entropy T*S    EENTRO =        -0.00000000
  eigenvalues    EBANDS =     -2818.05436868
  atomic energy  EATOM  =     12703.13999606
  Solvation  Ediel_sol  =         0.00000000
  ---------------------------------------------------
  free energy    TOTEN  =      -255.80737349 eV

  energy without entropy =     -255.80737349  energy(sigma->0) =     -255.80737349


--------------------------------------------------------------------------------------------------------




--------------------------------------- Iteration      1(  14)  ---------------------------------------


    POTLOK:  cpu time      0.0678: real time      0.0688
    SETDIJ:  cpu time      0.4134: real time      0.4149
    EDDIAG:  cpu time      0.2911: real time      0.2930
  RMM-DIIS:  cpu time      1.4357: real time      1.4482
    ORTHCH:  cpu time      0.0525: real time      0.0536
       DOS:  cpu time      0.0004: real time      0.0004
    CHARGE:  cpu time      0.1515: real time      0.1838
    MIXING:  cpu time      0.0013: real time      0.0014
    --------------------------------------------
      LOOP:  cpu time      2.4138: real time      2.4640

 eigenvalue-minimisations  :  2555
 total energy-change (2. order) :-0.3233440E+00  (-0.2429566E+00)
 number of electron     240.0000138 magnetization      -1.1354785
 augmentation part        1.9553916 magnetization      -1.1066076

 Broyden mixing:
  rms(total) = 0.31941E+00    rms(broyden)= 0.31940E+00
  rms(prec ) = 0.34812E+00
  weight for this iteration     100.00

 eigenvalues of (default mixing * dielectric matrix)
  average eigenvalue GAMMA=   1.2801
  2.7112  1.1056  0.6950  0.6088

 Free energy of the ion-electron system (eV)
  ---------------------------------------------------
  alpha Z        PSCENC =       269.00052293
  Ewald energy   TEWEN  =     -8271.82137795
  -Hartree energ DENC   =     -2538.31765704
  -exchange      EXHF   =         0.00000000
  -V(xc)+E(xc)   XCENC  =       536.18233248
  PAW double counting   =      9926.78423186   -10072.42318657
  entropy T*S    EENTRO =        -0.00000000
  eigenvalues    EBANDS =     -2808.67557930
  atomic energy  EATOM  =     12703.13999606
  Solvation  Ediel_sol  =         0.00000000
  ---------------------------------------------------
  free energy    TOTEN  =      -256.13071753 eV

  energy without entropy =     -256.13071753  energy(sigma->0) =     -256.13071753


--------------------------------------------------------------------------------------------------------




--------------------------------------- Iteration      1(  15)  ---------------------------------------


    POTLOK:  cpu time      0.0672: real time      0.0687
    SETDIJ:  cpu time      0.4121: real time      0.4138
    EDDIAG:  cpu time      0.2938: real time      0.2958
  RMM-DIIS:  cpu time      1.4336: real time      1.4485
    ORTHCH:  cpu time      0.0544: real time      0.0555
       DOS:  cpu time      0.0005: real time      0.0005
    CHARGE:  cpu time      0.1662: real time      0.1954
    MIXING:  cpu time      0.0015: real time      0.0015
    --------------------------------------------
      LOOP:  cpu time      2.4292: real time      2.4797

 eigenvalue-minimisations  :  2548
 total energy-change (2. order) :-0.8421502E-03  (-0.4642315E-01)
 number of electron     240.0000138 magnetization      -0.2883382
 augmentation part        1.8980485 magnetization      -0.2659819

 Broyden mixing:
  rms(total) = 0.71490E-01    rms(broyden)= 0.71488E-01
  rms(prec ) = 0.86331E-01
  weight for this iteration     100.00

 eigenvalues of (default mixing * dielectric matrix)
  average eigenvalue GAMMA=   1.2954
  2.5655  1.6952  0.9049  0.6908  0.6204

 Free energy of the ion-electron system (eV)
  ---------------------------------------------------
  alpha Z        PSCENC =       269.00052293
  Ewald energy   TEWEN  =     -8271.82137795
  -Hartree energ DENC   =     -2534.11150657
  -exchange      EXHF   =         0.00000000
  -V(xc)+E(xc)   XCENC  =       535.77566633
  PAW double counting   =      9887.61988372   -10032.90064200
  entropy T*S    EENTRO =        -0.00000000
  eigenvalues    EBANDS =     -2812.83410220
  atomic energy  EATOM  =     12703.13999606
  Solvation  Ediel_sol  =         0.00000000
  ---------------------------------------------------
  free energy    TOTEN  =      -256.13155968 eV

  energy without entropy =     -256.13155968  energy(sigma->0) =     -256.13155968


--------------------------------------------------------------------------------------------------------




--------------------------------------- Iteration      1(  16)  ---------------------------------------


    POTLOK:  cpu time      0.0684: real time      0.0716
    SETDIJ:  cpu time      0.4123: real time      0.4135
    EDDIAG:  cpu time      0.2943: real time      0.2963
  RMM-DIIS:  cpu time      1.4765: real time      1.5007
    ORTHCH:  cpu time      0.0538: real time      0.0546
       DOS:  cpu time      0.0004: real time      0.0004
    CHARGE:  cpu time      0.1532: real time      0.1822
    MIXING:  cpu time      0.0016: real time      0.0016
    --------------------------------------------
      LOOP:  cpu time      2.4605: real time      2.5208

 eigenvalue-minimisations  :  2497
[...]
 -0.000   0.000   0.000   0.003  -0.002   0.000   0.000  -0.000   0.000   0.000   0.000  -0.000  -0.000  -0.000
  0.000  -0.000  -0.000  -0.002   0.003   0.000  -0.000   0.000   0.000  -0.000  -0.000   0.000   0.000   0.000
 -0.002   0.002   0.000   0.000   0.000   0.007   0.000   0.000   0.000  -0.000  -0.000   0.000   0.000  -0.000
  0.000  -0.000  -0.000   0.006  -0.006  -0.000   0.000  -0.000  -0.000   0.000   0.000  -0.000  -0.000   0.000
 -0.034   0.034   0.000   0.000  -0.000  -0.006   0.000  -0.000  -0.000   0.000   0.000  -0.000  -0.000   0.000
 -0.019   0.019   0.000  -0.000   0.000   0.006  -0.000   0.000   0.000  -0.000  -0.000   0.000   0.000  -0.000
  0.000  -0.000  -0.000  -0.006   0.006   0.000  -0.000   0.000   0.000  -0.000  -0.000   0.000   0.000   0.000
  0.033  -0.033  -0.000  -0.000   0.000  -0.011  -0.000   0.000  -0.000   0.000   0.000  -0.000   0.000   0.000
 total augmentation occupancy for first ion, spin component:           2
 -0.000   0.000   0.000   0.000  -0.000  -0.000  -0.000   0.000  -0.000   0.000   0.000  -0.000  -0.000   0.000
  0.000  -0.000  -0.000  -0.000   0.000   0.000   0.000   0.000   0.000  -0.000  -0.000   0.000   0.000  -0.000
  0.000  -0.000  -0.000  -0.000   0.000  -0.000  -0.000   0.000  -0.000  -0.000  -0.000  -0.000   0.000   0.000
  0.000  -0.000  -0.000  -0.000   0.000   0.000   0.000  -0.000  -0.000  -0.000  -0.000   0.000   0.000  -0.000
 -0.000   0.000   0.000   0.000  -0.000  -0.000  -0.000  -0.000   0.000  -0.000   0.000   0.000  -0.000   0.000
 -0.000   0.000  -0.000   0.000  -0.000  -0.000  -0.000   0.000   0.000   0.000   0.000   0.000  -0.000  -0.000
 -0.000   0.000  -0.000   0.000  -0.000  -0.000   0.000  -0.000  -0.000   0.000   0.000  -0.000  -0.000   0.000
  0.000   0.000   0.000  -0.000  -0.000   0.000  -0.000  -0.000   0.000   0.000   0.000  -0.000  -0.000   0.000
 -0.000   0.000  -0.000  -0.000   0.000   0.000  -0.000   0.000   0.000  -0.000   0.000  -0.000   0.000  -0.000
  0.000  -0.000  -0.000  -0.000  -0.000   0.000   0.000   0.000  -0.000  -0.000  -0.000  -0.000   0.000   0.000
  0.000  -0.000  -0.000  -0.000   0.000   0.000   0.000   0.000   0.000  -0.000  -0.000  -0.000   0.000  -0.000
 -0.000   0.000  -0.000   0.000   0.000   0.000  -0.000  -0.000  -0.000  -0.000  -0.000   0.000   0.000  -0.000
 -0.000   0.000   0.000   0.000  -0.000  -0.000  -0.000  -0.000   0.000   0.000   0.000   0.000  -0.000   0.000
  0.000  -0.000   0.000  -0.000   0.000  -0.000   0.000   0.000  -0.000   0.000  -0.000  -0.000   0.000   0.000


------------------------ aborting loop because EDIFF is reached ----------------------------------------


    CHARGE:  cpu time      0.1402: real time      0.1434
    FORLOC:  cpu time      0.0050: real time      0.0050
    FORNL :  cpu time      0.3628: real time      0.3657
    STRESS:  cpu time      1.0770: real time      1.0854
    FORCOR:  cpu time      0.0662: real time      0.0667
    FORHAR:  cpu time      0.0110: real time      0.0111
    MIXING:  cpu time      0.0010: real time      0.0010
    OFIELD:  cpu time      0.0000: real time      0.0000

 ---------------------------------------------------------------------------------------------

         DFTD3 V3.0 Rev 1        
 Edisp (eV)  -12.06989

 E6    (eV) :    -7.4326
 E8    (eV) :    -4.6373
 % E8        : 38.42
    FORVDW:  cpu time      0.2850: real time      0.2875

  FORCE on cell =-STRESS in cart. coord.  units (eV):
  Direction    XX          YY          ZZ          XY          YZ          ZX
  --------------------------------------------------------------------------------------
  Alpha Z   269.00052   269.00052   269.00052
  Ewald   -2756.73277 -2758.00794 -2756.73277    -0.06837    -0.06837     1.17190
  Hartree   845.48636   844.75475   845.48636    -0.03770    -0.03770     0.67619
  E(xc)    -946.79193  -946.79156  -946.79193     0.00004     0.00004    -0.00053
  Local   -1763.75963 -1761.60607 -1763.75963     0.10834     0.10834    -1.90447
  n-local  1480.95329  1480.86336  1480.95325     0.28724    -0.29432     0.05992
  augment  -356.04785  -356.01983  -356.04785     0.00072     0.00073    -0.01145
  Kinetic  3240.13896  3239.83031  3240.13898     0.51354    -0.52585     0.09932
  Fock        0.00000     0.00000     0.00000     0.00000     0.00000     0.00000
  vdW       -12.82308   -12.82339   -12.82308     0.00003     0.00003    -0.00034
  -------------------------------------------------------------------------------------
  Total      -0.57614    -0.79985    -0.57614    -0.00663    -0.00663     0.09055
  in kB      -0.91472    -1.26991    -0.91472    -0.01052    -0.01052     0.14377
  external pressure =       -1.03 kB  Pullay stress =        0.00 kB


 VOLUME and BASIS-vectors are now :
 -----------------------------------------------------------------------------
  energy-cutoff  :      520.00
  volume of cell :     1009.13
      direct lattice vectors                 reciprocal lattice vectors
    10.030353572  0.000000000  0.000000000     0.099697383  0.000000000  0.000000000
     0.000000000 10.030353572  0.000000000     0.000000000  0.099697383  0.000000000
     0.000000000  0.000000000 10.030353572     0.000000000  0.000000000  0.099697383

  length of vectors
    10.030353572 10.030353572 10.030353572     0.099697383  0.099697383  0.099697383


 FORCES acting on ions
    electron-ion (+dipol)            ewald-force                    non-local-force                 convergence-correction
 -----------------------------------------------------------------------------------------------
   -.688E+01 -.694E-01 0.696E-01   0.617E+01 0.642E-01 -.632E-01   0.699E+00 0.433E-02 -.559E-02   -.103E-02 -.398E-03 0.142E-03
   -.686E+01 0.133E-01 -.279E-01   0.616E+01 -.141E-01 0.237E-01   0.696E+00 -.182E-03 0.499E-02   -.145E-03 0.437E-04 -.275E-03
   0.689E+01 -.636E-01 -.431E-01   -.619E+01 0.595E-01 0.384E-01   -.700E+00 0.335E-02 0.377E-02   0.138E-02 -.505E-03 0.219E-03
   0.685E+01 0.248E-01 0.120E-01   -.615E+01 -.254E-01 -.101E-01   -.695E+00 -.621E-03 -.270E-02   0.299E-03 0.940E-04 0.182E-03
   0.782E-01 -.555E-01 -.687E+01   -.713E-01 0.518E-01 0.616E+01   -.645E-02 0.270E-02 0.698E+00   0.427E-03 -.353E-03 -.106E-02
   0.201E-02 0.386E-01 0.686E+01   -.901E-03 -.388E-01 -.616E+01   -.176E-02 -.136E-02 -.695E+00   0.421E-04 0.404E-03 0.857E-04
   -.636E-01 -.601E-01 0.688E+01   0.572E-01 0.557E-01 -.617E+01   0.591E-02 0.346E-02 -.699E+00   -.259E-03 -.344E-03 0.125E-02
   -.275E-01 0.183E-01 -.687E+01   0.228E-01 -.189E-01 0.617E+01   0.539E-02 -.517E-03 0.697E+00   -.464E-04 0.160E-03 -.391E-03
   -.656E-02 -.685E+01 -.602E-03   0.599E-02 0.615E+01 0.646E-03   0.632E-03 0.692E+00 0.106E-03   -.140E-03 -.103E-02 -.565E-04
   -.606E-02 0.666E+01 -.605E-02   0.802E-02 -.597E+01 0.802E-02   -.241E-02 -.691E+00 -.241E-02   -.780E-04 -.459E-02 -.780E-04
   -.599E-03 -.685E+01 -.656E-02   0.646E-03 0.615E+01 0.599E-02   0.106E-03 0.692E+00 0.632E-03   -.565E-04 -.103E-02 -.140E-03
   0.460E-02 0.666E+01 0.460E-02   -.293E-02 -.597E+01 -.293E-02   -.166E-02 -.692E+00 -.166E-02   0.614E-04 -.459E-02 0.614E-04
   -.279E-01 0.133E-01 -.686E+01   0.237E-01 -.141E-01 0.616E+01   0.499E-02 -.182E-03 0.696E+00   -.275E-03 0.437E-04 -.145E-03
   -.431E-01 -.636E-01 0.689E+01   0.384E-01 0.595E-01 -.619E+01   0.377E-02 0.335E-02 -.700E+00   0.219E-03 -.505E-03 0.138E-02
   0.120E-01 0.248E-01 0.685E+01   -.101E-01 -.254E-01 -.615E+01   -.270E-02 -.621E-03 -.695E+00   0.182E-03 0.940E-04 0.299E-03
   0.696E-01 -.694E-01 -.688E+01   -.632E-01 0.642E-01 0.617E+01   -.559E-02 0.433E-02 0.699E+00   0.142E-03 -.398E-03 -.103E-02
   -.960E-02 -.675E+01 -.960E-02   0.924E-02 0.606E+01 0.924E-02   0.320E-03 0.688E+00 0.320E-03   0.651E-04 0.212E-03 0.651E-04
   -.601E-03 0.687E+01 0.410E-02   0.846E-03 -.618E+01 -.458E-02   0.440E-04 -.689E+00 0.786E-03   -.133E-03 -.987E-03 0.492E-04
   0.275E-02 -.674E+01 0.275E-02   -.277E-02 0.605E+01 -.277E-02   -.348E-04 0.687E+00 -.348E-04   0.670E-04 0.184E-03 0.670E-04
   0.409E-02 0.687E+01 -.598E-03   -.458E-02 -.618E+01 0.846E-03   0.786E-03 -.689E+00 0.440E-04   0.492E-04 -.987E-03 -.133E-03
   -.687E+01 -.555E-01 0.782E-01   0.616E+01 0.518E-01 -.713E-01   0.698E+00 0.270E-02 -.645E-02   -.106E-02 -.353E-03 0.427E-03
   -.687E+01 0.183E-01 -.275E-01   0.617E+01 -.189E-01 0.228E-01   0.697E+00 -.517E-03 0.539E-02   -.391E-03 0.160E-03 -.464E-04
   0.688E+01 -.601E-01 -.636E-01   -.617E+01 0.557E-01 0.572E-01   -.699E+00 0.346E-02 0.591E-02   0.125E-02 -.344E-03 -.259E-03
   0.686E+01 0.386E-01 0.201E-02   -.616E+01 -.388E-01 -.901E-03   -.695E+00 -.136E-02 -.176E-02   0.857E-04 0.404E-03 0.421E-04
   -.512E-03 -.235E-01 -.666E-02   0.191E-02 0.149E-01 0.731E-02   -.146E-02 0.444E-03 -.923E-03   -.312E-03 0.254E-02 -.117E-03
   0.127E-01 -.216E+00 0.127E-01   -.134E-01 0.205E+00 -.134E-01   0.127E-02 0.982E-02 0.127E-02   0.225E-03 0.159E-02 0.225E-03
   -.666E-02 -.235E-01 -.512E-03   0.731E-02 0.149E-01 0.191E-02   -.923E-03 0.444E-03 -.146E-02   -.117E-03 0.254E-02 -.312E-03
   0.237E-01 -.218E+00 0.237E-01   -.231E-01 0.206E+00 -.231E-01   0.842E-04 0.126E-01 0.842E-04   0.770E-04 0.154E-02 0.770E-04
   -.451E+02 0.452E+02 -.451E+02   0.484E+02 -.485E+02 0.484E+02   -.328E+01 0.332E+01 -.328E+01   0.308E-02 -.498E-02 0.308E-02
   -.452E+02 -.453E+02 0.451E+02   0.485E+02 0.486E+02 -.484E+02   -.330E+01 -.331E+01 0.329E+01   -.510E-02 -.216E-02 0.474E-02
   0.451E+02 0.451E+02 0.451E+02   -.484E+02 -.484E+02 -.484E+02   0.328E+01 0.332E+01 0.328E+01   -.306E-02 -.484E-02 -.306E-02
   0.451E+02 -.453E+02 -.452E+02   -.484E+02 0.486E+02 0.485E+02   0.329E+01 -.331E+01 -.330E+01   0.474E-02 -.216E-02 -.510E-02
   0.452E+02 -.449E+02 -.452E+02   -.485E+02 0.482E+02 0.485E+02   0.330E+01 -.330E+01 -.330E+01   0.231E-02 0.381E-02 -.204E-02
   0.452E+02 0.453E+02 0.452E+02   -.485E+02 -.486E+02 -.485E+02   0.329E+01 0.329E+01 0.329E+01   -.546E-03 0.150E-02 -.444E-03
   -.452E+02 -.449E+02 0.452E+02   0.485E+02 0.482E+02 -.485E+02   -.330E+01 -.330E+01 0.330E+01   -.205E-02 0.386E-02 0.207E-02
   -.452E+02 0.453E+02 -.452E+02   0.485E+02 -.486E+02 0.485E+02   -.329E+01 0.329E+01 -.329E+01   0.142E-02 0.494E-03 0.119E-02
   -.452E+02 -.453E+02 0.451E+02   0.485E+02 0.486E+02 -.484E+02   -.330E+01 -.331E+01 0.329E+01   -.503E-02 -.164E-02 0.466E-02
   -.451E+02 0.452E+02 -.451E+02   0.484E+02 -.485E+02 0.484E+02   -.328E+01 0.332E+01 -.328E+01   0.234E-02 -.381E-02 0.234E-02
   0.451E+02 -.453E+02 -.452E+02   -.484E+02 0.486E+02 0.485E+02   0.329E+01 -.331E+01 -.330E+01   0.466E-02 -.164E-02 -.503E-02
   0.451E+02 0.451E+02 0.451E+02   -.484E+02 -.484E+02 -.484E+02   0.329E+01 0.331E+01 0.329E+01   -.371E-02 -.459E-02 -.371E-02
   -.452E+02 -.449E+02 0.452E+02   0.485E+02 0.482E+02 -.485E+02   -.330E+01 -.330E+01 0.330E+01   -.204E-02 0.381E-02 0.231E-02
   -.452E+02 0.453E+02 -.452E+02   0.485E+02 -.486E+02 0.485E+02   -.329E+01 0.329E+01 -.329E+01   0.119E-02 0.494E-03 0.142E-02
   0.452E+02 -.449E+02 -.452E+02   -.485E+02 0.482E+02 0.485E+02   0.330E+01 -.330E+01 -.330E+01   0.207E-02 0.386E-02 -.205E-02
   0.452E+02 0.453E+02 0.452E+02   -.485E+02 -.486E+02 -.485E+02   0.329E+01 0.329E+01 0.329E+01   -.444E-03 0.150E-02 -.546E-03
   0.222E-01 0.234E-02 0.137E-01   -.233E-01 0.223E-02 -.142E-01   0.104E-02 -.409E-02 0.651E-03   0.720E-04 -.111E-02 -.182E-03
   -.413E-02 0.200E-01 -.413E-02   0.483E-02 -.331E-01 0.483E-02   -.922E-03 0.234E-01 -.922E-03   0.736E-04 -.485E-02 0.736E-04
   0.137E-01 0.234E-02 0.222E-01   -.142E-01 0.223E-02 -.233E-01   0.651E-03 -.409E-02 0.104E-02   -.182E-03 -.111E-02 0.720E-04
   -.194E-01 0.742E-02 -.194E-01   0.203E-01 -.184E-01 0.203E-01   -.134E-02 0.208E-01 -.134E-02   0.348E-03 -.474E-02 0.348E-03
   -.114E-01 -.240E+00 -.263E-02   0.126E-01 0.242E+00 0.362E-02   -.186E-02 0.625E-03 -.114E-02   0.659E-03 -.285E-02 0.223E-03
   0.145E-01 0.171E+00 0.145E-01   -.149E-01 -.170E+00 -.149E-01   0.673E-03 -.524E-02 0.673E-03   -.173E-03 0.341E-02 -.173E-03
   -.263E-02 -.240E+00 -.114E-01   0.362E-02 0.242E+00 0.126E-01   -.114E-02 0.625E-03 -.186E-02   0.223E-03 -.285E-02 0.659E-03
   0.646E-02 0.228E+00 0.646E-02   -.611E-02 -.231E+00 -.611E-02   -.109E-03 0.834E-03 -.109E-03   -.192E-03 0.163E-02 -.192E-03
 -----------------------------------------------------------------------------------------------
   0.314E-02 -.103E+00 0.315E-02   -.659E-13 0.246E-13 -.391E-13   -.944E-04 0.517E-01 -.944E-04   0.117E-02 -.254E-01 0.117E-02
 
 
 POSITION                                       TOTAL-FORCE (eV/Angst)
 -----------------------------------------------------------------------------------
      9.79715      2.50713      2.50681         0.000174      0.000149      0.000820
      9.79628      7.52308      7.52381         0.000162      0.000537      0.000514
      0.23334      2.50795      7.52330        -0.000234      0.000180     -0.000858
      0.23413      7.52310      2.50728        -0.000164      0.000415     -0.000677
      2.50642      2.50690      9.79685         0.000766      0.000191      0.000230
      2.50790      7.52350      0.23366        -0.000698      0.000285     -0.000105
      7.52404      2.50714      0.23372        -0.000823      0.000218     -0.000372
      7.52346      7.52311      9.79664         0.000494      0.000471      0.000157
      2.50792      9.80019      2.50774        -0.000162      0.006573      0.000012
      2.50605      0.22738      7.52122        -0.000592     -0.004943     -0.000592
      7.52292      9.80019      7.52310         0.000012      0.006573     -0.000162
      7.52216      0.22643      2.50699        -0.000006     -0.006046     -0.000006
      2.50863      7.52308      4.78111         0.000514      0.000537      0.000162
      2.50812      2.50795      5.24852        -0.000858      0.000180     -0.000234
      7.52246      7.52310      5.24931        -0.000677      0.000415     -0.000164
      7.52199      2.50713      4.78198         0.000820      0.000149      0.000174
      2.50774      4.78040      7.52292        -0.000053      0.002240     -0.000053
      2.50791      5.24796      2.50757         0.000072     -0.000455      0.000277
      7.52294      4.77973      2.50776        -0.000068      0.002279     -0.000068
      7.52275      5.24796      7.52309         0.000277     -0.000455      0.000072
      4.78168      2.50690      7.52160         0.000230      0.000191      0.000766
      4.78147      7.52311      2.50828         0.000157      0.000471      0.000494
      5.24890      2.50714      2.50886        -0.000372      0.000218     -0.000823
      5.24883      7.52350      7.52308        -0.000105      0.000285     -0.000698
      5.01542      5.01732      5.01536        -0.000457     -0.004113     -0.000464
      5.01476      0.00082     10.02993         0.000728      0.001800      0.000728
      0.00018      5.01732      0.00025        -0.000464     -0.004113     -0.000457
     10.02997     10.03034      5.01479         0.000657      0.002981      0.000657
      1.18217      8.84370      6.19735         0.003916      0.002418      0.003916
      1.18354      1.18532      3.83172         0.000064     -0.003266     -0.000050
      8.84693      8.84449      3.83175        -0.002629      0.003034     -0.002629
      8.84689      1.18532      6.19871        -0.000050     -0.003266      0.000064
      8.84605      6.20077      1.18480         0.001006     -0.004000     -0.001231
      8.84691      3.83251      8.84710        -0.002646     -0.001352     -0.002759
      1.18463      6.20099      8.84624        -0.001306     -0.003977      0.001013
      1.18375      3.83236      1.18367         0.002601     -0.001464      0.002685
      6.19885      1.18605      8.84685        -0.000337     -0.003602      0.000179
      6.19724      8.84443      1.18207         0.003740      0.001983      0.003740
      3.83167      1.18605      1.18367         0.000179     -0.003602     -0.000337
      3.83135      8.84612      8.84653        -0.002860      0.001633     -0.002860
      6.19997      6.20077      3.83087        -0.001231     -0.004000      0.001006
      6.19885      3.83236      6.19893         0.002685     -0.001464      0.002601
      3.83106      6.20099      6.19980         0.001013     -0.003977     -0.001306
      3.83192      3.83251      3.83173        -0.002759     -0.001352     -0.002646
      7.52261      7.52401      7.52298        -0.000047      0.000867     -0.000108
      7.52300      2.50300      2.50783        -0.000215      0.006840     -0.000215
      2.50780      7.52401      2.50743        -0.000108      0.000867     -0.000047
      2.50750      2.50378      7.52268        -0.000194      0.006391     -0.000194
     10.03025     10.02927     10.03032        -0.000072      0.001150      0.000006
      0.00024      5.01546      5.01542        -0.000052      0.000933     -0.000052
      5.01514     10.02927      5.01507         0.000006      0.001150     -0.000072
      5.01533      5.01616      0.00015        -0.000034      0.000844     -0.000034
 -----------------------------------------------------------------------------------
    total drift:                                0.004218     -0.076203      0.004218


--------------------------------------------------------------------------------------------------------



  FREE ENERGIE OF THE ION-ELECTRON SYSTEM (eV)
  ---------------------------------------------------
  free  energy   TOTEN  =      -268.23400365 eV

  energy  without entropy=     -268.23400365  energy(sigma->0) =     -268.23400365
 
 d Force = 0.5164179E-04[ 0.232E-05, 0.101E-03]  d Energy = 0.6962633E-04-0.180E-04
 d Force =-0.2587517E-02[-0.275E-02,-0.243E-02]  d Ewald  =-0.2587538E-02 0.214E-07


--------------------------------------------------------------------------------------------------------


    POTLOK:  cpu time      0.4730: real time      0.4747


--------------------------------------------------------------------------------------------------------


 stress matrix after NEB project (eV)
     -0.57614     -0.00663      0.09055
     -0.00663     -0.79985     -0.00663
      0.09055     -0.00663     -0.57614
  FORCES: max atom, RMS     0.006847    0.003423
  FORCE total and by dimension    0.024686    0.006840
  Stress total and by dimension    1.149005    0.799853
 Quasi-Newton relaxation of ions (Broydens 2nd method)
  g(Force)  = 0.294E-04   g(Stress)= 0.000E+00

 retain information from N=  2 steps
 eigenvalues of (default step * inverse Hessian matrix)
  average eigenvalue of G=   0.4183
 eigenvalue spectrum of G is  0.4183  0.4183


--------------------------------------------------------------------------------------------------------


  
 reached required accuracy - stopping structural energy minimisation
     LOOP+:  cpu time      9.2766: real time      9.4224
    4ORBIT:  cpu time      0.0000: real time      0.0000

 total amount of memory used by VASP MPI-rank0    50377. kBytes
=======================================================================

   base      :      30000. kBytes
   nonlr-proj:       7915. kBytes
   fftplans  :       2173. kBytes
   grid      :       6510. kBytes
   one-center:         62. kBytes
   wavefun   :       3717. kBytes
 
  
  
 General timing and accounting informations for this job:
 ========================================================
  
                  Total CPU time used (sec):       78.392
                            User time (sec):       76.735
                          System time (sec):        1.657
                         Elapsed time (sec):       82.949
  
                   Maximum memory used (kb):      439108.
                   Average memory used (kb):          N/A
  
                          Minor page faults:        75215
                          Major page faults:          132
                 Voluntary context switches:         7668
