<?xml version="1.0" encoding="ISO-8859-1"?>
<modeling>
 <generator>
  <i name="program" type="string">vasp </i>
  <i name="version" type="string">6.4.1  </i>
  <i name="subversion" type="string">05Apr23 (build Jun 07 2023 15:38:11) complex                          parallel </i>
  <i name="platform" type="string">LinuxIFC </i>
  <i name="date" type="string">2023 10 16 </i>
  <i name="time" type="string">16:05:55 </i>
 </generator>
 <incar>
  <i type="string" name="PREC">Accu</i>
  <i type="string" name="ALGO">F</i>
  <i type="logical" name="LDIAG"> T  </i>
  <i type="int" name="ISPIN">     2</i>
  <i type="int" name="NELM">   100</i>
  <i type="int" name="NELMDL">   -10</i>
  <i type="int" name="IBRION">     2</i>
  <i name="EDIFF">      0.00000100</i>
  <i name="EDIFFG">     -0.00100000</i>
  <i type="int" name="NSW">  1000</i>
  <i type="int" name="ISIF">     2</i>
  <i name="ENCUT">    520.00000000</i>
  <i name="POTIM">      0.20000000</i>
  <i type="string" name="LREAL">Auto</i>
  <i type="logical" name="LPLANE"> T  </i>
  <i type="int" name="ISMEAR">     0</i>
  <i name="SIGMA">      0.03000000</i>
  <i type="int" name="LMAXMIX">     4</i>
  <i type="logical" name="LWAVE"> F  </i>
  <i type="logical" name="LCHARG"> F  </i>
  <i type="logical" name="LASPH"> T  </i>
  <i type="string" name="GGA">PE</i>
  <i type="int" name="IVDW">    12</i>
 </incar>
 <primitive_cell>
  <structure name="primitive_cell" >
   <crystal>
    <varray name="basis" >
     <v>       9.87038597       0.00000000       0.00000000 </v>
     <v>       0.00000000       9.87038597       0.00000000 </v>
     <v>       0.00000000       0.00000000       9.87038597 </v>
    </varray>
    <i name="volume">    961.61760855 </i>
    <varray name="rec_basis" >
     <v>       0.10131316       0.00000000       0.00000000 </v>
     <v>       0.00000000       0.10131316       0.00000000 </v>
     <v>       0.00000000       0.00000000       0.10131316 </v>
    </varray>
   </crystal>
   <varray name="positions" >
    <v>       0.97545754       0.29218922       0.28680423 </v>
    <v>       0.98101112       0.79375403       0.80518605 </v>
    <v>       0.01672496       0.28361936       0.70775303 </v>
    <v>       0.03268072       0.82232091       0.18645421 </v>
    <v>       0.17846188       0.18355324       0.97211763 </v>
    <v>       0.29506697       0.70799043       0.02672963 </v>
    <v>       0.79956321       0.20299494       0.02112090 </v>
    <v>       0.71806719       0.71310242       0.98230015 </v>
    <v>       0.30747315       0.98065973       0.28645151 </v>
    <v>       0.23819861       0.01364214       0.73819861 </v>
    <v>       0.78645151       0.98065973       0.80747315 </v>
    <v>       0.75798978       0.02789344       0.25798978 </v>
    <v>       0.30518605       0.79375403       0.48101112 </v>
    <v>       0.20775303       0.28361936       0.51672496 </v>
    <v>       0.68645421       0.82232091       0.53268072 </v>
    <v>       0.78680423       0.29218922       0.47545754 </v>
    <v>       0.29649576       0.45883997       0.79649576 </v>
    <v>       0.19291217       0.53543370       0.30152741 </v>
    <v>       0.68932707       0.47635243       0.18932707 </v>
    <v>       0.80152741       0.53543370       0.69291217 </v>
    <v>       0.47211763       0.18355324       0.67846188 </v>
    <v>       0.48230015       0.71310242       0.21806719 </v>
    <v>       0.52112090       0.20299494       0.29956321 </v>
    <v>       0.52672963       0.70799043       0.79506697 </v>
    <v>       0.50065564       0.50016213       0.50258182 </v>
    <v>       0.49755572       0.00864482       0.99755572 </v>
    <v>       0.00258182       0.50016213       0.00065564 </v>
    <v>       0.99538856       0.99005443       0.49538856 </v>
    <v>       0.11167139       0.86571743       0.61167139 </v>
    <v>       0.11350661       0.10618329       0.37277527 </v>
    <v>       0.87852550       0.86763041       0.37852550 </v>
    <v>       0.87277527       0.10618329       0.61350661 </v>
    <v>       0.89073291       0.62011238       0.12466834 </v>
    <v>       0.87823184       0.38756471       0.88057500 </v>
    <v>       0.12506202       0.61469565       0.88031825 </v>
    <v>       0.12262699       0.37894928       0.11596805 </v>
    <v>       0.61254884       0.12876335       0.87681372 </v>
    <v>       0.61898386       0.89441629       0.11898386 </v>
    <v>       0.37681372       0.12876335       0.11254884 </v>
    <v>       0.38039515       0.88521123       0.88039515 </v>
    <v>       0.62466834       0.62011238       0.39073291 </v>
    <v>       0.61596805       0.37894928       0.62262699 </v>
    <v>       0.38031825       0.61469565       0.62506202 </v>
    <v>       0.38057500       0.38756471       0.37823184 </v>
    <v>       0.75218538       0.75554905       0.75370581 </v>
    <v>       0.74671352       0.25516560       0.24671352 </v>
    <v>       0.25370581       0.75554905       0.25218538 </v>
    <v>       0.24535768       0.23989093       0.74535768 </v>
    <v>       0.97818295       0.00168201       0.97571926 </v>
    <v>       0.99869448       0.42583542       0.49869448 </v>
    <v>       0.47571926       0.00168201       0.47818295 </v>
    <v>       0.51398056       0.57214573       0.01398056 </v>
   </varray>
  </structure>
  <varray name="primitive_index" >
   <v type="int" >        1 </v>
   <v type="int" >        2 </v>
   <v type="int" >        3 </v>
   <v type="int" >        4 </v>
   <v type="int" >        5 </v>
   <v type="int" >        6 </v>
   <v type="int" >        7 </v>
   <v type="int" >        8 </v>
   <v type="int" >        9 </v>
   <v type="int" >       10 </v>
   <v type="int" >       11 </v>
   <v type="int" >       12 </v>
   <v type="int" >       13 </v>
   <v type="int" >       14 </v>
   <v type="int" >       15 </v>
   <v type="int" >       16 </v>
   <v type="int" >       17 </v>
   <v type="int" >       18 </v>
   <v type="int" >       19 </v>
   <v type="int" >       20 </v>
   <v type="int" >       21 </v>
   <v type="int" >       22 </v>
   <v type="int" >       23 </v>
   <v type="int" >       24 </v>
   <v type="int" >       25 </v>
   <v type="int" >       26 </v>
   <v type="int" >       27 </v>
   <v type="int" >       28 </v>
   <v type="int" >       29 </v>
   <v type="int" >       30 </v>
   <v type="int" >       31 </v>
   <v type="int" >       32 </v>
   <v type="int" >       33 </v>
   <v type="int" >       34 </v>
   <v type="int" >       35 </v>
   <v type="int" >       36 </v>
   <v type="int" >       37 </v>
   <v type="int" >       38 </v>
   <v type="int" >       39 </v>
   <v type="int" >       40 </v>
   <v type="int" >       41 </v>
   <v type="int" >       42 </v>
   <v type="int" >       43 </v>
   <v type="int" >       44 </v>
   <v type="int" >       45 </v>
   <v type="int" >       46 </v>
   <v type="int" >       47 </v>
   <v type="int" >       48 </v>
   <v type="int" >       49 </v>
   <v type="int" >       50 </v>
   <v type="int" >       51 </v>
   <v type="int" >       52 </v>
  </varray>
 </primitive_cell>
 <kpoints>
  <generation param="Monkhorst-Pack">
   <v type="int" name="divisions">       2        2        2 </v>
   <v name="usershift">      0.00000000       0.00000000       0.00000000 </v>
   <v name="genvec1">      0.50000000       0.00000000       0.00000000 </v>
   <v name="genvec2">      0.00000000       0.50000000       0.00000000 </v>
   <v name="genvec3">      0.00000000       0.00000000       0.50000000 </v>
   <v name="shift">      0.50000000       0.50000000       0.50000000 </v>
  </generation>
  <varray name="kpointlist" >
   <v>       0.25000000       0.25000000       0.25000000 </v>
   <v>      -0.25000000       0.25000000       0.25000000 </v>
   <v>       0.25000000      -0.25000000       0.25000000 </v>
  </varray>
  <varray name="weights" >
   <v>       0.25000000 </v>
   <v>       0.50000000 </v>
   <v>       0.25000000 </v>
  </varray>
 </kpoints>
 <parameters>
  <separator name="general" >
   <i type="string" name="SYSTEM">unknown system</i>
   <i type="logical" name="LCOMPAT"> F  </i>
  </separator>
  <separator name="electronic" >
   <i type="string" name="PREC">accu</i>
   <i name="ENMAX">    520.00000000</i>
   <i name="ENAUG">   1041.69900000</i>
   <i name="EDIFF">      0.00000100</i>
   <i type="int" name="IALGO">    68</i>
   <i type="int" name="IWAVPR">    11</i>
   <i type="int" name="NBANDS">   176</i>
   <i type="int" name="NBANDSLOW">    -1</i>
   <i type="int" name="NBANDSHIGH">    -1</i>
   <i name="NELECT">    240.00000000</i>
   <i type="int" name="TURBO">     0</i>
   <i type="int" name="IRESTART">     0</i>
   <i type="int" name="NREBOOT">     0</i>
   <i type="int" name="NMIN">     0</i>
   <i name="EREF">      0.00000000</i>
   <separator name="electronic smearing" >
    <i type="int" name="ISMEAR">     0</i>
    <i name="SIGMA">      0.03000000</i>
    <i name="KSPACING">      0.50000000</i>
    <i type="logical" name="KGAMMA"> T  </i>
    <i type="logical" name="KBLOWUP"> T  </i>
   </separator>
   <separator name="electronic projectors" >
    <i type="logical" name="LREAL"> T  </i>
    <v name="ROPT">     -0.00025000     -0.00025000     -0.00025000     -0.00025000</v>
    <i type="int" name="LMAXPAW">  -100</i>
    <i type="int" name="LMAXMIX">     4</i>
    <i type="logical" name="NLSPLINE"> F  </i>
   </separator>
   <separator name="electronic startup" >
    <i type="int" name="ISTART">     0</i>
    <i type="int" name="ICHARG">     2</i>
    <i type="int" name="INIWAV">     1</i>
   </separator>
   <separator name="electronic spin" >
    <i type="int" name="ISPIN">     2</i>
    <i type="logical" name="LNONCOLLINEAR"> F  </i>
    <v name="MAGMOM">      1.00000000      1.00000000      1.00000000      1.00000000      1.00000000      1.00000000      1.00000000      1.00000000      1.00000000      1.00000000      1.00000000      1.00000000      1.00000000      1.00000000      1.00000000      1.00000000      1.00000000      1.00000000      1.00000000      1.00000000
      1.00000000      1.00000000      1.00000000      1.00000000      1.00000000      1.00000000      1.00000000      1.00000000      1.00000000      1.00000000      1.00000000      1.00000000      1.00000000      1.00000000      1.00000000      1.00000000      1.00000000      1.00000000      1.00000000      1.00000000
      1.00000000      1.00000000      1.00000000      1.00000000      1.00000000      1.00000000      1.00000000      1.00000000      1.00000000      1.00000000      1.00000000      1.00000000</v>
    <i name="NUPDOWN">     -1.00000000</i>
    <i type="logical" name="LSORBIT"> F  </i>
    <v name="SAXIS">      0.00000000      0.00000000      1.00000000</v>
    <i type="logical" name="LSPIRAL"> F  </i>
    <v name="QSPIRAL">      0.00000000      0.00000000      0.00000000</v>
    <i type="logical" name="LZEROZ"> F  </i>
   </separator>
   <separator name="electronic exchange-correlation" >
    <i type="logical" name="LASPH"> T  </i>
    <i type="logical" name="LMETAGGA"> F  </i>
   </separator>
   <separator name="electronic convergence" >
    <i type="int" name="NELM">   100</i>
    <i type="int" name="NELMDL">   -10</i>
    <i type="int" name="NELMIN">     2</i>
    <i name="ENINI">    520.00000000</i>
    <separator name="electronic convergence detail" >
     <i type="logical" name="LDIAG"> T  </i>
     <i type="logical" name="LSUBROT"> F  </i>
     <i name="WEIMIN">      0.00100000</i>
     <i name="EBREAK">      0.00000000</i>
     <i name="DEPER">      0.30000000</i>
     <i type="int" name="NRMM">     4</i>
     <i name="TIME">      0.40000000</i>
    </separator>
   </separator>
   <separator name="electronic mixer" >
    <i name="AMIX">      0.40000000</i>
    <i name="BMIX">      1.00000000</i>
    <i name="AMIN">      0.10000000</i>
    <i name="AMIX_MAG">      1.60000000</i>
    <i name="BMIX_MAG">      1.00000000</i>
    <separator name="electronic mixer details" >
     <i type="int" name="IMIX">     4</i>
     <i type="logical" name="MIXFIRST"> F  </i>
     <i type="int" name="MAXMIX">   -45</i>
     <i name="WC">    100.00000000</i>
     <i type="int" name="INIMIX">     1</i>
     <i type="int" name="MIXPRE">     1</i>
     <i type="int" name="MREMOVE">     5</i>
    </separator>
   </separator>
   <separator name="electronic dipolcorrection" >
    <i type="logical" name="LDIPOL"> F  </i>
    <i type="logical" name="LMONO"> F  </i>
    <i type="int" name="IDIPOL">     0</i>
    <i name="EPSILON">      1.00000000</i>
    <v name="DIPOL">   -100.00000000   -100.00000000   -100.00000000</v>
    <i name="EFIELD">      0.00000000</i>
   </separator>
  </separator>
  <separator name="grids" >
   <i type="int" name="NGX">    80</i>
   <i type="int" name="NGY">    80</i>
   <i type="int" name="NGZ">    80</i>
   <i type="int" name="NGXF">   160</i>
   <i type="int" name="NGYF">   160</i>
   <i type="int" name="NGZF">   160</i>
   <i type="logical" name="ADDGRID"> F  </i>
  </separator>
  <separator name="ionic" >
   <i type="int" name="NSW">  1000</i>
   <i type="int" name="IBRION">     2</i>
   <i type="int" name="MDALGO">     0</i>
   <i type="int" name="ISIF">     2</i>
   <i name="PSTRESS">      0.00000000</i>
   <i name="EDIFFG">     -0.00100000</i>
   <i type="int" name="NFREE">     1</i>
   <i name="POTIM">      0.20000000</i>
   <i name="SMASS">     -3.00000000</i>
   <i name="SCALEE">      1.00000000</i>
  </separator>
  <separator name="ionic md" >
   <i name="TEBEG">      0.00010000</i>
   <i name="TEEND">      0.00010000</i>
   <i type="int" name="NBLOCK">     1</i>
   <i type="int" name="KBLOCK">  1000</i>
   <i type="int" name="NPACO">   256</i>
   <i name="APACO">     10.00000000</i>
  </separator>
  <separator name="symmetry" >
   <i type="int" name="ISYM">     2</i>
   <i name="SYMPREC">      0.00001000</i>
  </separator>
  <separator name="dos" >
   <i type="int" name="LORBIT">     0</i>
   <v name="RWIGS">     -1.00000000     -1.00000000     -1.00000000     -1.00000000</v>
   <i type="int" name="NEDOS">   301</i>
   <i name="EMIN">     10.00000000</i>
   <i name="EMAX">    -10.00000000</i>
   <i name="EFERMI">      0.00000000</i>
  </separator>
  <separator name="writing" >
   <i type="int" name="NWRITE">     2</i>
   <i type="logical" name="LWAVE"> F  </i>
   <i type="logical" name="LDOWNSAMPLE"> F  </i>
   <i type="logical" name="LCHARG"> F  </i>
   <i type="logical" name="LPARD"> F  </i>
   <i type="logical" name="LVTOT"> F  </i>
   <i type="logical" name="LVHAR"> F  </i>
   <i type="logical" name="LELF"> F  </i>
   <i type="logical" name="LOPTICS"> F  </i>
   <v name="STM">      0.00000000      0.00000000      0.00000000      0.00000000      0.00000000      0.00000000      0.00000000</v>
  </separator>
  <separator name="performance" >
   <i type="int" name="NPAR">     4</i>
   <i type="int" name="NSIM">     4</i>
   <i type="int" name="NBLK">    -1</i>
   <i type="logical" name="LPLANE"> T  </i>
   <i type="logical" name="LSCALAPACK"> T  </i>
   <i type="logical" name="LSCAAWARE"> F  </i>
   <i type="logical" name="LSCALU"> F  </i>
   <i type="logical" name="LASYNC"> F  </i>
   <i type="logical" name="LORBITALREAL"> F  </i>
  </separator>
  <separator name="miscellaneous" >
   <i type="int" name="IDIOT">     3</i>
   <i type="int" name="PHON_NSTRUCT">    -1</i>
   <i type="logical" name="LMUSIC"> F  </i>
   <v name="POMASS">      7.01000000     30.97400000     32.06600000     35.45300000</v>
   <v name="DARWINR">      0.00000000      0.00000000      0.00000000      0.00000000</v>
   <v name="DARWINV">      1.00000000      1.00000000      1.00000000      1.00000000</v>
   <i type="logical" name="LCORR"> T  </i>
  </separator>
  <i type="logical" name="GGA_COMPAT"> T  </i>
  <i type="logical" name="LBERRY"> F  </i>
  <i type="int" name="ICORELEVEL">     0</i>
  <i type="logical" name="LDAU"> F  </i>
  <i type="int" name="I_CONSTRAINED_M">     0</i>
  <separator name="electronic exchange-correlation" >
   <i type="string" name="GGA">PE</i>
   <i type="int" name="VOSKOWN">     0</i>
   <i type="logical" name="LHFCALC"> F  </i>
   <i type="string" name="PRECFOCK"></i>
   <i type="logical" name="LSYMGRAD"> F  </i>
   <i type="logical" name="LHFONE"> F  </i>
   <i type="logical" name="LRHFCALC"> F  </i>
   <i type="logical" name="LTHOMAS"> F  </i>
   <i type="logical" name="LMODELHF"> F  </i>
   <i type="logical" name="LFOCKACE"> F  </i>
   <i name="ENCUT4O">     -1.00000000</i>
   <i type="int" name="EXXOEP">     0</i>
   <i type="int" name="FOURORBIT">     0</i>
   <i name="AEXX">      0.00000000</i>
   <i name="HFALPHA">      0.00000000</i>
   <i name="MCALPHA">      0.00000000</i>
   <i name="ALDAX">      1.00000000</i>
   <i name="AGGAX">      1.00000000</i>
   <i name="ALDAC">      1.00000000</i>
   <i name="AGGAC">      1.00000000</i>
   <i type="int" name="NKREDX">     1</i>
   <i type="int" name="NKREDY">     1</i>
   <i type="int" name="NKREDZ">     1</i>
   <i type="logical" name="SHIFTRED"> F  </i>
   <i type="logical" name="ODDONLY"> F  </i>
   <i type="logical" name="EVENONLY"> F  </i>
   <i type="int" name="LMAXFOCK">     0</i>
   <i type="int" name="NMAXFOCKAE">     0</i>
   <i type="logical" name="LFOCKAEDFT"> F  </i>
   <i name="HFSCREEN">      0.00000000</i>
   <i name="HFSCREENC">      0.00000000</i>
   <i type="int" name="NBANDSGWLOW">     0</i>
  </separator>
  <separator name="vdW DFT" >
   <i type="logical" name="LUSE_VDW"> F  </i>
   <i type="int" name="IVDW_NL">     1</i>
   <i type="logical" name="LSPIN_VDW"> F  </i>
   <i name="Zab_VDW">     -0.84910000</i>
   <i name="PARAM1">      0.12340000</i>
   <i name="PARAM2">      1.00000000</i>
   <i name="PARAM3">      0.00000000</i>
  </separator>
  <separator name="model GW" >
   <i type="int" name="MODEL_GW">     0</i>
   <i name="MODEL_EPS0">     11.09558779</i>
   <i name="MODEL_ALPHA">      1.00000000</i>
  </separator>
  <separator name="linear response parameters" >
   <i type="logical" name="LEPSILON"> F  </i>
   <i type="logical" name="LRPA"> F  </i>
   <i type="logical" name="LNABLA"> F  </i>
   <i type="logical" name="LVEL"> F  </i>
   <i name="CSHIFT">      0.10000000</i>
   <i name="OMEGAMAX">     -1.00000000</i>
   <i name="DEG_THRESHOLD">      0.00200000</i>
   <i name="RTIME">     -0.10000000</i>
   <i name="WPLASMAI">      0.00000000</i>
   <v name="DFIELD">      0.00000000      0.00000000      0.00000000</v>
   <v name="WPLASMA">      0.00000000      0.00000000      0.00000000      0.00000000      0.00000000      0.00000000      0.00000000      0.00000000      0.00000000</v>
  </separator>
  <separator name="orbital magnetization" >
   <i type="logical" name="NUCIND"> F  </i>
   <v name="MAGPOS">      0.00000000      0.00000000      0.00000000</v>
   <i type="logical" name="LNICSALL"> T  </i>
   <i type="logical" name="ORBITALMAG"> F  </i>
   <i type="logical" name="LMAGBLOCH"> F  </i>
   <i type="logical" name="LCHIMAG"> F  </i>
   <i type="logical" name="LGAUGE"> T  </i>
   <i type="int" name="MAGATOM">     0</i>
   <v name="MAGDIPOL">      0.00000000      0.00000000      0.00000000</v>
   <v name="AVECCONST">      0.00000000      0.00000000      0.00000000</v>
  </separator>
  <separator name="response functions" >
   <i type="logical" name="LALL_IN_ONE"> F  </i>
   <i type="int" name="IALL_IN_ONE">    -1</i>
   <i type="int" name="NBANDS_WAVE">    -1</i>
   <i type="logical" name="LFINITE_TEMPERATURE"> F  </i>
   <i type="logical" name="LADDER"> F  </i>
   <i type="logical" name="LRPAFORCE"> F  </i>
   <i type="logical" name="LFXC"> F  </i>
   <i type="logical" name="LHARTREE"> T  </i>
   <i type="int" name="IBSE">     0</i>
   <v type="int" name="KPOINT">    -1     0     0     0</v>
   <i type="logical" name="LTCTC"> F  </i>
   <i type="logical" name="LTCTE"> F  </i>
   <i type="logical" name="LTETE"> F  </i>
   <i type="logical" name="LTRIPLET"> F  </i>
   <i type="logical" name="LFXCEPS"> F  </i>
   <i type="logical" name="LFXHEG"> F  </i>
   <i type="int" name="NATURALO">     2</i>
   <i type="logical" name="LHOLEGF"> F  </i>
   <i type="logical" name="L2ORDER"> F  </i>
   <i type="logical" name="LDMP1"> F  </i>
   <i type="logical" name="LMP2LT"> F  </i>
   <i type="logical" name="LSMP2LT"> F  </i>
   <i type="logical" name="LGWLF"> F  </i>
   <i name="ENCUTGW">     -1.60000002</i>
   <i name="ENCUTGWSOFT">     -1.60000002</i>
   <i name="ENCUTLF">     -1.00000000</i>
   <i type="logical" name="LESF_SPLINES"> F  </i>
   <i type="int" name="LMAXMP2">    -1</i>
   <i name="SCISSOR">      0.00000000</i>
   <i type="int" name="NOMEGA">     0</i>
   <i type="int" name="NOMEGAR">     0</i>
   <i type="int" name="NBANDSGW">    -1</i>
   <i type="int" name="NBANDSO">    -1</i>
   <i type="int" name="NBANDSV">    -1</i>
   <i type="int" name="NELMGW">     1</i>
   <i type="int" name="NELMHF">     1</i>
   <i type="int" name="DIM">     3</i>
   <i type="int" name="IESPILON">     4</i>
   <i type="int" name="ANTIRES">     0</i>
   <i name="OMEGAMAX">    -30.00000000</i>
   <i name="OMEGAMIN">    -30.00000000</i>
   <i name="OMEGATL">   -200.00000000</i>
   <i type="int" name="OMEGAGRID">     0</i>
   <i name="CSHIFT">     -0.10000000</i>
   <i type="logical" name="LSELFENERGY"> F  </i>
   <i type="logical" name="LSPECTRAL"> F  </i>
   <i type="logical" name="LSPECTRALGW"> F  </i>
   <i type="logical" name="LSINGLES"> F  </i>
   <i type="logical" name="LFERMIGW"> F  </i>
   <i type="logical" name="ODDONLYGW"> F  </i>
   <i type="logical" name="EVENONLYGW"> F  </i>
   <i type="int" name="NKREDLFX">     1</i>
   <i type="int" name="NKREDLFY">     1</i>
   <i type="int" name="NKREDLFZ">     1</i>
   <i type="int" name="MAXMEM">  2800</i>
   <i type="int" name="TELESCOPE">     0</i>
   <i type="int" name="NTAUPAR">    -1</i>
   <i type="int" name="NOMEGAPAR">    -1</i>
   <i name="DAMP_NEWTON">      0.80000001</i>
   <i name="LAMBDA">      1.00000000</i>
  </separator>
  <separator name="External order field" >
   <i name="OFIELD_KAPPA">      0.00000000</i>
   <v name="OFIELD_K">      0.00000000      0.00000000      0.00000000</v>
   <i name="OFIELD_Q6_NEAR">      0.00000000</i>
   <i name="OFIELD_Q6_FAR">      0.00000000</i>
   <i name="OFIELD_A">      0.00000000</i>
  </separator>
  <separator name="optional k-points parameters" >
   <i type="int" name="KPOINTS_OPT_MODE">     1</i>
   <i type="logical" name="LKPOINTS_OPT"> F  </i>
  </separator>
 </parameters>
 <atominfo>
  <atoms>      52 </atoms>
  <types>       4 </types>
  <array name="atoms" >
   <dimension dim="1">ion</dimension>
   <field type="string">element</field>
   <field type="int">atomtype</field>
   <set>
    <rc><c>Li</c><c>   1</c></rc>
    <rc><c>Li</c><c>   1</c></rc>
    <rc><c>Li</c><c>   1</c></rc>
    <rc><c>Li</c><c>   1</c></rc>
    <rc><c>Li</c><c>   1</c></rc>
    <rc><c>Li</c><c>   1</c></rc>
    <rc><c>Li</c><c>   1</c></rc>
    <rc><c>Li</c><c>   1</c></rc>
    <rc><c>Li</c><c>   1</c></rc>
    <rc><c>Li</c><c>   1</c></rc>
    <rc><c>Li</c><c>   1</c></rc>
    <rc><c>Li</c><c>   1</c></rc>
    <rc><c>Li</c><c>   1</c></rc>
    <rc><c>Li</c><c>   1</c></rc>
    <rc><c>Li</c><c>   1</c></rc>
    <rc><c>Li</c><c>   1</c></rc>
    <rc><c>Li</c><c>   1</c></rc>
    <rc><c>Li</c><c>   1</c></rc>
    <rc><c>Li</c><c>   1</c></rc>
    <rc><c>Li</c><c>   1</c></rc>
    <rc><c>Li</c><c>   1</c></rc>
    <rc><c>Li</c><c>   1</c></rc>
    <rc><c>Li</c><c>   1</c></rc>
    <rc><c>Li</c><c>   1</c></rc>
    <rc><c>P </c><c>   2</c></rc>
    <rc><c>P </c><c>   2</c></rc>
    <rc><c>P </c><c>   2</c></rc>
    <rc><c>P </c><c>   2</c></rc>
    <rc><c>S </c><c>   3</c></rc>
    <rc><c>S </c><c>   3</c></rc>
    <rc><c>S </c><c>   3</c></rc>
    <rc><c>S </c><c>   3</c></rc>
    <rc><c>S </c><c>   3</c></rc>
    <rc><c>S </c><c>   3</c></rc>
    <rc><c>S </c><c>   3</c></rc>
    <rc><c>S </c><c>   3</c></rc>
    <rc><c>S </c><c>   3</c></rc>
    <rc><c>S </c><c>   3</c></rc>
    <rc><c>S </c><c>   3</c></rc>
    <rc><c>S </c><c>   3</c></rc>
    <rc><c>S </c><c>   3</c></rc>
    <rc><c>S </c><c>   3</c></rc>
    <rc><c>S </c><c>   3</c></rc>
    <rc><c>S </c><c>   3</c></rc>
    <rc><c>S </c><c>   3</c></rc>
    <rc><c>S </c><c>   3</c></rc>
    <rc><c>S </c><c>   3</c></rc>
    <rc><c>S </c><c>   3</c></rc>
    <rc><c>Cl</c><c>   4</c></rc>
    <rc><c>Cl</c><c>   4</c></rc>
    <rc><c>Cl</c><c>   4</c></rc>
    <rc><c>Cl</c><c>   4</c></rc>
   </set>
  </array>
  <array name="atomtypes" >
   <dimension dim="1">type</dimension>
   <field type="int">atomspertype</field>
   <field type="string">element</field>
   <field>mass</field>
   <field>valence</field>
   <field type="string">pseudopotential</field>
   <set>
    <rc><c>  24</c><c>Li</c><c>      7.01000000</c><c>      3.00000000</c><c>  PAW_PBE Li_sv_GW 25Mar2010            </c></rc>
    <rc><c>   4</c><c>P </c><c>     30.97400000</c><c>      5.00000000</c><c>  PAW_PBE P_GW 19Mar2012                </c></rc>
    <rc><c>  20</c><c>S </c><c>     32.06600000</c><c>      6.00000000</c><c>  PAW_PBE S_GW 19Mar2012                </c></rc>
    <rc><c>   4</c><c>Cl</c><c>     35.45300000</c><c>      7.00000000</c><c>  PAW_PBE Cl_GW 19Mar2012               </c></rc>
   </set>
  </array>
 </atominfo>
 <structure name="initialpos" >
  <crystal>
   <varray name="basis" >
    <v>       9.87038597       0.00000000       0.00000000 </v>
    <v>       0.00000000       9.87038597       0.00000000 </v>
    <v>       0.00000000       0.00000000       9.87038597 </v>
   </varray>
   <i name="volume">    961.61760855 </i>
   <varray name="rec_basis" >
    <v>       0.10131316       0.00000000       0.00000000 </v>
    <v>       0.00000000       0.10131316       0.00000000 </v>
    <v>       0.00000000       0.00000000       0.10131316 </v>
   </varray>
  </crystal>
  <varray name="positions" >
   <v>       0.97545754       0.29218922       0.28680423 </v>
   <v>       0.98101112       0.79375403       0.80518605 </v>
   <v>       0.01672496       0.28361936       0.70775303 </v>
   <v>       0.03268072       0.82232091       0.18645421 </v>
   <v>       0.17846188       0.18355324       0.97211763 </v>
   <v>       0.29506697       0.70799043       0.02672963 </v>
   <v>       0.79956321       0.20299494       0.02112090 </v>
   <v>       0.71806719       0.71310242       0.98230015 </v>
   <v>       0.30747315       0.98065973       0.28645151 </v>
   <v>       0.23819861       0.01364214       0.73819861 </v>
   <v>       0.78645151       0.98065973       0.80747315 </v>
   <v>       0.75798978       0.02789344       0.25798978 </v>
   <v>       0.30518605       0.79375403       0.48101112 </v>
   <v>       0.20775303       0.28361936       0.51672496 </v>
   <v>       0.68645421       0.82232091       0.53268072 </v>
   <v>       0.78680423       0.29218922       0.47545754 </v>
   <v>       0.29649576       0.45883997       0.79649576 </v>
   <v>       0.19291217       0.53543370       0.30152741 </v>
   <v>       0.68932707       0.47635243       0.18932707 </v>
   <v>       0.80152741       0.53543370       0.69291217 </v>
   <v>       0.47211763       0.18355324       0.67846188 </v>
   <v>       0.48230015       0.71310242       0.21806719 </v>
   <v>       0.52112090       0.20299494       0.29956321 </v>
   <v>       0.52672963       0.70799043       0.79506697 </v>
   <v>       0.50065564       0.50016213       0.50258182 </v>
   <v>       0.49755572       0.00864482       0.99755572 </v>
   <v>       0.00258182       0.50016213       0.00065564 </v>
   <v>       0.99538856       0.99005443       0.49538856 </v>
   <v>       0.11167139       0.86571743       0.61167139 </v>
   <v>       0.11350661       0.10618329       0.37277527 </v>
   <v>       0.87852550       0.86763041       0.37852550 </v>
   <v>       0.87277527       0.10618329       0.61350661 </v>
   <v>       0.89073291       0.62011238       0.12466834 </v>
   <v>       0.87823184       0.38756471       0.88057500 </v>
   <v>       0.12506202       0.61469565       0.88031825 </v>
   <v>       0.12262699       0.37894928       0.11596805 </v>
   <v>       0.61254884       0.12876335       0.87681372 </v>
   <v>       0.61898386       0.89441629       0.11898386 </v>
   <v>       0.37681372       0.12876335       0.11254884 </v>
   <v>       0.38039515       0.88521123       0.88039515 </v>
   <v>       0.62466834       0.62011238       0.39073291 </v>
   <v>       0.61596805       0.37894928       0.62262699 </v>
   <v>       0.38031825       0.61469565       0.62506202 </v>
   <v>       0.38057500       0.38756471       0.37823184 </v>
   <v>       0.75218538       0.75554905       0.75370581 </v>
   <v>       0.74671352       0.25516560       0.24671352 </v>
   <v>       0.25370581       0.75554905       0.25218538 </v>
   <v>       0.24535768       0.23989093       0.74535768 </v>
   <v>       0.97818295       0.00168201       0.97571926 </v>
   <v>       0.99869448       0.42583542       0.49869448 </v>
   <v>       0.47571926       0.00168201       0.47818295 </v>
   <v>       0.51398056       0.57214573       0.01398056 </v>
  </varray>
 </structure>
 <calculation>
  <scstep>
   <time name="dav">    2.14    2.29</time>
   <time name="total">    2.63    2.79</time>
   <energy>
    <i name="alphaZ">    282.29256751 </i>
    <i name="ewald">  -8415.00080298 </i>
    <i name="hartreedc">  -2356.89509381 </i>
    <i name="XCdc">    532.02389222 </i>
    <i name="pawpsdc">   8141.38806575 </i>
    <i name="pawaedc">  -8271.61346273 </i>
    <i name="eentropy">     -0.01181155 </i>
    <i name="bandstr">  -1012.45663214 </i>
    <i name="atom">  12703.13999606 </i>
    <i name="e_fr_energy">   1602.86671833 </i>
    <i name="e_wo_entrp">   1602.87852988 </i>
    <i name="e_0_energy">   1602.87262410 </i>
   </energy>
  </scstep>
  <scstep>
   <time name="dav">    2.49    2.51</time>
   <time name="total">    2.49    2.51</time>
   <energy>
    <i name="e_fr_energy">    -50.77905363 </i>
    <i name="e_wo_entrp">    -50.77905363 </i>
    <i name="e_0_energy">    -50.77905363 </i>
   </energy>
  </scstep>
  <scstep>
   <time name="dav">    2.46    2.49</time>
   <time name="total">    2.47    2.49</time>
   <energy>
    <i name="e_fr_energy">   -230.63274369 </i>
    <i name="e_wo_entrp">   -230.63274369 </i>
    <i name="e_0_energy">   -230.63274369 </i>
   </energy>
  </scstep>
  <scstep>
   <time name="dav">    2.97    3.00</time>
   <time name="total">    2.97    3.00</time>
   <energy>
    <i name="e_fr_energy">   -243.06264604 </i>
    <i name="e_wo_entrp">   -243.06264604 </i>
    <i name="e_0_energy">   -243.06264604 </i>
   </energy>
  </scstep>
  <scstep>
   <time name="dav">    2.83    2.85</time>
   <time name="total">    2.83    2.85</time>
   <energy>
    <i name="e_fr_energy">   -243.30412069 </i>
    <i name="e_wo_entrp">   -243.30412069 </i>
    <i name="e_0_energy">   -243.30412069 </i>
   </energy>
  </scstep>
  <scstep>
   <time name="dav">    2.87    2.89</time>
   <time name="total">    2.87    2.89</time>
   <energy>
    <i name="e_fr_energy">   -243.31411618 </i>
    <i name="e_wo_entrp">   -243.31411618 </i>
    <i name="e_0_energy">   -243.31411618 </i>
   </energy>
  </scstep>
  <scstep>
   <time name="dav">    6.22    7.00</time>
   <time name="total">    6.22    7.00</time>
   <energy>
    <i name="e_fr_energy">   -243.31461429 </i>
    <i name="e_wo_entrp">   -243.31461429 </i>
    <i name="e_0_energy">   -243.31461429 </i>
   </energy>
  </scstep>
  <scstep>
   <time name="dav">    2.89    2.96</time>
   <time name="total">    2.89    2.96</time>
   <energy>
    <i name="e_fr_energy">   -243.31464760 </i>
    <i name="e_wo_entrp">   -243.31464760 </i>
    <i name="e_0_energy">   -243.31464760 </i>
   </energy>
  </scstep>
  <scstep>
   <time name="dav">    2.82    2.85</time>
   <time name="total">    2.82    2.85</time>
   <energy>
    <i name="e_fr_energy">   -243.31465000 </i>
    <i name="e_wo_entrp">   -243.31465000 </i>
    <i name="e_0_energy">   -243.31465000 </i>
   </energy>
  </scstep>
  <scstep>
   <time name="dav">    1.89    1.91</time>
   <time name="total">    2.21    2.64</time>
   <energy>
    <i name="e_fr_energy">   -243.31465014 </i>
    <i name="e_wo_entrp">   -243.31465014 </i>
    <i name="e_0_energy">   -243.31465014 </i>
   </energy>
  </scstep>
  <scstep>
   <time name="diag">    0.29    0.29</time>
   <time name="diis">    1.22    1.24</time>
   <time name="orth">    0.05    0.05</time>
   <time name="total">    2.38    2.71</time>
   <energy>
    <i name="e_fr_energy">   -231.63342768 </i>
    <i name="e_wo_entrp">   -231.63342768 </i>
    <i name="e_0_energy">   -231.63342768 </i>
   </energy>
  </scstep>
  <scstep>
   <time name="diag">    0.29    0.30</time>
   <time name="diis">    1.25    1.27</time>
   <time name="orth">    0.05    0.05</time>
   <time name="total">    2.23    2.32</time>
   <energy>
    <i name="e_fr_energy">   -256.25964258 </i>
    <i name="e_wo_entrp">   -256.25964258 </i>
    <i name="e_0_energy">   -256.25964258 </i>
   </energy>
  </scstep>
  <scstep>
   <time name="diag">    0.29    0.29</time>
   <time name="diis">    1.22    1.24</time>
   <time name="orth">    0.05    0.05</time>
   <time name="total">    2.18    2.24</time>
   <energy>
    <i name="e_fr_energy">   -258.65517105 </i>
    <i name="e_wo_entrp">   -258.65517105 </i>
    <i name="e_0_energy">   -258.65517105 </i>
   </energy>
  </scstep>
  <scstep>
   <time name="diag">    0.29    0.29</time>
   <time name="diis">    1.58    1.60</time>
   <time name="orth">    0.05    0.05</time>
   <time name="total">    2.55    2.60</time>
   <energy>
    <i name="e_fr_energy">   -258.94505844 </i>
    <i name="e_wo_entrp">   -258.94505844 </i>
    <i name="e_0_energy">   -258.94505844 </i>
   </energy>
  </scstep>
  <scstep>
   <time name="diag">    0.29    0.29</time>
   <time name="diis">    1.28    1.29</time>
   <time name="orth">    0.05    0.05</time>
   <time name="total">    2.24    2.28</time>
   <energy>
    <i name="e_fr_energy">   -258.89585800 </i>
    <i name="e_wo_entrp">   -258.89585800 </i>
    <i name="e_0_energy">   -258.89585800 </i>
   </energy>
  </scstep>
  <scstep>
   <time name="diag">    0.29    0.29</time>
   <time name="diis">    1.31    1.32</time>
   <time name="orth">    0.05    0.05</time>
   <time name="total">    2.28    2.32</time>
   <energy>
    <i name="e_fr_energy">   -258.91845728 </i>
    <i name="e_wo_entrp">   -258.91845728 </i>
    <i name="e_0_energy">   -258.91845728 </i>
   </energy>
  </scstep>
  <scstep>
   <time name="diag">    0.29    0.29</time>
   <time name="diis">    1.46    1.48</time>
   <time name="orth">    0.05    0.05</time>
   <time name="total">    2.43    2.47</time>
   <energy>
    <i name="e_fr_energy">   -258.92587999 </i>
    <i name="e_wo_entrp">   -258.92587999 </i>
    <i name="e_0_energy">   -258.92587999 </i>
   </energy>
  </scstep>
  <scstep>
   <time name="diag">    0.29    0.29</time>
   <time name="diis">    1.46    1.48</time>
   <time name="orth">    0.05    0.05</time>
   <time name="total">    2.42    2.45</time>
   <energy>
    <i name="e_fr_energy">   -258.92755264 </i>
    <i name="e_wo_entrp">   -258.92755264 </i>
    <i name="e_0_energy">   -258.92755264 </i>
   </energy>
  </scstep>
  <scstep>
   <time name="diag">    0.29    0.29</time>
   <time name="diis">    1.62    1.64</time>
   <time name="orth">    0.05    0.05</time>
   <time name="total">    2.58    2.61</time>
   <energy>
    <i name="e_fr_energy">   -258.92835303 </i>
    <i name="e_wo_entrp">   -258.92835303 </i>
    <i name="e_0_energy">   -258.92835303 </i>
   </energy>
  </scstep>
  <scstep>
   <time name="diag">    0.29    0.29</time>
   <time name="diis">    1.63    1.65</time>
   <time name="orth">    0.05    0.05</time>
   <time name="total">    2.59    2.62</time>
   <energy>
    <i name="e_fr_energy">   -258.92850861 </i>
    <i name="e_wo_entrp">   -258.92850861 </i>
    <i name="e_0_energy">   -258.92850861 </i>
   </energy>
  </scstep>
  <scstep>
   <time name="diag">    0.29    0.29</time>
   <time name="diis">    1.43    1.45</time>
   <time name="orth">    0.05    0.05</time>
   <time name="total">    2.39    2.43</time>
   <energy>
    <i name="e_fr_energy">   -258.92854174 </i>
    <i name="e_wo_entrp">   -258.92854174 </i>
    <i name="e_0_energy">   -258.92854174 </i>
   </energy>
  </scstep>
  <scstep>
   <time name="diag">    0.29    0.29</time>
   <time name="diis">    1.62    1.64</time>
   <time name="orth">    0.05    0.05</time>
   <time name="total">    2.57    2.62</time>
   <energy>
    <i name="e_fr_energy">   -258.92855364 </i>
    <i name="e_wo_entrp">   -258.92855364 </i>
    <i name="e_0_energy">   -258.92855364 </i>
   </energy>
  </scstep>
  <scstep>
   <time name="diag">    0.49    0.56</time>
   <time name="diis">    1.86    1.90</time>
   <time name="orth">    0.06    0.06</time>
   <time name="total">    3.07    3.19</time>
   <energy>
    <i name="e_fr_energy">   -258.92855293 </i>
    <i name="e_wo_entrp">   -258.92855293 </i>
    <i name="e_0_energy">   -258.92855293 </i>
   </energy>
  </scstep>
  <scstep>
   <time name="diag">    0.29    0.29</time>
   <time name="diis">    1.17    1.19</time>
   <time name="orth">    0.05    0.05</time>
   <time name="total">    1.99    2.00</time>
   <energy>
    <i name="alphaZ">    282.29256751 </i>
    <i name="ewald">  -8415.00080298 </i>
    <i name="hartreedc">  -2484.36595217 </i>
    <i name="XCdc">    536.92603599 </i>
    <i name="pawpsdc">   9818.66386397 </i>
    <i name="pawaedc">  -9962.77582165 </i>
    <i name="eentropy">     -0.00000000 </i>
    <i name="bandstr">  -2737.80843921 </i>
    <i name="atom">  12703.13999606 </i>
    <i name="e_fr_energy">   -258.92855248 </i>
    <i name="e_wo_entrp">   -258.92855248 </i>
    <i name="e_0_energy">   -258.92855248 </i>
   </energy>
  </scstep>
  <structure>
   <crystal>
    <varray name="basis" >
     <v>       9.87038597       0.00000000       0.00000000 </v>
     <v>       0.00000000       9.87038597       0.00000000 </v>
     <v>       0.00000000       0.00000000       9.87038597 </v>
    </varray>
    <i name="volume">    961.61760855 </i>
    <varray name="rec_basis" >
     <v>       0.10131316       0.00000000       0.00000000 </v>
     <v>       0.00000000       0.10131316       0.00000000 </v>
     <v>       0.00000000       0.00000000       0.10131316 </v>
    </varray>
   </crystal>
   <varray name="positions" >
    <v>       0.97545754       0.29218922       0.28680423 </v>
    <v>       0.98101112       0.79375403       0.80518605 </v>
    <v>       0.01672496       0.28361936       0.70775303 </v>
    <v>       0.03268072       0.82232091       0.18645421 </v>
    <v>       0.17846188       0.18355324       0.97211763 </v>
    <v>       0.29506697       0.70799043       0.02672963 </v>
    <v>       0.79956321       0.20299494       0.02112090 </v>
    <v>       0.71806719       0.71310242       0.98230015 </v>
    <v>       0.30747315       0.98065973       0.28645151 </v>
    <v>       0.23819861       0.01364214       0.73819861 </v>
    <v>       0.78645151       0.98065973       0.80747315 </v>
    <v>       0.75798978       0.02789344       0.25798978 </v>
    <v>       0.30518605       0.79375403       0.48101112 </v>
    <v>       0.20775303       0.28361936       0.51672496 </v>
    <v>       0.68645421       0.82232091       0.53268072 </v>
    <v>       0.78680423       0.29218922       0.47545754 </v>
    <v>       0.29649576       0.45883997       0.79649576 </v>
    <v>       0.19291217       0.53543370       0.30152741 </v>
    <v>       0.68932707       0.47635243       0.18932707 </v>
    <v>       0.80152741       0.53543370       0.69291217 </v>
    <v>       0.47211763       0.18355324       0.67846188 </v>
    <v>       0.48230015       0.71310242       0.21806719 </v>
    <v>       0.52112090       0.20299494       0.29956321 </v>
    <v>       0.52672963       0.70799043       0.79506697 </v>
    <v>       0.50065564       0.50016213       0.50258182 </v>
    <v>       0.49755572       0.00864482       0.99755572 </v>
    <v>       0.00258182       0.50016213       0.00065564 </v>
    <v>       0.99538856       0.99005443       0.49538856 </v>
    <v>       0.11167139       0.86571743       0.61167139 </v>
    <v>       0.11350661       0.10618329       0.37277527 </v>
    <v>       0.87852550       0.86763041       0.37852550 </v>
    <v>       0.87277527       0.10618329       0.61350661 </v>
    <v>       0.89073291       0.62011238       0.12466834 </v>
    <v>       0.87823184       0.38756471       0.88057500 </v>
    <v>       0.12506202       0.61469565       0.88031825 </v>
    <v>       0.12262699       0.37894928       0.11596805 </v>
    <v>       0.61254884       0.12876335       0.87681372 </v>
    <v>       0.61898386       0.89441629       0.11898386 </v>
    <v>       0.37681372       0.12876335       0.11254884 </v>
    <v>       0.38039515       0.88521123       0.88039515 </v>
    <v>       0.62466834       0.62011238       0.39073291 </v>
    <v>       0.61596805       0.37894928       0.62262699 </v>
    <v>       0.38031825       0.61469565       0.62506202 </v>
    <v>       0.38057500       0.38756471       0.37823184 </v>
    <v>       0.75218538       0.75554905       0.75370581 </v>
    <v>       0.74671352       0.25516560       0.24671352 </v>
    <v>       0.25370581       0.75554905       0.25218538 </v>
    <v>       0.24535768       0.23989093       0.74535768 </v>
    <v>       0.97818295       0.00168201       0.97571926 </v>
    <v>       0.99869448       0.42583542       0.49869448 </v>
    <v>       0.47571926       0.00168201       0.47818295 </v>
    <v>       0.51398056       0.57214573       0.01398056 </v>
   </varray>
  </structure>
  <varray name="forces" >
   <v>       0.02891499       0.01078487       0.01190727 </v>
   <v>       0.02499329       0.03327254       0.03541290 </v>
   <v>      -0.02949474       0.01665105      -0.00419034 </v>
   <v>      -0.02706864       0.04335001      -0.04917675 </v>
   <v>      -0.04063001      -0.03741163       0.02074303 </v>
   <v>       0.01577378      -0.02458478      -0.02826159 </v>
   <v>       0.03205058      -0.03554507      -0.02487362 </v>
   <v>      -0.00461215      -0.00845954       0.03231472 </v>
   <v>       0.01914053       0.02762665       0.02954731 </v>
   <v>       0.00825276      -0.03051621       0.00825276 </v>
   <v>       0.02954731       0.02762665       0.01914053 </v>
   <v>       0.00101500      -0.02275346       0.00101500 </v>
   <v>       0.03541290       0.03327254       0.02499329 </v>
   <v>      -0.00419034       0.01665105      -0.02949474 </v>
   <v>      -0.04917675       0.04335001      -0.02706864 </v>
   <v>       0.01190727       0.01078487       0.02891499 </v>
   <v>       0.05823472       0.04260149       0.05823472 </v>
   <v>      -0.05400364      -0.04692077       0.04461327 </v>
   <v>      -0.03144253       0.04461875      -0.03144253 </v>
   <v>       0.04461327      -0.04692077      -0.05400364 </v>
   <v>       0.02074303      -0.03741163      -0.04063001 </v>
   <v>       0.03231472      -0.00845954      -0.00461215 </v>
   <v>      -0.02487362      -0.03554507       0.03205058 </v>
   <v>      -0.02826159      -0.02458478       0.01577378 </v>
   <v>      -0.01809016      -0.00915292      -0.02904592 </v>
   <v>       0.00190237      -0.01778405       0.00190237 </v>
   <v>      -0.02904592      -0.00915292      -0.01809016 </v>
   <v>       0.01470861       0.01618380       0.01470861 </v>
   <v>       0.24467865      -0.36047141       0.24467865 </v>
   <v>       0.28929219       0.25539808      -0.32959442 </v>
   <v>      -0.26487262      -0.38336026      -0.26487262 </v>
   <v>      -0.32959442       0.25539808       0.28929219 </v>
   <v>      -0.24924529       0.29611005       0.35990130 </v>
   <v>      -0.33802370      -0.25921833      -0.26906316 </v>
   <v>       0.27424229       0.26807217      -0.32408955 </v>
   <v>       0.34519979      -0.29574362       0.25393606 </v>
   <v>       0.24079088       0.35223694      -0.30206079 </v>
   <v>       0.29726178      -0.25771484       0.29726178 </v>
   <v>      -0.30206079       0.35223694       0.24079088 </v>
   <v>      -0.28849621      -0.27166916      -0.28849621 </v>
   <v>       0.35990130       0.29611005      -0.24924529 </v>
   <v>       0.25393606      -0.29574362       0.34519979 </v>
   <v>      -0.32408955       0.26807217       0.27424229 </v>
   <v>      -0.26906316      -0.25921833      -0.33802370 </v>
   <v>       0.00965966       0.00023371      -0.05257925 </v>
   <v>      -0.02970838       0.03961359      -0.02970838 </v>
   <v>      -0.05257925       0.00023371       0.00965966 </v>
   <v>       0.03877278       0.01709610       0.03877278 </v>
   <v>       0.03924123       0.00036399       0.04115318 </v>
   <v>       0.00268427       0.14132837       0.00268427 </v>
   <v>       0.04115318       0.00036399       0.03924123 </v>
   <v>      -0.02771573      -0.13129955      -0.02771573 </v>
  </varray>
  <varray name="stress" >
   <v>      -3.35592814      -0.76469687      -0.24346930 </v>
   <v>      -0.76469697       2.94228996      -0.76469697 </v>
   <v>      -0.24346930      -0.76469687      -3.35592814 </v>
  </varray>
  <energy>
   <i name="e_fr_energy">   -271.59843698 </i>
   <i name="e_wo_entrp">   -271.59843698 </i>
   <i name="e_0_energy">   -271.59843698 </i>
  </energy>
  <time name="totalsc">   67.35   69.97</time>
 </calculation>
 <calculation>
  <scstep>
   <time name="dav">    2.29    2.31</time>
   <time name="total">    2.92    2.99</time>
   <energy>
    <i name="alphaZ">    282.29256751 </i>
    <i name="ewald">  -8429.85502985 </i>
    <i name="hartreedc">  -2472.47545411 </i>
    <i name="XCdc">    536.62532912 </i>
    <i name="pawpsdc">   9818.67340466 </i>
    <i name="pawaedc">  -9962.78537339 </i>
    <i name="eentropy">     -0.00000000 </i>
    <i name="bandstr">  -2734.59984297 </i>
    <i name="atom">  12703.13999606 </i>
    <i name="e_fr_energy">   -258.98440298 </i>
    <i name="e_wo_entrp">   -258.98440298 </i>
    <i name="e_0_energy">   -258.98440298 </i>
   </energy>
  </scstep>
  <scstep>
   <time name="diag">    0.30    0.30</time>
   <time name="diis">    1.22    1.23</time>
   <time name="orth">    0.05    0.05</time>
   <time name="total">    2.18    2.25</time>
   <energy>
    <i name="e_fr_energy">   -258.99009177 </i>
    <i name="e_wo_entrp">   -258.99009177 </i>
    <i name="e_0_energy">   -258.99009177 </i>
   </energy>
  </scstep>
  <scstep>
   <time name="diag">    0.29    0.29</time>
   <time name="diis">    1.40    1.42</time>
   <time name="orth">    0.05    0.05</time>
   <time name="total">    2.37    2.42</time>
   <energy>
    <i name="e_fr_energy">   -258.99347009 </i>
    <i name="e_wo_entrp">   -258.99347009 </i>
    <i name="e_0_energy">   -258.99347009 </i>
   </energy>
  </scstep>
  <scstep>
   <time name="diag">    0.29    0.29</time>
   <time name="diis">    1.61    1.63</time>
   <time name="orth">    0.05    0.05</time>
   <time name="total">    2.58    2.63</time>
   <energy>
    <i name="e_fr_energy">   -258.99406271 </i>
    <i name="e_wo_entrp">   -258.99406271 </i>
    <i name="e_0_energy">   -258.99406271 </i>
   </energy>
  </scstep>
  <scstep>
   <time name="diag">    0.29    0.29</time>
   <time name="diis">    1.70    1.72</time>
   <time name="orth">    0.05    0.05</time>
   <time name="total">    2.67    2.72</time>
   <energy>
    <i name="e_fr_energy">   -258.99407594 </i>
    <i name="e_wo_entrp">   -258.99407594 </i>
    <i name="e_0_energy">   -258.99407594 </i>
   </energy>
  </scstep>
  <scstep>
   <time name="diag">    0.29    0.29</time>
   <time name="diis">    1.55    1.56</time>
   <time name="orth">    0.05    0.05</time>
   <time name="total">    2.51    2.54</time>
   <energy>
    <i name="e_fr_energy">   -258.99408385 </i>
    <i name="e_wo_entrp">   -258.99408385 </i>
    <i name="e_0_energy">   -258.99408385 </i>
   </energy>
  </scstep>
  <scstep>
   <time name="diag">    0.29    0.29</time>
   <time name="diis">    1.56    1.57</time>
   <time name="orth">    0.05    0.05</time>
   <time name="total">    2.52    2.56</time>
   <energy>
    <i name="e_fr_energy">   -258.99408830 </i>
    <i name="e_wo_entrp">   -258.99408830 </i>
    <i name="e_0_energy">   -258.99408830 </i>
   </energy>
  </scstep>
  <scstep>
   <time name="diag">    0.29    0.29</time>
   <time name="diis">    1.23    1.24</time>
   <time name="orth">    0.05    0.05</time>
   <time name="total">    2.19    2.22</time>
   <energy>
    <i name="e_fr_energy">   -258.99408956 </i>
    <i name="e_wo_entrp">   -258.99408956 </i>
    <i name="e_0_energy">   -258.99408956 </i>
   </energy>
  </scstep>
  <scstep>
   <time name="diag">    0.29    0.29</time>
   <time name="diis">    1.08    1.09</time>
   <time name="orth">    0.05    0.05</time>
   <time name="total">    1.89    1.91</time>
   <energy>
    <i name="alphaZ">    282.29256751 </i>
    <i name="ewald">  -8429.85502985 </i>
    <i name="hartreedc">  -2471.12666057 </i>
    <i name="XCdc">    536.56110810 </i>
    <i name="pawpsdc">   9796.41528862 </i>
    <i name="pawaedc">  -9940.43701293 </i>
    <i name="eentropy">     -0.00000000 </i>
    <i name="bandstr">  -2735.98434599 </i>
    <i name="atom">  12703.13999606 </i>
    <i name="e_fr_energy">   -258.99408904 </i>
    <i name="e_wo_entrp">   -258.99408904 </i>
    <i name="e_0_energy">   -258.99408904 </i>
   </energy>
  </scstep>
  <structure>
   <crystal>
    <varray name="basis" >
     <v>       9.87038597       0.00000000       0.00000000 </v>
     <v>       0.00000000       9.87038597       0.00000000 </v>
     <v>       0.00000000       0.00000000       9.87038597 </v>
    </varray>
    <i name="volume">    961.61760855 </i>
    <varray name="rec_basis" >
     <v>       0.10131316       0.00000000       0.00000000 </v>
     <v>       0.00000000       0.10131316       0.00000000 </v>
     <v>       0.00000000       0.00000000       0.10131316 </v>
    </varray>
   </crystal>
   <varray name="positions" >
    <v>       0.97551407       0.29221030       0.28682751 </v>
    <v>       0.98105998       0.79381908       0.80525529 </v>
    <v>       0.01666730       0.28365192       0.70774484 </v>
    <v>       0.03262780       0.82240566       0.18635807 </v>
    <v>       0.17838244       0.18348010       0.97215818 </v>
    <v>       0.29509781       0.70794236       0.02667438 </v>
    <v>       0.79962587       0.20292545       0.02107227 </v>
    <v>       0.71805818       0.71308589       0.98236333 </v>
    <v>       0.30751057       0.98071375       0.28650928 </v>
    <v>       0.23821474       0.01358248       0.73821474 </v>
    <v>       0.78650928       0.98071375       0.80751057 </v>
    <v>       0.75799176       0.02784896       0.25799176 </v>
    <v>       0.30525529       0.79381908       0.48105998 </v>
    <v>       0.20774484       0.28365192       0.51666730 </v>
    <v>       0.68635807       0.82240566       0.53262780 </v>
    <v>       0.78682751       0.29221030       0.47551407 </v>
    <v>       0.29660961       0.45892326       0.79660961 </v>
    <v>       0.19280659       0.53534196       0.30161463 </v>
    <v>       0.68926560       0.47643967       0.18926560 </v>
    <v>       0.80161463       0.53534196       0.69280659 </v>
    <v>       0.47215818       0.18348010       0.67838244 </v>
    <v>       0.48236333       0.71308589       0.21805818 </v>
    <v>       0.52107227       0.20292545       0.29962587 </v>
    <v>       0.52667438       0.70794236       0.79509781 </v>
    <v>       0.50062027       0.50014424       0.50252504 </v>
    <v>       0.49755944       0.00861005       0.99755944 </v>
    <v>       0.00252504       0.50014424       0.00062027 </v>
    <v>       0.99541731       0.99008607       0.49541731 </v>
    <v>       0.11214975       0.86501269       0.61214975 </v>
    <v>       0.11407219       0.10668261       0.37213090 </v>
    <v>       0.87800766       0.86688093       0.37800766 </v>
    <v>       0.87213090       0.10668261       0.61407219 </v>
    <v>       0.89024563       0.62069129       0.12537197 </v>
    <v>       0.87757099       0.38705793       0.88004897 </v>
    <v>       0.12559818       0.61521974       0.87968464 </v>
    <v>       0.12330187       0.37837109       0.11646450 </v>
    <v>       0.61301960       0.12945199       0.87622317 </v>
    <v>       0.61956502       0.89391245       0.11956502 </v>
    <v>       0.37622317       0.12945199       0.11301960 </v>
    <v>       0.37983113       0.88468010       0.87983113 </v>
    <v>       0.62537197       0.62069129       0.39024563 </v>
    <v>       0.61646450       0.37837109       0.62330187 </v>
    <v>       0.37968464       0.61521974       0.62559818 </v>
    <v>       0.38004897       0.38705793       0.37757099 </v>
    <v>       0.75220426       0.75554951       0.75360302 </v>
    <v>       0.74665544       0.25524305       0.24665544 </v>
    <v>       0.25360302       0.75554951       0.25220426 </v>
    <v>       0.24543349       0.23992436       0.74543349 </v>
    <v>       0.97825967       0.00168272       0.97579972 </v>
    <v>       0.99869972       0.42611172       0.49869972 </v>
    <v>       0.47579972       0.00168272       0.47825967 </v>
    <v>       0.51392637       0.57188904       0.01392637 </v>
   </varray>
  </structure>
  <varray name="forces" >
   <v>       0.02255339       0.01441162       0.01260113 </v>
   <v>       0.01791946       0.03550239       0.03827220 </v>
   <v>      -0.02220783       0.01841315      -0.00618108 </v>
   <v>      -0.02420981       0.04647407      -0.05082075 </v>
   <v>      -0.04344907      -0.04031323       0.01629329 </v>
   <v>       0.01658828      -0.02712223      -0.02088498 </v>
   <v>       0.03280758      -0.03828613      -0.01963099 </v>
   <v>      -0.00581844      -0.01145245       0.02403411 </v>
   <v>       0.02300964       0.02105120       0.02834191 </v>
   <v>       0.00433925      -0.01916083       0.00433925 </v>
   <v>       0.02834191       0.02105120       0.02300964 </v>
   <v>       0.00644095      -0.01184444       0.00644095 </v>
   <v>       0.03827220       0.03550239       0.01791946 </v>
   <v>      -0.00618108       0.01841315      -0.02220783 </v>
   <v>      -0.05082075       0.04647407      -0.02420981 </v>
   <v>       0.01260113       0.01441162       0.02255339 </v>
   <v>       0.06064157       0.03539986       0.06064157 </v>
   <v>      -0.05698518      -0.04050369       0.04573540 </v>
   <v>      -0.03303779       0.04248340      -0.03303779 </v>
   <v>       0.04573540      -0.04050369      -0.05698518 </v>
   <v>       0.01629329      -0.04031323      -0.04344907 </v>
   <v>       0.02403411      -0.01145245      -0.00581844 </v>
   <v>      -0.01963099      -0.03828613       0.03280758 </v>
   <v>      -0.02088498      -0.02712223       0.01658828 </v>
   <v>       0.00114444      -0.00232638      -0.01483633 </v>
   <v>      -0.00330215       0.01459811      -0.00330215 </v>
   <v>      -0.01483633      -0.00232638       0.00114444 </v>
   <v>      -0.00214282      -0.01487103      -0.00214282 </v>
   <v>       0.12945639      -0.23673713       0.12945639 </v>
   <v>       0.16584823       0.13980208      -0.20631983 </v>
   <v>      -0.13446067      -0.24070707      -0.13446067 </v>
   <v>      -0.20631983       0.13980208       0.16584823 </v>
   <v>      -0.12799089       0.16339419       0.22763100 </v>
   <v>      -0.21867737      -0.14750598      -0.15122871 </v>
   <v>       0.14660673       0.14743944      -0.20024411 </v>
   <v>       0.21490055      -0.16032834       0.12843347 </v>
   <v>       0.12059355       0.22027560      -0.16895307 </v>
   <v>       0.17438415      -0.14781239       0.17438415 </v>
   <v>      -0.16895307       0.22027560       0.12059355 </v>
   <v>      -0.17091795      -0.15568357      -0.17091795 </v>
   <v>       0.22763100       0.16339419      -0.12799089 </v>
   <v>       0.12843347      -0.16032834       0.21490055 </v>
   <v>      -0.20024411       0.14743944       0.14660673 </v>
   <v>      -0.15122871      -0.14750598      -0.21867737 </v>
   <v>       0.00853942      -0.00022966      -0.04375619 </v>
   <v>      -0.02529780       0.03342303      -0.02529780 </v>
   <v>      -0.04375619      -0.00022966       0.00853942 </v>
   <v>       0.03265356       0.01440455       0.03265356 </v>
   <v>       0.03736636      -0.00048117       0.03974839 </v>
   <v>       0.00235094       0.13336459       0.00235094 </v>
   <v>       0.03974839      -0.00048117       0.03736636 </v>
   <v>      -0.02788153      -0.12328606      -0.02788153 </v>
  </varray>
  <varray name="stress" >
   <v>      -6.50858298      -0.76755756      -0.17828858 </v>
   <v>      -0.76755761      -0.23713351      -0.76755761 </v>
   <v>      -0.17828858      -0.76755756      -6.50858298 </v>
  </varray>
  <energy>
   <i name="e_fr_energy">   -271.66475050 </i>
   <i name="e_wo_entrp">   -271.66475050 </i>
   <i name="e_0_energy">   -271.66475050 </i>
  </energy>
  <time name="totalsc">   24.89   25.33</time>
 </calculation>
 <calculation>
  <scstep>
   <time name="dav">    2.46    2.48</time>
   <time name="total">    3.07    3.11</time>
   <energy>
    <i name="alphaZ">    282.29256751 </i>
    <i name="ewald">  -8452.45887685 </i>
    <i name="hartreedc">  -2453.01128586 </i>
    <i name="XCdc">    536.09333451 </i>
    <i name="pawpsdc">   9796.40992648 </i>
    <i name="pawaedc">  -9940.43083341 </i>
    <i name="eentropy">     -0.00000000 </i>
    <i name="bandstr">  -2731.04047274 </i>
    <i name="atom">  12703.13999606 </i>
    <i name="e_fr_energy">   -259.00564430 </i>
    <i name="e_wo_entrp">   -259.00564430 </i>
    <i name="e_0_energy">   -259.00564430 </i>
   </energy>
  </scstep>
  <scstep>
   <time name="diag">    0.29    0.29</time>
   <time name="diis">    1.22    1.23</time>
   <time name="orth">    0.05    0.05</time>
   <time name="total">    2.17    2.19</time>
   <energy>
    <i name="e_fr_energy">   -259.02087586 </i>
    <i name="e_wo_entrp">   -259.02087586 </i>
    <i name="e_0_energy">   -259.02087586 </i>
   </energy>
  </scstep>
  <scstep>
   <time name="diag">    0.29    0.29</time>
   <time name="diis">    1.41    1.42</time>
   <time name="orth">    0.05    0.05</time>
   <time name="total">    2.37    2.39</time>
   <energy>
    <i name="e_fr_energy">   -259.02920459 </i>
    <i name="e_wo_entrp">   -259.02920459 </i>
    <i name="e_0_energy">   -259.02920459 </i>
   </energy>
  </scstep>
  <scstep>
   <time name="diag">    0.29    0.29</time>
   <time name="diis">    1.61    1.62</time>
   <time name="orth">    0.05    0.05</time>
   <time name="total">    2.56    2.59</time>
   <energy>
    <i name="e_fr_energy">   -259.03069353 </i>
    <i name="e_wo_entrp">   -259.03069353 </i>
    <i name="e_0_energy">   -259.03069353 </i>
   </energy>
  </scstep>
  <scstep>
   <time name="diag">    0.29    0.29</time>
   <time name="diis">    1.72    1.74</time>
   <time name="orth">    0.06    0.06</time>
   <time name="total">    2.69    2.72</time>
   <energy>
    <i name="e_fr_energy">   -259.03067965 </i>
    <i name="e_wo_entrp">   -259.03067965 </i>
    <i name="e_0_energy">   -259.03067965 </i>
   </energy>
  </scstep>
  <scstep>
   <time name="diag">    0.29    0.30</time>
   <time name="diis">    1.67    1.69</time>
   <time name="orth">    0.05    0.05</time>
   <time name="total">    2.71    2.75</time>
   <energy>
    <i name="e_fr_energy">   -259.03071471 </i>
    <i name="e_wo_entrp">   -259.03071471 </i>
    <i name="e_0_energy">   -259.03071471 </i>
   </energy>
  </scstep>
  <scstep>
   <time name="diag">    0.29    0.29</time>
   <time name="diis">    1.63    1.64</time>
   <time name="orth">    0.05    0.05</time>
   <time name="total">    2.59    2.62</time>
   <energy>
    <i name="e_fr_energy">   -259.03072607 </i>
    <i name="e_wo_entrp">   -259.03072607 </i>
    <i name="e_0_energy">   -259.03072607 </i>
   </energy>
  </scstep>
  <scstep>
   <time name="diag">    0.29    0.29</time>
   <time name="diis">    1.48    1.49</time>
   <time name="orth">    0.05    0.05</time>
   <time name="total">    2.44    2.46</time>
   <energy>
    <i name="e_fr_energy">   -259.03073053 </i>
    <i name="e_wo_entrp">   -259.03073053 </i>
    <i name="e_0_energy">   -259.03073053 </i>
   </energy>
  </scstep>
  <scstep>
   <time name="diag">    0.29    0.29</time>
   <time name="diis">    1.20    1.21</time>
   <time name="orth">    0.05    0.05</time>
   <time name="total">    2.16    2.17</time>
   <energy>
    <i name="e_fr_energy">   -259.03073103 </i>
    <i name="e_wo_entrp">   -259.03073103 </i>
    <i name="e_0_energy">   -259.03073103 </i>
   </energy>
  </scstep>
  <scstep>
   <time name="diag">    0.39    0.40</time>
   <time name="diis">    1.09    1.10</time>
   <time name="orth">    0.05    0.05</time>
   <time name="total">    2.15    2.17</time>
   <energy>
    <i name="e_fr_energy">   -259.03073274 </i>
    <i name="e_wo_entrp">   -259.03073274 </i>
    <i name="e_0_energy">   -259.03073274 </i>
   </energy>
  </scstep>
  <scstep>
   <time name="diag">    0.29    0.29</time>
   <time name="diis">    0.96    0.97</time>
   <time name="orth">    0.05    0.05</time>
   <time name="total">    1.77    1.79</time>
   <energy>
    <i name="alphaZ">    282.29256751 </i>
    <i name="ewald">  -8452.45887685 </i>
    <i name="hartreedc">  -2450.99876978 </i>
    <i name="XCdc">    535.99619826 </i>
    <i name="pawpsdc">   9762.65916882 </i>
    <i name="pawaedc">  -9906.53803167 </i>
    <i name="eentropy">     -0.00000000 </i>
    <i name="bandstr">  -2733.12298560 </i>
    <i name="atom">  12703.13999606 </i>
    <i name="e_fr_energy">   -259.03073323 </i>
    <i name="e_wo_entrp">   -259.03073323 </i>
    <i name="e_0_energy">   -259.03073323 </i>
   </energy>
  </scstep>
  <structure>
   <crystal>
    <varray name="basis" >
     <v>       9.87038597       0.00000000       0.00000000 </v>
     <v>       0.00000000       9.87038597       0.00000000 </v>
     <v>       0.00000000       0.00000000       9.87038597 </v>
    </varray>
    <i name="volume">    961.61760855 </i>
    <varray name="rec_basis" >
     <v>       0.10131316       0.00000000       0.00000000 </v>
     <v>       0.00000000       0.10131316       0.00000000 </v>
     <v>       0.00000000       0.00000000       0.10131316 </v>
    </varray>
   </crystal>
   <varray name="positions" >
    <v>       0.97560353       0.29224367       0.28686435 </v>
    <v>       0.98113731       0.79392202       0.80536485 </v>
    <v>       0.01657605       0.28370343       0.70773187 </v>
    <v>       0.03254405       0.82253978       0.18620592 </v>
    <v>       0.17825674       0.18336435       0.97222236 </v>
    <v>       0.29514661       0.70786630       0.02658694 </v>
    <v>       0.79972503       0.20281548       0.02099532 </v>
    <v>       0.71804391       0.71305971       0.98246330 </v>
    <v>       0.30756979       0.98079922       0.28660070 </v>
    <v>       0.23824027       0.01348807       0.73824027 </v>
    <v>       0.78660070       0.98079922       0.80756979 </v>
    <v>       0.75799490       0.02777856       0.25799490 </v>
    <v>       0.30536485       0.79392202       0.48113731 </v>
    <v>       0.20773187       0.28370343       0.51657605 </v>
    <v>       0.68620592       0.82253978       0.53254405 </v>
    <v>       0.78686435       0.29224367       0.47560353 </v>
    <v>       0.29678979       0.45905506       0.79678979 </v>
    <v>       0.19263951       0.53519680       0.30175265 </v>
    <v>       0.68916832       0.47657771       0.18916832 </v>
    <v>       0.80175265       0.53519680       0.69263951 </v>
    <v>       0.47222236       0.18336435       0.67825674 </v>
    <v>       0.48246330       0.71305971       0.21804391 </v>
    <v>       0.52099532       0.20281548       0.29972503 </v>
    <v>       0.52658694       0.70786630       0.79514661 </v>
    <v>       0.50056430       0.50011592       0.50243517 </v>
    <v>       0.49756532       0.00855503       0.99756532 </v>
    <v>       0.00243517       0.50011592       0.00056430 </v>
    <v>       0.99546282       0.99013614       0.49546282 </v>
    <v>       0.11290676       0.86389743       0.61290676 </v>
    <v>       0.11496722       0.10747278       0.37111118 </v>
    <v>       0.87718818       0.86569486       0.37718818 </v>
    <v>       0.87111118       0.10747278       0.61496722 </v>
    <v>       0.88947449       0.62160741       0.12648546 </v>
    <v>       0.87652518       0.38625594       0.87921652 </v>
    <v>       0.12644665       0.61604912       0.87868195 </v>
    <v>       0.12436988       0.37745610       0.11725015 </v>
    <v>       0.61376458       0.13054177       0.87528863 </v>
    <v>       0.62048471       0.89311511       0.12048471 </v>
    <v>       0.37528863       0.13054177       0.11376458 </v>
    <v>       0.37893856       0.88383959       0.87893856 </v>
    <v>       0.62648546       0.62160741       0.38947449 </v>
    <v>       0.61725015       0.37745610       0.62436988 </v>
    <v>       0.37868195       0.61604912       0.62644665 </v>
    <v>       0.37921652       0.38625594       0.37652518 </v>
    <v>       0.75223415       0.75555023       0.75344034 </v>
    <v>       0.74656353       0.25536561       0.24656353 </v>
    <v>       0.25344034       0.75555023       0.25223415 </v>
    <v>       0.24555344       0.23997725       0.74555344 </v>
    <v>       0.97838108       0.00168385       0.97592704 </v>
    <v>       0.99870803       0.42654897       0.49870803 </v>
    <v>       0.47592704       0.00168385       0.47838108 </v>
    <v>       0.51384062       0.57148281       0.01384062 </v>
   </varray>
  </structure>
  <varray name="forces" >
   <v>       0.01247978       0.02008374       0.01361938 </v>
   <v>       0.00655473       0.03895726       0.04281155 </v>
   <v>      -0.01087341       0.02104449      -0.00939364 </v>
   <v>      -0.01978016       0.05145547      -0.05354796 </v>
   <v>      -0.04810522      -0.04501889       0.00901205 </v>
   <v>       0.01777267      -0.03114336      -0.00931939 </v>
   <v>       0.03403539      -0.04279849      -0.01148019 </v>
   <v>      -0.00772188      -0.01622698       0.01099483 </v>
   <v>       0.02930613       0.01063946       0.02624589 </v>
   <v>      -0.00222849      -0.00126720      -0.00222849 </v>
   <v>       0.02624589       0.01063946       0.02930613 </v>
   <v>       0.01523216       0.00531183       0.01523216 </v>
   <v>       0.04281155       0.03895726       0.00655473 </v>
   <v>      -0.00939364       0.02104449      -0.01087341 </v>
   <v>      -0.05354796       0.05145547      -0.01978016 </v>
   <v>       0.01361938       0.02008374       0.01247978 </v>
   <v>       0.06429407       0.02428351       0.06429407 </v>
   <v>      -0.06166963      -0.03067549       0.04742903 </v>
   <v>      -0.03565336       0.03920588      -0.03565336 </v>
   <v>       0.04742903      -0.03067549      -0.06166963 </v>
   <v>       0.00901205      -0.04501889      -0.04810522 </v>
   <v>       0.01099483      -0.01622698      -0.00772188 </v>
   <v>      -0.01148019      -0.04279849       0.03403539 </v>
   <v>      -0.00931939      -0.03114336       0.01777267 </v>
   <v>       0.02695055       0.00766227       0.00812524 </v>
   <v>      -0.00986360       0.06342296      -0.00986360 </v>
   <v>       0.00812524       0.00766227       0.02695055 </v>
   <v>      -0.02718276      -0.06237238      -0.02718276 </v>
   <v>      -0.04268427      -0.05272135      -0.04268427 </v>
   <v>      -0.01786799      -0.03210910      -0.02276715 </v>
   <v>       0.05872970      -0.02941407       0.05872970 </v>
   <v>      -0.02276715      -0.03210910      -0.01786799 </v>
   <v>       0.05181177      -0.03362338       0.03101241 </v>
   <v>      -0.04107041       0.01943923       0.02440176 </v>
   <v>      -0.04340931      -0.03211468      -0.01640474 </v>
   <v>       0.02091865       0.03992984      -0.05752921 </v>
   <v>      -0.05787254       0.02401416       0.02959984 </v>
   <v>      -0.00896946       0.01662780      -0.00896946 </v>
   <v>       0.02959984       0.02401416      -0.05787254 </v>
   <v>       0.00475306       0.01792331       0.00475306 </v>
   <v>       0.03101241      -0.03362338       0.05181177 </v>
   <v>      -0.05752921       0.03992984       0.02091865 </v>
   <v>      -0.01640474      -0.03211468      -0.04340931 </v>
   <v>       0.02440176       0.01943923      -0.04107041 </v>
   <v>       0.00686517      -0.00093391      -0.03055370 </v>
   <v>      -0.01870704       0.02387440      -0.01870704 </v>
   <v>      -0.03055370      -0.00093391       0.00686517 </v>
   <v>       0.02339034       0.01016737       0.02339034 </v>
   <v>       0.03617355      -0.00116968       0.03876284 </v>
   <v>       0.00187828       0.12356853       0.00187828 </v>
   <v>       0.03876284      -0.00116968       0.03617355 </v>
   <v>      -0.02850533      -0.11343454      -0.02850533 </v>
  </varray>
  <varray name="stress" >
   <v>     -11.20355444      -0.77635306      -0.07824515 </v>
   <v>      -0.77635316      -4.97053602      -0.77635316 </v>
   <v>      -0.07824515      -0.77635306     -11.20355444 </v>
  </varray>
  <energy>
   <i name="e_fr_energy">   -271.70245609 </i>
   <i name="e_wo_entrp">   -271.70245609 </i>
   <i name="e_0_energy">   -271.70245609 </i>
  </energy>
  <time name="totalsc">   29.70   30.04</time>
 </calculation>
 <calculation>
  <scstep>
   <time name="dav">    2.26    2.28</time>
   <time name="total">    2.90    2.94</time>
   <energy>
    <i name="alphaZ">    282.29256751 </i>
    <i name="ewald">  -8451.96973184 </i>
    <i name="hartreedc">  -2451.39070270 </i>
    <i name="XCdc">    536.00618129 </i>
    <i name="pawpsdc">   9762.62317181 </i>
    <i name="pawaedc">  -9906.50151108 </i>
    <i name="eentropy">     -0.00000000 </i>
    <i name="bandstr">  -2733.23073395 </i>
    <i name="atom">  12703.13999606 </i>
    <i name="e_fr_energy">   -259.03076290 </i>
    <i name="e_wo_entrp">   -259.03076290 </i>
    <i name="e_0_energy">   -259.03076290 </i>
   </energy>
  </scstep>
  <scstep>
   <time name="diag">    0.29    0.30</time>
   <time name="diis">    1.22    1.23</time>
   <time name="orth">    0.05    0.05</time>
   <time name="total">    2.18    2.21</time>
   <energy>
    <i name="e_fr_energy">   -259.03077222 </i>
    <i name="e_wo_entrp">   -259.03077222 </i>
    <i name="e_0_energy">   -259.03077222 </i>
   </energy>
  </scstep>
  <scstep>
   <time name="diag">    0.29    0.29</time>
   <time name="diis">    1.31    1.32</time>
   <time name="orth">    0.05    0.05</time>
   <time name="total">    2.27    2.31</time>
   <energy>
    <i name="e_fr_energy">   -259.03077702 </i>
    <i name="e_wo_entrp">   -259.03077702 </i>
    <i name="e_0_energy">   -259.03077702 </i>
   </energy>
  </scstep>
  <scstep>
   <time name="diag">    0.29    0.29</time>
   <time name="diis">    1.07    1.08</time>
   <time name="orth">    0.05    0.05</time>
   <time name="total">    1.89    1.90</time>
   <energy>
    <i name="alphaZ">    282.29256751 </i>
    <i name="ewald">  -8451.96973184 </i>
    <i name="hartreedc">  -2451.43326359 </i>
    <i name="XCdc">    536.00768214 </i>
    <i name="pawpsdc">   9763.20143315 </i>
    <i name="pawaedc">  -9907.08120209 </i>
    <i name="eentropy">     -0.00000000 </i>
    <i name="bandstr">  -2733.18825861 </i>
    <i name="atom">  12703.13999606 </i>
    <i name="e_fr_energy">   -259.03077729 </i>
    <i name="e_wo_entrp">   -259.03077729 </i>
    <i name="e_0_energy">   -259.03077729 </i>
   </energy>
  </scstep>
  <structure>
   <crystal>
    <varray name="basis" >
     <v>       9.87038597       0.00000000       0.00000000 </v>
     <v>       0.00000000       9.87038597       0.00000000 </v>
     <v>       0.00000000       0.00000000       9.87038597 </v>
    </varray>
    <i name="volume">    961.61760855 </i>
    <varray name="rec_basis" >
     <v>       0.10131316       0.00000000       0.00000000 </v>
     <v>       0.00000000       0.10131316       0.00000000 </v>
     <v>       0.00000000       0.00000000       0.10131316 </v>
    </varray>
   </crystal>
   <varray name="positions" >
    <v>       0.97560154       0.29224293       0.28686353 </v>
    <v>       0.98113559       0.79391974       0.80536242 </v>
    <v>       0.01657807       0.28370229       0.70773216 </v>
    <v>       0.03254591       0.82253681       0.18620930 </v>
    <v>       0.17825953       0.18336692       0.97222094 </v>
    <v>       0.29514553       0.70786799       0.02658888 </v>
    <v>       0.79972283       0.20281791       0.02099702 </v>
    <v>       0.71804422       0.71306029       0.98246109 </v>
    <v>       0.30756848       0.98079732       0.28659867 </v>
    <v>       0.23823971       0.01349016       0.73823971 </v>
    <v>       0.78659867       0.98079732       0.80756848 </v>
    <v>       0.75799483       0.02778012       0.25799483 </v>
    <v>       0.30536242       0.79391974       0.48113559 </v>
    <v>       0.20773216       0.28370229       0.51657807 </v>
    <v>       0.68620930       0.82253681       0.53254591 </v>
    <v>       0.78686353       0.29224293       0.47560154 </v>
    <v>       0.29678579       0.45905214       0.79678579 </v>
    <v>       0.19264321       0.53520002       0.30174960 </v>
    <v>       0.68917047       0.47657465       0.18917047 </v>
    <v>       0.80174960       0.53520002       0.69264321 </v>
    <v>       0.47222094       0.18336692       0.67825953 </v>
    <v>       0.48246109       0.71306029       0.21804422 </v>
    <v>       0.52099702       0.20281791       0.29972283 </v>
    <v>       0.52658888       0.70786799       0.79514553 </v>
    <v>       0.50056554       0.50011655       0.50243716 </v>
    <v>       0.49756519       0.00855625       0.99756519 </v>
    <v>       0.00243716       0.50011655       0.00056554 </v>
    <v>       0.99546181       0.99013503       0.49546181 </v>
    <v>       0.11288998       0.86392216       0.61288998 </v>
    <v>       0.11494738       0.10745526       0.37113378 </v>
    <v>       0.87720634       0.86572115       0.37720634 </v>
    <v>       0.87113378       0.10745526       0.61494738 </v>
    <v>       0.88949159       0.62158711       0.12646077 </v>
    <v>       0.87654836       0.38627372       0.87923498 </v>
    <v>       0.12642784       0.61603074       0.87870417 </v>
    <v>       0.12434620       0.37747638       0.11723274 </v>
    <v>       0.61374806       0.13051761       0.87530935 </v>
    <v>       0.62046432       0.89313278       0.12046432 </v>
    <v>       0.37530935       0.13051761       0.11374806 </v>
    <v>       0.37895834       0.88385822       0.87895834 </v>
    <v>       0.62646077       0.62158711       0.38949159 </v>
    <v>       0.61723274       0.37747638       0.62434620 </v>
    <v>       0.37870417       0.61603074       0.62642784 </v>
    <v>       0.37923498       0.38627372       0.37654836 </v>
    <v>       0.75223349       0.75555022       0.75344395 </v>
    <v>       0.74656557       0.25536289       0.24656557 </v>
    <v>       0.25344395       0.75555022       0.25223349 </v>
    <v>       0.24555078       0.23997608       0.74555078 </v>
    <v>       0.97837839       0.00168382       0.97592422 </v>
    <v>       0.99870784       0.42653928       0.49870784 </v>
    <v>       0.47592422       0.00168382       0.47837839 </v>
    <v>       0.51384252       0.57149182       0.01384252 </v>
   </varray>
  </structure>
  <varray name="forces" >
   <v>       0.01284634       0.02002528       0.01367369 </v>
   <v>       0.00691198       0.03909600       0.04293028 </v>
   <v>      -0.01131121       0.02109770      -0.00936307 </v>
   <v>      -0.01997176       0.05149823      -0.05365591 </v>
   <v>      -0.04814865      -0.04504662       0.00919712 </v>
   <v>       0.01784026      -0.03121866      -0.00973710 </v>
   <v>       0.03420511      -0.04294763      -0.01180120 </v>
   <v>      -0.00772122      -0.01619317       0.01146447 </v>
   <v>       0.02930212       0.01101331       0.02646368 </v>
   <v>      -0.00205425      -0.00185402      -0.00205425 </v>
   <v>       0.02646368       0.01101331       0.02930212 </v>
   <v>       0.01507828       0.00482039       0.01507828 </v>
   <v>       0.04293028       0.03909600       0.00691198 </v>
   <v>      -0.00936307       0.02109770      -0.01131121 </v>
   <v>      -0.05365591       0.05149823      -0.01997176 </v>
   <v>       0.01367369       0.02002528       0.01284634 </v>
   <v>       0.06440312       0.02466863       0.06440312 </v>
   <v>      -0.06176992      -0.03106941       0.04753436 </v>
   <v>      -0.03572072       0.03944056      -0.03572072 </v>
   <v>       0.04753436      -0.03106941      -0.06176992 </v>
   <v>       0.00919712      -0.04504662      -0.04814865 </v>
   <v>       0.01146447      -0.01619317      -0.00772122 </v>
   <v>      -0.01180120      -0.04294763       0.03420511 </v>
   <v>      -0.00973710      -0.03121866       0.01784026 </v>
   <v>       0.02637268       0.00743233       0.00754544 </v>
   <v>      -0.00972438       0.06236007      -0.00972438 </v>
   <v>       0.00754544       0.00743233       0.02637268 </v>
   <v>      -0.02665190      -0.06127010      -0.02665190 </v>
   <v>      -0.03864542      -0.05721803      -0.03864542 </v>
   <v>      -0.01354962      -0.02809759      -0.02717403 </v>
   <v>       0.05424739      -0.03450332       0.05424739 </v>
   <v>      -0.02717403      -0.02809759      -0.01354962 </v>
   <v>       0.04761620      -0.02894510       0.03579879 </v>
   <v>      -0.04550396       0.01539992       0.02020209 </v>
   <v>      -0.03892333      -0.02780603      -0.02089204 </v>
   <v>       0.02559094       0.03518002      -0.05323780 </v>
   <v>      -0.05376426       0.02871101       0.02492489 </v>
   <v>      -0.00457547       0.01273925      -0.00457547 </v>
   <v>       0.02492489       0.02871101      -0.05376426 </v>
   <v>       0.00057272       0.01385364       0.00057272 </v>
   <v>       0.03579879      -0.02894510       0.04761620 </v>
   <v>      -0.05323780       0.03518002       0.02559094 </v>
   <v>      -0.02089204      -0.02780603      -0.03892333 </v>
   <v>       0.02020209       0.01539992      -0.04550396 </v>
   <v>       0.00690169      -0.00090876      -0.03091293 </v>
   <v>      -0.01890681       0.02411976      -0.01890681 </v>
   <v>      -0.03091293      -0.00090876       0.00690169 </v>
   <v>       0.02361737       0.01027294       0.02361737 </v>
   <v>       0.03625421      -0.00114644       0.03885078 </v>
   <v>       0.00191772       0.12426290       0.00191772 </v>
   <v>       0.03885078      -0.00114644       0.03625421 </v>
   <v>      -0.02854674      -0.11384142      -0.02854674 </v>
  </varray>
  <varray name="stress" >
   <v>     -11.10119053      -0.77601667      -0.08017907 </v>
   <v>      -0.77601689      -4.86680322      -0.77601689 </v>
   <v>      -0.08017907      -0.77601667     -11.10119053 </v>
  </varray>
  <energy>
   <i name="e_fr_energy">   -271.70247887 </i>
   <i name="e_wo_entrp">   -271.70247887 </i>
   <i name="e_0_energy">   -271.70247887 </i>
  </energy>
  <time name="totalsc">   12.28   12.45</time>
 </calculation>
 <calculation>
  <scstep>
   <time name="dav">    2.10    2.12</time>
[...]
   <v>       0.00087429      -0.00043720       0.00000020 </v>
   <v>      -0.00068243       0.00056407      -0.00068243 </v>
   <v>      -0.00019858       0.00045404      -0.00033283 </v>
   <v>      -0.00025614      -0.00023751      -0.00012136 </v>
   <v>      -0.00041374       0.00000561       0.00016175 </v>
   <v>       0.00048554       0.00025131       0.00015294 </v>
   <v>      -0.00056113       0.00010587       0.00025594 </v>
   <v>       0.00006590      -0.00094915       0.00006590 </v>
   <v>       0.00025594       0.00010587      -0.00056113 </v>
   <v>       0.00022977       0.00028729       0.00022977 </v>
   <v>       0.00001569      -0.00002731       0.00054921 </v>
   <v>       0.00016721      -0.00009689       0.00016721 </v>
   <v>       0.00054921      -0.00002731       0.00001569 </v>
   <v>      -0.00129361       0.00026554      -0.00129361 </v>
  </varray>
  <varray name="stress" >
   <v>     -15.69512104      -1.23753604      -0.48967040 </v>
   <v>      -1.23753590      -9.88471857      -1.23753590 </v>
   <v>      -0.48967040      -1.23753604     -15.69512104 </v>
  </varray>
  <energy>
   <i name="e_fr_energy">   -271.77541017 </i>
   <i name="e_wo_entrp">   -271.77541017 </i>
   <i name="e_0_energy">   -271.77541017 </i>
  </energy>
  <time name="totalsc">    6.04    6.10</time>
 </calculation>
 <calculation>
  <scstep>
   <time name="dav">    1.21    1.22</time>
   <time name="total">    1.82    1.84</time>
   <energy>
    <i name="alphaZ">    282.29256751 </i>
    <i name="ewald">  -8504.92485428 </i>
    <i name="hartreedc">  -2401.30493845 </i>
    <i name="XCdc">    535.42974837 </i>
    <i name="pawpsdc">   9716.31939661 </i>
    <i name="pawaedc">  -9859.98114318 </i>
    <i name="eentropy">     -0.00000000 </i>
    <i name="bandstr">  -2730.07739484 </i>
    <i name="atom">  12703.13999606 </i>
    <i name="e_fr_energy">   -259.10662220 </i>
    <i name="e_wo_entrp">   -259.10662220 </i>
    <i name="e_0_energy">   -259.10662220 </i>
   </energy>
  </scstep>
  <scstep>
   <time name="diag">    0.29    0.29</time>
   <time name="diis">    0.33    0.34</time>
   <time name="orth">    0.06    0.06</time>
   <time name="total">    1.15    1.16</time>
   <energy>
    <i name="alphaZ">    282.29256751 </i>
    <i name="ewald">  -8504.92485428 </i>
    <i name="hartreedc">  -2401.30493845 </i>
    <i name="XCdc">    535.42974843 </i>
    <i name="pawpsdc">   9716.31940343 </i>
    <i name="pawaedc">  -9859.98115009 </i>
    <i name="eentropy">     -0.00000000 </i>
    <i name="bandstr">  -2730.07739479 </i>
    <i name="atom">  12703.13999606 </i>
    <i name="e_fr_energy">   -259.10662220 </i>
    <i name="e_wo_entrp">   -259.10662220 </i>
    <i name="e_0_energy">   -259.10662220 </i>
   </energy>
  </scstep>
  <structure>
   <crystal>
    <varray name="basis" >
     <v>       9.87038597       0.00000000       0.00000000 </v>
     <v>       0.00000000       9.87038597       0.00000000 </v>
     <v>       0.00000000       0.00000000       9.87038597 </v>
    </varray>
    <i name="volume">    961.61760855 </i>
    <varray name="rec_basis" >
     <v>       0.10131316       0.00000000       0.00000000 </v>
     <v>       0.00000000       0.10131316       0.00000000 </v>
     <v>       0.00000000       0.00000000       0.10131316 </v>
    </varray>
   </crystal>
   <varray name="positions" >
    <v>       0.97608152       0.29208861       0.28628324 </v>
    <v>       0.98201775       0.79423249       0.80844166 </v>
    <v>       0.01935680       0.28983776       0.71056576 </v>
    <v>       0.03081715       0.82972016       0.18101372 </v>
    <v>       0.17562332       0.17987852       0.97395050 </v>
    <v>       0.28980843       0.70796683       0.02515923 </v>
    <v>       0.80293054       0.20106110       0.02060798 </v>
    <v>       0.71634377       0.70669652       0.97828986 </v>
    <v>       0.30730651       0.98053169       0.28636606 </v>
    <v>       0.23718970       0.01648677       0.73718970 </v>
    <v>       0.78636606       0.98053169       0.80730651 </v>
    <v>       0.75665141       0.02495887       0.25665141 </v>
    <v>       0.30844166       0.79423249       0.48201775 </v>
    <v>       0.21056576       0.28983776       0.51935680 </v>
    <v>       0.68101372       0.82972016       0.53081715 </v>
    <v>       0.78628324       0.29208861       0.47608152 </v>
    <v>       0.32433941       0.45493195       0.82433941 </v>
    <v>       0.17718737       0.53812919       0.31234805 </v>
    <v>       0.68824418       0.47536495       0.18824418 </v>
    <v>       0.81234805       0.53812919       0.67718737 </v>
    <v>       0.47395050       0.17987852       0.67562332 </v>
    <v>       0.47828986       0.70669652       0.21634377 </v>
    <v>       0.52060798       0.20106110       0.30293054 </v>
    <v>       0.52515923       0.70796683       0.78980843 </v>
    <v>       0.49921648       0.49997941       0.50176327 </v>
    <v>       0.49696814       0.00772903       0.99696814 </v>
    <v>       0.00176327       0.49997941      -0.00078352 </v>
    <v>       0.99637734       0.99014249       0.49637734 </v>
    <v>       0.11320963       0.86286167       0.61320963 </v>
    <v>       0.11664389       0.10928398       0.37393996 </v>
    <v>       0.87840249       0.86568386       0.37840249 </v>
    <v>       0.87393996       0.10928398       0.61664389 </v>
    <v>       0.88977145       0.62208844       0.12611146 </v>
    <v>       0.87210078       0.38860084       0.87908294 </v>
    <v>       0.12612998       0.61129424       0.87405792 </v>
    <v>       0.12452080       0.37859027       0.11641082 </v>
    <v>       0.61378372       0.13065855       0.87641214 </v>
    <v>       0.61835894       0.88831582       0.11835894 </v>
    <v>       0.37641214       0.13065855       0.11378372 </v>
    <v>       0.37758019       0.88435727       0.87758019 </v>
    <v>       0.62611146       0.62208844       0.38977145 </v>
    <v>       0.61641082       0.37859027       0.62452080 </v>
    <v>       0.37405792       0.61129424       0.62612998 </v>
    <v>       0.37908294       0.38860084       0.37210078 </v>
    <v>       0.75257833       0.75539650       0.75020277 </v>
    <v>       0.74653251       0.25383981       0.24653251 </v>
    <v>       0.25020277       0.75539650       0.25257833 </v>
    <v>       0.24889468       0.24374332       0.74889468 </v>
    <v>       0.98051526       0.00076674       0.98049933 </v>
    <v>       0.99778069       0.43593341       0.49778069 </v>
    <v>       0.48049933       0.00076674       0.48051526 </v>
    <v>       0.50523017       0.56204706       0.00523017 </v>
   </varray>
  </structure>
  <varray name="forces" >
   <v>       0.00053342      -0.00053312       0.00056468 </v>
   <v>      -0.00063152      -0.00028881      -0.00047953 </v>
   <v>       0.00021277       0.00083692       0.00036441 </v>
   <v>      -0.00066983       0.00013692       0.00009375 </v>
   <v>       0.00091395       0.00003441       0.00029937 </v>
   <v>      -0.00084165       0.00115775      -0.00064045 </v>
   <v>       0.00128366      -0.00055283       0.00069429 </v>
   <v>      -0.00064999      -0.00073455      -0.00040726 </v>
   <v>       0.00041472      -0.00003846      -0.00041402 </v>
   <v>      -0.00056222       0.00088991      -0.00056222 </v>
   <v>      -0.00041402      -0.00003846       0.00041472 </v>
   <v>       0.00009138      -0.00050933       0.00009138 </v>
   <v>      -0.00047953      -0.00028881      -0.00063152 </v>
   <v>       0.00036441       0.00083692       0.00021277 </v>
   <v>       0.00009375       0.00013692      -0.00066983 </v>
   <v>       0.00056468      -0.00053312       0.00053342 </v>
   <v>       0.00091270       0.00055018       0.00091270 </v>
   <v>       0.00055198      -0.00045140      -0.00108999 </v>
   <v>       0.00094278      -0.00037078       0.00094278 </v>
   <v>      -0.00108999      -0.00045140       0.00055198 </v>
   <v>       0.00029937       0.00003441       0.00091395 </v>
   <v>      -0.00040726      -0.00073455      -0.00064999 </v>
   <v>       0.00069429      -0.00055283       0.00128366 </v>
   <v>      -0.00064045       0.00115775      -0.00084165 </v>
   <v>      -0.00034397      -0.00116551      -0.00068540 </v>
   <v>       0.00004029       0.00309402       0.00004029 </v>
   <v>      -0.00068540      -0.00116551      -0.00034397 </v>
   <v>      -0.00126847       0.00084809      -0.00126847 </v>
   <v>       0.00077689      -0.00075179       0.00077689 </v>
   <v>       0.00017835       0.00040821       0.00108869 </v>
   <v>      -0.00020046      -0.00038050      -0.00020046 </v>
   <v>       0.00108869       0.00040821       0.00017835 </v>
   <v>      -0.00033297       0.00045418      -0.00019898 </v>
   <v>       0.00015262       0.00025106       0.00048549 </v>
   <v>       0.00016160       0.00000517      -0.00041366 </v>
   <v>      -0.00012145      -0.00023778      -0.00025645 </v>
   <v>       0.00000084      -0.00043675       0.00087422 </v>
   <v>      -0.00017126      -0.00128914      -0.00017126 </v>
   <v>       0.00087422      -0.00043675       0.00000084 </v>
   <v>      -0.00068231       0.00056484      -0.00068231 </v>
   <v>      -0.00019898       0.00045418      -0.00033297 </v>
   <v>      -0.00025645      -0.00023778      -0.00012145 </v>
   <v>      -0.00041366       0.00000517       0.00016160 </v>
   <v>       0.00048549       0.00025106       0.00015262 </v>
   <v>      -0.00056160       0.00010602       0.00025621 </v>
   <v>       0.00006604      -0.00095000       0.00006604 </v>
   <v>       0.00025621       0.00010602      -0.00056160 </v>
   <v>       0.00022992       0.00028737       0.00022992 </v>
   <v>       0.00001568      -0.00002723       0.00054968 </v>
   <v>       0.00016740      -0.00009703       0.00016740 </v>
   <v>       0.00054968      -0.00002723       0.00001568 </v>
   <v>      -0.00129432       0.00026575      -0.00129432 </v>
  </varray>
  <varray name="stress" >
   <v>     -15.69512175      -1.23753591      -0.48967057 </v>
   <v>      -1.23753595      -9.88471938      -1.23753595 </v>
   <v>      -0.48967057      -1.23753591     -15.69512175 </v>
  </varray>
  <energy>
   <i name="e_fr_energy">   -271.77541017 </i>
   <i name="e_wo_entrp">   -271.77541017 </i>
   <i name="e_0_energy">   -271.77541017 </i>
  </energy>
  <time name="totalsc">    6.03    6.10</time>
 </calculation>
 <calculation>
  <scstep>
   <time name="dav">    1.99    2.01</time>
   <time name="total">    2.61    2.63</time>
   <energy>
    <i name="alphaZ">    282.29256751 </i>
    <i name="ewald">  -8504.95085336 </i>
    <i name="hartreedc">  -2401.28249112 </i>
    <i name="XCdc">    535.42939690 </i>
    <i name="pawpsdc">   9716.31940908 </i>
    <i name="pawaedc">  -9859.98115582 </i>
    <i name="eentropy">     -0.00000000 </i>
    <i name="bandstr">  -2730.07348586 </i>
    <i name="atom">  12703.13999606 </i>
    <i name="e_fr_energy">   -259.10661662 </i>
    <i name="e_wo_entrp">   -259.10661662 </i>
    <i name="e_0_energy">   -259.10661662 </i>
   </energy>
  </scstep>
  <scstep>
   <time name="diag">    0.29    0.30</time>
   <time name="diis">    1.27    1.28</time>
   <time name="orth">    0.05    0.05</time>
   <time name="total">    2.22    2.24</time>
   <energy>
    <i name="e_fr_energy">   -259.10661830 </i>
    <i name="e_wo_entrp">   -259.10661830 </i>
    <i name="e_0_energy">   -259.10661830 </i>
   </energy>
  </scstep>
  <scstep>
   <time name="diag">    0.29    0.29</time>
   <time name="diis">    1.19    1.20</time>
   <time name="orth">    0.05    0.05</time>
   <time name="total">    2.00    2.02</time>
   <energy>
    <i name="alphaZ">    282.29256751 </i>
    <i name="ewald">  -8504.95085336 </i>
    <i name="hartreedc">  -2401.28105035 </i>
    <i name="XCdc">    535.42934248 </i>
    <i name="pawpsdc">   9716.29902435 </i>
    <i name="pawaedc">  -9859.96070429 </i>
    <i name="eentropy">     -0.00000000 </i>
    <i name="bandstr">  -2730.07494126 </i>
    <i name="atom">  12703.13999606 </i>
    <i name="e_fr_energy">   -259.10661885 </i>
    <i name="e_wo_entrp">   -259.10661885 </i>
    <i name="e_0_energy">   -259.10661885 </i>
   </energy>
  </scstep>
  <structure>
   <crystal>
    <varray name="basis" >
     <v>       9.87038597       0.00000000       0.00000000 </v>
     <v>       0.00000000       9.87038597       0.00000000 </v>
     <v>       0.00000000       0.00000000       9.87038597 </v>
    </varray>
    <i name="volume">    961.61760855 </i>
    <varray name="rec_basis" >
     <v>       0.10131316       0.00000000       0.00000000 </v>
     <v>       0.00000000       0.10131316       0.00000000 </v>
     <v>       0.00000000       0.00000000       0.10131316 </v>
    </varray>
   </crystal>
   <varray name="positions" >
    <v>       0.97607740       0.29209177       0.28627966 </v>
    <v>       0.98202160       0.79423418       0.80844478 </v>
    <v>       0.01935619       0.28983245       0.71056385 </v>
    <v>       0.03082055       0.82971986       0.18101295 </v>
    <v>       0.17561802       0.17987819       0.97394852 </v>
    <v>       0.28981371       0.70796012       0.02516313 </v>
    <v>       0.80292278       0.20106455       0.02060235 </v>
    <v>       0.71634730       0.70669991       0.97829195 </v>
    <v>       0.30730275       0.98053408       0.28636940 </v>
    <v>       0.23719328       0.01648183       0.73719328 </v>
    <v>       0.78636940       0.98053408       0.80730275 </v>
    <v>       0.75665016       0.02495735       0.25665016 </v>
    <v>       0.30844478       0.79423418       0.48202160 </v>
    <v>       0.21056385       0.28983245       0.51935619 </v>
    <v>       0.68101295       0.82971986       0.53082055 </v>
    <v>       0.78627966       0.29209177       0.47607740 </v>
    <v>       0.32433469       0.45492704       0.82433469 </v>
    <v>       0.17718486       0.53813172       0.31235433 </v>
    <v>       0.68823923       0.47536504       0.18823923 </v>
    <v>       0.81235433       0.53813172       0.67718486 </v>
    <v>       0.47394852       0.17987819       0.67561802 </v>
    <v>       0.47829195       0.70669991       0.21634730 </v>
    <v>       0.52060235       0.20106455       0.30292278 </v>
    <v>       0.52516313       0.70796012       0.78981371 </v>
    <v>       0.49921431       0.49997490       0.50176121 </v>
    <v>       0.49696736       0.00773922       0.99696736 </v>
    <v>       0.00176121       0.49997490      -0.00078569 </v>
    <v>       0.99637237       0.99015067       0.49637237 </v>
    <v>       0.11321477       0.86285488       0.61321477 </v>
    <v>       0.11664906       0.10928095       0.37392728 </v>
    <v>       0.87840374       0.86568458       0.37840374 </v>
    <v>       0.87392728       0.10928095       0.61664906 </v>
    <v>       0.88977276       0.62208733       0.12611508 </v>
    <v>       0.87210495       0.38860432       0.87908517 </v>
    <v>       0.12613204       0.61129918       0.87405656 </v>
    <v>       0.12452170       0.37859255       0.11641414 </v>
    <v>       0.61377445       0.13065071       0.87641778 </v>
    <v>       0.61836565       0.88832183       0.11836565 </v>
    <v>       0.37641778       0.13065071       0.11377445 </v>
    <v>       0.37757800       0.88434654       0.87757800 </v>
    <v>       0.62611508       0.62208733       0.38977276 </v>
    <v>       0.61641414       0.37859255       0.62452170 </v>
    <v>       0.37405656       0.61129918       0.62613204 </v>
    <v>       0.37908517       0.38860432       0.37210495 </v>
    <v>       0.75258367       0.75539481       0.75019978 </v>
    <v>       0.74653205       0.25385183       0.24653205 </v>
    <v>       0.25019978       0.75539481       0.25258367 </v>
    <v>       0.24889369       0.24374341       0.74889369 </v>
    <v>       0.98051557       0.00076603       0.98049627 </v>
    <v>       0.99777947       0.43593518       0.49777947 </v>
    <v>       0.48049627       0.00076603       0.48051557 </v>
    <v>       0.50523768       0.56204539       0.00523768 </v>
   </varray>
  </structure>
  <varray name="forces" >
   <v>       0.00143441      -0.00107770       0.00122635 </v>
   <v>      -0.00134607      -0.00058618      -0.00116295 </v>
   <v>       0.00022001       0.00189942       0.00072317 </v>
   <v>      -0.00139516       0.00011857       0.00019516 </v>
   <v>       0.00188638       0.00009034       0.00069081 </v>
   <v>      -0.00196351       0.00246195      -0.00138053 </v>
   <v>       0.00279439      -0.00123143       0.00202574 </v>
   <v>      -0.00129013      -0.00127860      -0.00070993 </v>
   <v>       0.00132781      -0.00089592      -0.00116183 </v>
   <v>      -0.00129049       0.00166530      -0.00129049 </v>
   <v>      -0.00116183      -0.00089592       0.00132781 </v>
   <v>       0.00038729       0.00027379       0.00038729 </v>
   <v>      -0.00116295      -0.00058618      -0.00134607 </v>
   <v>       0.00072317       0.00189942       0.00022001 </v>
   <v>       0.00019516       0.00011857      -0.00139516 </v>
   <v>       0.00122635      -0.00107770       0.00143441 </v>
   <v>       0.00176161       0.00176119       0.00176161 </v>
   <v>       0.00090009      -0.00091398      -0.00231607 </v>
   <v>       0.00186946      -0.00003425       0.00186946 </v>
   <v>      -0.00231607      -0.00091398       0.00090009 </v>
   <v>       0.00069081       0.00009034       0.00188638 </v>
   <v>      -0.00070993      -0.00127860      -0.00129013 </v>
   <v>       0.00202574      -0.00123143       0.00279439 </v>
   <v>      -0.00138053       0.00246195      -0.00196351 </v>
   <v>       0.00055304       0.00086804       0.00071923 </v>
   <v>      -0.00000251      -0.00267523      -0.00000251 </v>
   <v>       0.00071923       0.00086804       0.00055304 </v>
   <v>       0.00079610      -0.00146437       0.00079610 </v>
   <v>      -0.00121114       0.00175608      -0.00121114 </v>
   <v>      -0.00111708       0.00092016       0.00281366 </v>
   <v>      -0.00043390      -0.00041684      -0.00043390 </v>
   <v>       0.00281366       0.00092016      -0.00111708 </v>
   <v>      -0.00032507       0.00021196      -0.00092044 </v>
   <v>      -0.00101032      -0.00083774      -0.00052139 </v>
   <v>      -0.00052755      -0.00112756       0.00028880 </v>
   <v>      -0.00021393      -0.00057167      -0.00078051 </v>
   <v>       0.00215851       0.00178029      -0.00129215 </v>
   <v>      -0.00166866      -0.00147680      -0.00166866 </v>
   <v>      -0.00129215       0.00178029       0.00215851 </v>
   <v>       0.00046518       0.00253928       0.00046518 </v>
   <v>      -0.00092044       0.00021196      -0.00032507 </v>
   <v>      -0.00078051      -0.00057167      -0.00021393 </v>
   <v>       0.00028880      -0.00112756      -0.00052755 </v>
   <v>      -0.00052139      -0.00083774      -0.00101032 </v>
   <v>      -0.00105434       0.00029195       0.00067729 </v>
   <v>      -0.00007820      -0.00241021      -0.00007820 </v>
   <v>       0.00067729       0.00029195      -0.00105434 </v>
   <v>       0.00019800       0.00002995       0.00019800 </v>
   <v>       0.00000556       0.00006066       0.00085929 </v>
   <v>       0.00031986      -0.00036379       0.00031986 </v>
   <v>       0.00085929       0.00006066       0.00000556 </v>
   <v>      -0.00212333       0.00045083      -0.00212333 </v>
  </varray>
  <varray name="stress" >
   <v>     -15.69839573      -1.23257875      -0.49205806 </v>
   <v>      -1.23257874      -9.88803702      -1.23257874 </v>
   <v>      -0.49205806      -1.23257875     -15.69839573 </v>
  </varray>
  <energy>
   <i name="e_fr_energy">   -271.77540648 </i>
   <i name="e_wo_entrp">   -271.77540648 </i>
   <i name="e_0_energy">   -271.77540648 </i>
  </energy>
