unknown system                          
           1
     9.870386    0.000000    0.000000
     0.000000    9.870386    0.000000
     0.000000    0.000000    9.870386
   Li   P    S    Cl
    24     4    20     4
Direct configuration=     1
   0.97545754  0.29218922  0.28680423
   0.98101112  0.79375403  0.80518605
   0.01672496  0.28361936  0.70775303
   0.03268072  0.82232091  0.18645421
   0.17846188  0.18355324  0.97211763
   0.29506697  0.70799043  0.02672963
   0.79956321  0.20299494  0.02112090
   0.71806719  0.71310242  0.98230015
   0.30747315  0.98065973  0.28645151
   0.23819861  0.01364214  0.73819861
   0.78645151  0.98065973  0.80747315
   0.75798978  0.02789344  0.25798978
   0.30518605  0.79375403  0.48101112
   0.20775303  0.28361936  0.51672496
   0.68645421  0.82232091  0.53268072
   0.78680423  0.29218922  0.47545754
   0.29649576  0.45883997  0.79649576
   0.19291217  0.53543370  0.30152741
   0.68932707  0.47635243  0.18932707
   0.80152741  0.53543370  0.69291217
   0.47211763  0.18355324  0.67846188
   0.48230015  0.71310242  0.21806719
   0.52112090  0.20299494  0.29956321
   0.52672963  0.70799043  0.79506697
   0.50065564  0.50016213  0.50258182
   0.49755572  0.00864482  0.99755572
   0.00258182  0.50016213  0.00065564
   0.99538856  0.99005443  0.49538856
   0.11167139  0.86571743  0.61167139
   0.11350661  0.10618329  0.37277527
   0.87852550  0.86763041  0.37852550
   0.87277527  0.10618329  0.61350661
   0.89073291  0.62011238  0.12466834
   0.87823184  0.38756471  0.88057500
   0.12506202  0.61469565  0.88031825
   0.12262699  0.37894928  0.11596805
   0.61254884  0.12876335  0.87681372
   0.61898386  0.89441629  0.11898386
   0.37681372  0.12876335  0.11254884
   0.38039515  0.88521123  0.88039515
   0.62466834  0.62011238  0.39073291
   0.61596805  0.37894928  0.62262699
   0.38031825  0.61469565  0.62506202
   0.38057500  0.38756471  0.37823184
   0.75218538  0.75554905  0.75370581
   0.74671352  0.25516560  0.24671352
   0.25370581  0.75554905  0.25218538
   0.24535768  0.23989093  0.74535768
   0.97818295  0.00168201  0.97571926
   0.99869448  0.42583542  0.49869448
   0.47571926  0.00168201  0.47818295
   0.51398056  0.57214573  0.01398056
Direct configuration=     2
   0.97551407  0.29221030  0.28682751
   0.98105998  0.79381908  0.80525529
   0.01666730  0.28365192  0.70774484
   0.03262780  0.82240566  0.18635807
   0.17838244  0.18348010  0.97215818
   0.29509781  0.70794236  0.02667438
   0.79962587  0.20292545  0.02107227
   0.71805818  0.71308589  0.98236333
   0.30751057  0.98071375  0.28650928
   0.23821474  0.01358248  0.73821474
   0.78650928  0.98071375  0.80751057
   0.75799176  0.02784896  0.25799176
   0.30525529  0.79381908  0.48105998
   0.20774484  0.28365192  0.51666730
   0.68635807  0.82240566  0.53262780
   0.78682751  0.29221030  0.47551407
   0.29660961  0.45892326  0.79660961
   0.19280659  0.53534196  0.30161463
   0.68926560  0.47643967  0.18926560
   0.80161463  0.53534196  0.69280659
   0.47215818  0.18348010  0.67838244
   0.48236333  0.71308589  0.21805818
   0.52107227  0.20292545  0.29962587
   0.52667438  0.70794236  0.79509781
   0.50062027  0.50014424  0.50252504
   0.49755944  0.00861005  0.99755944
   0.00252504  0.50014424  0.00062027
   0.99541731  0.99008607  0.49541731
   0.11214975  0.86501269  0.61214975
   0.11407219  0.10668261  0.37213090
   0.87800766  0.86688093  0.37800766
   0.87213090  0.10668261  0.61407219
   0.89024563  0.62069129  0.12537197
   0.87757099  0.38705793  0.88004897
   0.12559818  0.61521974  0.87968464
   0.12330187  0.37837109  0.11646450
   0.61301960  0.12945199  0.87622317
   0.61956502  0.89391245  0.11956502
   0.37622317  0.12945199  0.11301960
   0.37983113  0.88468010  0.87983113
   0.62537197  0.62069129  0.39024563
   0.61646450  0.37837109  0.62330187
   0.37968464  0.61521974  0.62559818
   0.38004897  0.38705793  0.37757099
   0.75220426  0.75554951  0.75360302
   0.74665544  0.25524305  0.24665544
   0.25360302  0.75554951  0.25220426
   0.24543349  0.23992436  0.74543349
   0.97825967  0.00168272  0.97579972
   0.99869972  0.42611172  0.49869972
   0.47579972  0.00168272  0.47825967
   0.51392637  0.57188904  0.01392637
Direct configuration=     3
   0.97560353  0.29224367  0.28686435
   0.98113731  0.79392202  0.80536485
   0.01657605  0.28370343  0.70773187
   0.03254405  0.82253978  0.18620592
   0.17825674  0.18336435  0.97222236
   0.29514661  0.70786630  0.02658694
   0.79972503  0.20281548  0.02099532
   0.71804391  0.71305971  0.98246330
   0.30756979  0.98079922  0.28660070
   0.23824027  0.01348807  0.73824027
   0.78660070  0.98079922  0.80756979
   0.75799490  0.02777856  0.25799490
   0.30536485  0.79392202  0.48113731
   0.20773187  0.28370343  0.51657605
   0.68620592  0.82253978  0.53254405
   0.78686435  0.29224367  0.47560353
   0.29678979  0.45905506  0.79678979
   0.19263951  0.53519680  0.30175265
   0.68916832  0.47657771  0.18916832
   0.80175265  0.53519680  0.69263951
   0.47222236  0.18336435  0.67825674
   0.48246330  0.71305971  0.21804391
   0.52099532  0.20281548  0.29972503
   0.52658694  0.70786630  0.79514661
   0.50056430  0.50011592  0.50243517
   0.49756532  0.00855503  0.99756532
   0.00243517  0.50011592  0.00056430
   0.99546282  0.99013614  0.49546282
   0.11290676  0.86389743  0.61290676
   0.11496722  0.10747278  0.37111118
   0.87718818  0.86569486  0.37718818
   0.87111118  0.10747278  0.61496722
   0.88947449  0.62160741  0.12648546
   0.87652518  0.38625594  0.87921652
   0.12644665  0.61604912  0.87868195
   0.12436988  0.37745610  0.11725015
   0.61376458  0.13054177  0.87528863
   0.62048471  0.89311511  0.12048471
   0.37528863  0.13054177  0.11376458
   0.37893856  0.88383959  0.87893856
   0.62648546  0.62160741  0.38947449
   0.61725015  0.37745610  0.62436988
   0.37868195  0.61604912  0.62644665
   0.37921652  0.38625594  0.37652518
   0.75223415  0.75555023  0.75344034
   0.74656353  0.25536561  0.24656353
   0.25344034  0.75555023  0.25223415
   0.24555344  0.23997725  0.74555344
   0.97838108  0.00168385  0.97592704
   0.99870803  0.42654897  0.49870803
   0.47592704  0.00168385  0.47838108
   0.51384062  0.57148281  0.01384062
Direct configuration=     4
   0.97560154  0.29224293  0.28686353
   0.98113559  0.79391974  0.80536242
   0.01657807  0.28370229  0.70773216
   0.03254591  0.82253681  0.18620930
   0.17825953  0.18336692  0.97222094
   0.29514553  0.70786799  0.02658888
   0.79972283  0.20281791  0.02099702
   0.71804422  0.71306029  0.98246109
   0.30756848  0.98079732  0.28659867
   0.23823971  0.01349016  0.73823971
   0.78659867  0.98079732  0.80756848
   0.75799483  0.02778012  0.25799483
   0.30536242  0.79391974  0.48113559
   0.20773216  0.28370229  0.51657807
   0.68620930  0.82253681  0.53254591
   0.78686353  0.29224293  0.47560154
   0.29678579  0.45905214  0.79678579
   0.19264321  0.53520002  0.30174960
   0.68917047  0.47657465  0.18917047
   0.80174960  0.53520002  0.69264321
   0.47222094  0.18336692  0.67825953
   0.48246109  0.71306029  0.21804422
   0.52099702  0.20281791  0.29972283
   0.52658888  0.70786799  0.79514553
   0.50056554  0.50011655  0.50243716
   0.49756519  0.00855625  0.99756519
   0.00243716  0.50011655  0.00056554
   0.99546181  0.99013503  0.49546181
   0.11288998  0.86392216  0.61288998
   0.11494738  0.10745526  0.37113378
   0.87720634  0.86572115  0.37720634
   0.87113378  0.10745526  0.61494738
   0.88949159  0.62158711  0.12646077
   0.87654836  0.38627372  0.87923498
   0.12642784  0.61603074  0.87870417
   0.12434620  0.37747638  0.11723274
   0.61374806  0.13051761  0.87530935
   0.62046432  0.89313278  0.12046432
   0.37530935  0.13051761  0.11374806
   0.37895834  0.88385822  0.87895834
   0.62646077  0.62158711  0.38949159
   0.61723274  0.37747638  0.62434620
   0.37870417  0.61603074  0.62642784
   0.37923498  0.38627372  0.37654836
   0.75223349  0.75555022  0.75344395
   0.74656557  0.25536289  0.24656557
   0.25344395  0.75555022  0.25223349
   0.24555078  0.23997608  0.74555078
   0.97837839  0.00168382  0.97592422
   0.99870784  0.42653928  0.49870784
   0.47592422  0.00168382  0.47837839
   0.51384252  0.57149182  0.01384252
Direct configuration=     5
   0.97563738  0.29229530  0.28689975
   0.98115584  0.79402323  0.80547594
   0.01654610  0.28375800  0.70770776
   0.03249202  0.82267308  0.18606691
   0.17813211  0.18324778  0.97224660
   0.29519281  0.70778555  0.02656106
   0.79981367  0.20270433  0.02096427
   0.71802398  0.71301797  0.98249374
   0.30764545  0.98082834  0.28666944
   0.23823529  0.01348230  0.73823529
   0.78666944  0.98082834  0.80764545
   0.75803354  0.02779014  0.25803354
   0.30547594  0.79402323  0.48115584
   0.20770776  0.28375800  0.51654610
   0.68606691  0.82267308  0.53249202
   0.78689975  0.29229530  0.47563738
   0.29695662  0.45911964  0.79695662
   0.19247956  0.53511568  0.30187584
   0.68907581  0.47668018  0.18907581
   0.80187584  0.53511568  0.69247956
   0.47224660  0.18324778  0.67813211
   0.48249374  0.71301797  0.21802398
   0.52096427  0.20270433  0.29981367
   0.52656106  0.70778555  0.79519281
   0.50063121  0.50013464  0.50245351
   0.49754049  0.00871408  0.99754049
   0.00245351  0.50013464  0.00063121
   0.99539508  0.98997983  0.49539508
   0.11281602  0.86373887  0.61281602
   0.11494223  0.10740940  0.37103057
   0.87731818  0.86559368  0.37731818
   0.87103057  0.10740940  0.61494223
   0.88958804  0.62154323  0.12658916
   0.87639736  0.38628668  0.87925923
   0.12635619  0.61598692  0.87861760
   0.12444696  0.37753625  0.11712236
   0.61363500  0.13062708  0.87534232
   0.62048296  0.89313909  0.12048296
   0.37534232  0.13062708  0.11363500
   0.37893036  0.88386596  0.87893036
   0.62658916  0.62154323  0.38958804
   0.61712236  0.37753625  0.62444696
   0.37861760  0.61598692  0.62635619
   0.37925923  0.38628668  0.37639736
   0.75225214  0.75554792  0.75335944
   0.74651413  0.25542868  0.24651413
   0.25335944  0.75554792  0.25225214
   0.24561521  0.24000412  0.74561521
   0.97847521  0.00168093  0.97602788
   0.99871303  0.42687183  0.49871303
   0.47602788  0.00168093  0.47847521
   0.51376661  0.57118697  0.01376661
Direct configuration=     6
   0.97574490  0.29245240  0.28700842
   0.98121658  0.79433368  0.80581651
   0.01645019  0.28392514  0.70763457
   0.03233034  0.82308188  0.18563976
   0.17774987  0.18289035  0.97232359
   0.29533466  0.70753825  0.02647762
   0.80008619  0.20236360  0.02086602
   0.71796327  0.71289101  0.98259168
   0.30787636  0.98092139  0.28688174
   0.23822204  0.01345872  0.73822204
   0.78688174  0.98092139  0.80787636
   0.75814965  0.02782019  0.25814965
   0.30581651  0.79433368  0.48121658
   0.20763457  0.28392514  0.51645019
   0.68563976  0.82308188  0.53233034
   0.78700842  0.29245240  0.47574490
   0.29746909  0.45932215  0.79746909
   0.19198861  0.53486269  0.30225458
   0.68879184  0.47699676  0.18879184
   0.80225458  0.53486269  0.69198861
   0.47232359  0.18289035  0.67774987
   0.48259168  0.71289101  0.21796327
   0.52086602  0.20236360  0.30008619
   0.52647762  0.70753825  0.79533466
   0.50082822  0.50018892  0.50250257
   0.49746639  0.00918758  0.99746639
   0.00250257  0.50018892  0.00082822
   0.99519489  0.98951421  0.49519489
   0.11259414  0.86318902  0.61259414
   0.11492676  0.10727182  0.37072092
   0.87765370  0.86521128  0.37765370
   0.87072092  0.10727182  0.61492676
   0.88987742  0.62141161  0.12697433
   0.87594435  0.38632557  0.87933198
   0.12614124  0.61585546  0.87835789
   0.12474923  0.37771587  0.11679125
   0.61329582  0.13095546  0.87544125
   0.62053886  0.89315800  0.12053886
   0.37544125  0.13095546  0.11329582
   0.37884640  0.88388915  0.87884640
   0.62697433  0.62141161  0.38987742
   0.61679125  0.37771587  0.62474923
   0.37835789  0.61585546  0.62614124
   0.37933198  0.38632557  0.37594435
   0.75230811  0.75554101  0.75310592
   0.74635982  0.25562606  0.24635982
   0.25310592  0.75554101  0.25230811
   0.24580847  0.24008826  0.74580847
   0.97876567  0.00167223  0.97633887
   0.99872858  0.42786950  0.49872858
   0.47633887  0.00167223  0.47876567
   0.51353887  0.57027242  0.01353887
Direct configuration=     7
   0.97595994  0.29276661  0.28722575
   0.98133806  0.79495460  0.80649764
   0.01625838  0.28425941  0.70748818
   0.03200698  0.82389947  0.18478544
   0.17698539  0.18217549  0.97247757
   0.29561836  0.70704366  0.02631075
   0.80063124  0.20168212  0.02066951
   0.71784184  0.71263709  0.98278758
   0.30833818  0.98110748  0.28730633
   0.23819554  0.01341154  0.73819554
   0.78730633  0.98110748  0.80833818
   0.75838189  0.02788030  0.25838189
   0.30649764  0.79495460  0.48133806
   0.20748818  0.28425941  0.51625838
   0.68478544  0.82389947  0.53200698
   0.78722575  0.29276661  0.47595994
   0.29849403  0.45972717  0.79849403
   0.19100671  0.53435671  0.30301207
   0.68822389  0.47762992  0.18822389
   0.80301207  0.53435671  0.69100671
   0.47247757  0.18217549  0.67698539
   0.48278758  0.71263709  0.21784184
   0.52066951  0.20168212  0.30063124
   0.52631075  0.70704366  0.79561836
   0.50122224  0.50029748  0.50260068
   0.49731818  0.01013458  0.99731818
   0.00260068  0.50029748  0.00122224
   0.99479451  0.98858298  0.49479451
   0.11215040  0.86208932  0.61215040
   0.11489583  0.10699666  0.37010162
   0.87832473  0.86444647  0.37832473
   0.87010162  0.10699666  0.61489583
   0.89045616  0.62114837  0.12774467
   0.87503834  0.38640334  0.87947749
   0.12571133  0.61559254  0.87783846
   0.12535376  0.37807511  0.11612903
   0.61261746  0.13161224  0.87563909
   0.62065065  0.89319583  0.12065065
   0.37563909  0.13161224  0.11261746
   0.37867849  0.88393555  0.87867849
   0.62774467  0.62114837  0.39045616
   0.61612903  0.37807511  0.62535376
   0.37783846  0.61559254  0.62571133
   0.37947749  0.38640334  0.37503834
   0.75242004  0.75552719  0.75259887
   0.74605120  0.25602082  0.24605120
   0.25259887  0.75552719  0.25242004
   0.24619500  0.24025653  0.74619500
   0.97934659  0.00165485  0.97696085
   0.99875968  0.42986482  0.49875968
   0.47696085  0.00165485  0.47934659
   0.51308340  0.56844332  0.01308340
Direct configuration=     8
   0.97598436  0.29281338  0.28724346
   0.98135105  0.79503027  0.80658345
   0.01623743  0.28430448  0.70747652
   0.03197794  0.82401122  0.18467092
   0.17688313  0.18208168  0.97249010
   0.29564553  0.70697831  0.02629261
   0.80070071  0.20159974  0.02065065
   0.71783317  0.71259906  0.98280127
   0.30839805  0.98113006  0.28734141
   0.23817484  0.01339583  0.73817484
   0.78734141  0.98113006  0.80839805
   0.75842134  0.02788593  0.25842134
   0.30658345  0.79503027  0.48135105
   0.20747652  0.28430448  0.51623743
   0.68467092  0.82401122  0.53197794
   0.78724346  0.29281338  0.47598436
   0.29863547  0.45976351  0.79863547
   0.19087674  0.53431193  0.30311852
   0.68814768  0.47769481  0.18814768
   0.80311852  0.53431193  0.69087674
   0.47249010  0.18208168  0.67688313
   0.48280127  0.71259906  0.21783317
   0.52065065  0.20159974  0.30070071
   0.52629261  0.70697831  0.79564553
   0.50117337  0.50027837  0.50256783
   0.49730344  0.01011356  0.99730344
   0.00256783  0.50027837  0.00117337
   0.99482670  0.98858457  0.49482670
   0.11210764  0.86198585  0.61210764
   0.11484340  0.10693567  0.37007533
   0.87831435  0.86429046  0.37831435
   0.87007533  0.10693567  0.61484340
   0.89051014  0.62113084  0.12784775
   0.87497269  0.38645107  0.87954569
   0.12564976  0.61556319  0.87778422
   0.12544076  0.37809241  0.11607483
   0.61259130  0.13171532  0.87562948
   0.62062117  0.89324325  0.12062117
   0.37562948  0.13171532  0.11259130
   0.37869500  0.88396854  0.87869500
   0.62784775  0.62113084  0.39051014
   0.61607483  0.37809241  0.62544076
   0.37778422  0.61556319  0.62564976
   0.37954569  0.38645107  0.37497269
   0.75242905  0.75552425  0.75255697
   0.74602636  0.25606207  0.24602636
   0.25255697  0.75552425  0.25242905
   0.24622719  0.24027905  0.74622719
   0.97941692  0.00165054  0.97704349
   0.99876270  0.43010577  0.49876270
   0.47704349  0.00165054  0.47941692
   0.51302614  0.56822325  0.01302614
Direct configuration=     9
   0.97605760  0.29295371  0.28729658
   0.98139000  0.79525727  0.80684091
   0.01617458  0.28443968  0.70744154
   0.03189082  0.82434644  0.18432735
   0.17657635  0.18180026  0.97252767
   0.29572704  0.70678226  0.02623819
   0.80090915  0.20135259  0.02059406
   0.71780716  0.71248494  0.98284232
   0.30857766  0.98119780  0.28744665
   0.23811274  0.01334870  0.73811274
   0.78744665  0.98119780  0.80857766
   0.75853968  0.02790284  0.25853968
   0.30684091  0.79525727  0.48139000
   0.20744154  0.28443968  0.51617458
   0.68432735  0.82434644  0.53189082
   0.78729658  0.29295371  0.47605760
   0.29905979  0.45987253  0.79905979
   0.19048683  0.53417761  0.30343787
   0.68791907  0.47788947  0.18791907
   0.80343787  0.53417761  0.69048683
   0.47252767  0.18180026  0.67657635
   0.48284232  0.71248494  0.21780716
   0.52059406  0.20135259  0.30090915
   0.52623819  0.70678226  0.79572704
   0.50102675  0.50022103  0.50246928
   0.49725923  0.01005049  0.99725923
   0.00246928  0.50022103  0.00102675
   0.99492327  0.98858935  0.49492327
   0.11197936  0.86167544  0.61197936
   0.11468611  0.10675269  0.36999646
   0.87828319  0.86382245  0.37828319
   0.86999646  0.10675269  0.61468611
   0.89067206  0.62107823  0.12815696
   0.87477576  0.38659425  0.87975029
   0.12546505  0.61547512  0.87762148
   0.12570176  0.37814431  0.11591225
   0.61251281  0.13202456  0.87560065
   0.62053273  0.89338553  0.12053273
   0.37560065  0.13202456  0.11251281
   0.37874453  0.88406750  0.87874453
   0.62815696  0.62107823  0.39067206
   0.61591225  0.37814431  0.62570176
   0.37762148  0.61547512  0.62546505
   0.37975029  0.38659425  0.37477576
   0.75245607  0.75551543  0.75243129
   0.74595184  0.25618579  0.24595184
   0.25243129  0.75551543  0.25245607
   0.24632378  0.24034662  0.74632378
   0.97962790  0.00163764  0.97729141
   0.99877175  0.43082863  0.49877175
   0.47729141  0.00163764  0.47962790
   0.51285435  0.56756304  0.01285435
Direct configuration=    10
   0.97620410  0.29323436  0.28740283
   0.98146790  0.79571128  0.80735583
   0.01604888  0.28471007  0.70737158
   0.03171658  0.82501690  0.18364020
   0.17596279  0.18123742  0.97260283
   0.29589005  0.70639015  0.02612934
   0.80132601  0.20085828  0.02048088
   0.71775513  0.71225670  0.98292444
   0.30893689  0.98133328  0.28765713
   0.23798855  0.01325442  0.73798855
   0.78765713  0.98133328  0.80893689
   0.75877637  0.02793664  0.25877637
   0.30735583  0.79571128  0.48146790
   0.20737158  0.28471007  0.51604888
   0.68364020  0.82501690  0.53171658
   0.78740283  0.29323436  0.47620410
   0.29990842  0.46009056  0.79990842
   0.18970702  0.53390896  0.30407658
   0.68746184  0.47827880  0.18746184
   0.80407658  0.53390896  0.68970702
   0.47260283  0.18123742  0.67596279
   0.48292444  0.71225670  0.21775513
   0.52048088  0.20085828  0.30132601
   0.52612934  0.70639015  0.79589005
   0.50073351  0.50010636  0.50227218
   0.49717081  0.00992435  0.99717081
   0.00227218  0.50010636  0.00073351
   0.99511641  0.98859892  0.49511641
   0.11172281  0.86105462  0.61172281
   0.11437153  0.10638673  0.36983872
   0.87822088  0.86288642  0.37822088
   0.86983872  0.10638673  0.61437153
   0.89099591  0.62097303  0.12877539
   0.87438190  0.38688062  0.88015949
   0.12509563  0.61529897  0.87729602
   0.12622375  0.37824811  0.11558709
   0.61235585  0.13264305  0.87554298
   0.62035585  0.89367008  0.12035585
   0.37554298  0.13264305  0.11235585
   0.37884358  0.88426542  0.87884358
   0.62877539  0.62097303  0.39099591
   0.61558709  0.37824811  0.62622375
   0.37729602  0.61529897  0.62509563
   0.38015949  0.38688062  0.37438190
   0.75251011  0.75549780  0.75217991
   0.74580279  0.25643324  0.24580279
   0.25217991  0.75549780  0.25251011
   0.24651695  0.24048175  0.74651695
   0.98004987  0.00161183  0.97778726
   0.99878986  0.43227433  0.49878986
   0.47778726  0.00161183  0.48004987
   0.51251077  0.56624262  0.01251077
Direct configuration=    11
   0.97618885  0.29327268  0.28735536
   0.98145274  0.79570345  0.80736086
   0.01606229  0.28472790  0.70739703
   0.03174713  0.82505254  0.18361975
   0.17594539  0.18122077  0.97259160
   0.29585052  0.70636395  0.02614791
   0.80132378  0.20086211  0.02051451
   0.71778905  0.71222554  0.98289296
   0.30894393  0.98133084  0.28758028
   0.23793026  0.01322948  0.73793026
   0.78758028  0.98133084  0.80894393
   0.75882014  0.02792236  0.25882014
   0.30736086  0.79570345  0.48145274
   0.20739703  0.28472790  0.51606229
   0.68361975  0.82505254  0.53174713
   0.78735536  0.29327268  0.47618885
   0.29997356  0.46003057  0.79997356
   0.18965838  0.53399169  0.30411793
   0.68744694  0.47822470  0.18744694
   0.80411793  0.53399169  0.68965838
   0.47259160  0.18122077  0.67594539
   0.48289296  0.71222554  0.21778905
   0.52051451  0.20086211  0.30132378
   0.52614791  0.70636395  0.79585052
   0.50071173  0.50010149  0.50223755
   0.49718618  0.00987611  0.99718618
   0.00223755  0.50010149  0.00071173
   0.99512066  0.98858708  0.49512066
   0.11180762  0.86115613  0.61180762
   0.11430756  0.10639782  0.36994148
   0.87811021  0.86292116  0.37811021
   0.86994148  0.10639782  0.61430756
   0.89096875  0.62097135  0.12872363
   0.87441891  0.38689135  0.88019277
   0.12510027  0.61533529  0.87728583
   0.12620087  0.37819881  0.11561979
   0.61247306  0.13260516  0.87550954
   0.62029903  0.89370422  0.12029903
   0.37550954  0.13260516  0.11247306
   0.37887508  0.88424537  0.87887508
   0.62872363  0.62097135  0.39096875
   0.61561979  0.37819881  0.62620087
   0.37728583  0.61533529  0.62510027
   0.38019277  0.38689135  0.37441891
   0.75249164  0.75549686  0.75227129
   0.74585675  0.25639936  0.24585675
   0.25227129  0.75549686  0.25249164
   0.24644267  0.24047542  0.74644267
   0.98004454  0.00160571  0.97780102
   0.99879099  0.43223293  0.49879099
   0.47780102  0.00160571  0.48004454
   0.51249944  0.56628445  0.01249944
Direct configuration=    12
   0.97614388  0.29338572  0.28721535
   0.98140802  0.79568035  0.80737572
   0.01610183  0.28478050  0.70747208
   0.03183723  0.82515768  0.18355942
   0.17589409  0.18117167  0.97255847
   0.29573393  0.70628667  0.02620266
   0.80131718  0.20087339  0.02061372
   0.71788911  0.71213362  0.98280009
   0.30896470  0.98132363  0.28735360
   0.23775832  0.01315590  0.73775832
   0.78735360  0.98132363  0.80896470
   0.75894925  0.02788025  0.25894925
   0.30737572  0.79568035  0.48140802
   0.20747208  0.28478050  0.51610183
   0.68355942  0.82515768  0.53183723
   0.78721535  0.29338572  0.47614388
   0.30016570  0.45985361  0.80016570
   0.18951491  0.53423572  0.30423991
   0.68740299  0.47806514  0.18740299
   0.80423991  0.53423572  0.68951491
   0.47255847  0.18117167  0.67589409
   0.48280009  0.71213362  0.21788911
   0.52061372  0.20087339  0.30131718
   0.52620266  0.70628667  0.79573393
   0.50064750  0.50008713  0.50213541
   0.49723151  0.00973383  0.99723151
   0.00213541  0.50008713  0.00064750
   0.99513320  0.98855217  0.49513320
   0.11205778  0.86145555  0.61205778
   0.11411888  0.10643052  0.37024460
   0.87778374  0.86302364  0.37778374
   0.87024460  0.10643052  0.61411888
   0.89088864  0.62096639  0.12857097
   0.87452809  0.38692301  0.88029092
   0.12511394  0.61544243  0.87725576
   0.12613337  0.37805340  0.11571623
   0.61281879  0.13249341  0.87541091
   0.62013144  0.89380490  0.12013144
   0.37541091  0.13249341  0.11281879
   0.37896798  0.88418624  0.87896798
   0.62857097  0.62096639  0.39088864
   0.61571623  0.37805340  0.62613337
   0.37725576  0.61544243  0.62511394
   0.38029092  0.38692301  0.37452809
   0.75243715  0.75549407  0.75254082
   0.74601590  0.25629943  0.24601590
   0.25254082  0.75549407  0.25243715
   0.24622358  0.24045676  0.74622358
   0.98002881  0.00158766  0.97784161
   0.99879433  0.43211082  0.49879433
   0.47784161  0.00158766  0.48002881
   0.51246602  0.56640781  0.01246602
Direct configuration=    13
   0.97605394  0.29361179  0.28693533
   0.98131858  0.79563415  0.80740542
   0.01618092  0.28488569  0.70762218
   0.03201744  0.82536796  0.18343875
   0.17579147  0.18107347  0.97249221
   0.29550073  0.70613210  0.02631216
   0.80130400  0.20089596  0.02081212
   0.71808922  0.71194977  0.98261435
   0.30900623  0.98130923  0.28690024
   0.23741444  0.01300875  0.73741444
   0.78690024  0.98130923  0.80900623
   0.75920747  0.02779604  0.25920747
   0.30740542  0.79563415  0.48131858
   0.20762218  0.28488569  0.51618092
   0.68343875  0.82536796  0.53201744
   0.78693533  0.29361179  0.47605394
   0.30054998  0.45949970  0.80054998
   0.18922796  0.53472379  0.30448386
   0.68731510  0.47774601  0.18731510
   0.80448386  0.53472379  0.68922796
   0.47249221  0.18107347  0.67579147
   0.48261435  0.71194977  0.21808922
   0.52081212  0.20089596  0.30130400
   0.52631216  0.70613210  0.79550073
   0.50051903  0.50005841  0.50193111
   0.49732217  0.00944927  0.99732217
   0.00193111  0.50005841  0.00051903
   0.99515829  0.98848235  0.49515829
   0.11255812  0.86205438  0.61255812
   0.11374151  0.10649592  0.37085083
   0.87713081  0.86322858  0.37713081
   0.87085083  0.10649592  0.61374151
   0.89072843  0.62095648  0.12826564
   0.87474644  0.38698632  0.88048721
   0.12514128  0.61565670  0.87719563
   0.12599837  0.37776258  0.11590911
   0.61351026  0.13226990  0.87521364
   0.61979625  0.89400628  0.11979625
   0.37521364  0.13226990  0.11351026
   0.37915378  0.88406797  0.87915378
   0.62826564  0.62095648  0.39072843
   0.61590911  0.37776258  0.62599837
   0.37719563  0.61565670  0.62514128
   0.38048721  0.38698632  0.37474644
   0.75232818  0.75548850  0.75307989
   0.74633419  0.25609957  0.24633419
   0.25307989  0.75548850  0.25232818
   0.24578538  0.24041944  0.74578538
   0.97999734  0.00155156  0.97792280
   0.99880103  0.43186658  0.49880103
   0.47792280  0.00155156  0.47999734
   0.51239919  0.56665453  0.01239919
Direct configuration=    14
   0.97608620  0.29353070  0.28703577
   0.98135066  0.79565072  0.80739477
   0.01615255  0.28484796  0.70756834
   0.03195280  0.82529253  0.18348203
   0.17582828  0.18110869  0.97251598
   0.29558437  0.70618754  0.02627288
   0.80130873  0.20088787  0.02074096
   0.71801744  0.71201571  0.98268097
   0.30899133  0.98131440  0.28706286
   0.23753778  0.01306153  0.73753778
   0.78706286  0.98131440  0.80899133
   0.75911485  0.02782624  0.25911485
   0.30739477  0.79565072  0.48135066
   0.20756834  0.28484796  0.51615255
   0.68348203  0.82529253  0.53195280
   0.78703577  0.29353070  0.47608620
   0.30041214  0.45962664  0.80041214
   0.18933089  0.53454873  0.30439636
   0.68734663  0.47786048  0.18734663
   0.80439636  0.53454873  0.68933089
   0.47251598  0.18110869  0.67582828
   0.48268097  0.71201571  0.21801744
   0.52074096  0.20088787  0.30130873
   0.52627288  0.70618754  0.79558437
   0.50056511  0.50006871  0.50200439
   0.49728965  0.00955134  0.99728965
   0.00200439  0.50006871  0.00056511
   0.99514929  0.98850740  0.49514929
   0.11237865  0.86183959  0.61237865
   0.11387687  0.10647246  0.37063338
   0.87736501  0.86315507  0.37736501
   0.87063338  0.10647246  0.61387687
   0.89078589  0.62096003  0.12837516
   0.87466812  0.38696361  0.88041680
   0.12513147  0.61557985  0.87721720
   0.12604680  0.37786689  0.11583993
   0.61326224  0.13235007  0.87528439
   0.61991648  0.89393405  0.11991648
   0.37528439  0.13235007  0.11326224
   0.37908714  0.88411039  0.87908714
   0.62837516  0.62096003  0.39078589
   0.61583993  0.37786689  0.62604680
   0.37721720  0.61557985  0.62513147
   0.38041680  0.38696361  0.37466812
   0.75236726  0.75549050  0.75288653
   0.74622002  0.25617125  0.24622002
   0.25288653  0.75549050  0.25236726
   0.24594255  0.24043283  0.74594255
   0.98000862  0.00156451  0.97789368
   0.99879863  0.43195419  0.49879863
   0.47789368  0.00156451  0.48000862
   0.51242316  0.56656604  0.01242316
Direct configuration=    15
   0.97605241  0.29364022  0.28692946
   0.98130885  0.79565471  0.80742325
   0.01617030  0.28491539  0.70762566
   0.03204981  0.82541343  0.18339971
   0.17577817  0.18103911  0.97248814
   0.29548231  0.70609442  0.02630436
   0.80132009  0.20088126  0.02085226
   0.71808562  0.71191900  0.98263030
   0.30898122  0.98130071  0.28689278
   0.23745186  0.01307118  0.73745186
   0.78689278  0.98130071  0.80898122
   0.75919187  0.02782356  0.25919187
   0.30742325  0.79565471  0.48130885
   0.20762566  0.28491539  0.51617030
   0.68339971  0.82541343  0.53204981
   0.78692946  0.29364022  0.47605241
   0.30063789  0.45946666  0.80063789
   0.18915213  0.53476006  0.30454231
   0.68728953  0.47769515  0.18728953
   0.80454231  0.53476006  0.68915213
   0.47248814  0.18103911  0.67577817
   0.48263030  0.71191900  0.21808562
   0.52085226  0.20088126  0.30132009
   0.52630436  0.70609442  0.79548231
   0.50060905  0.50009238  0.50218704
   0.49721775  0.00983407  0.99721775
   0.00218704  0.50009238  0.00060905
   0.99507217  0.98825364  0.49507217
   0.11246180  0.86200088  0.61246180
   0.11386750  0.10654360  0.37073928
   0.87729713  0.86328054  0.37729713
   0.87073928  0.10654360  0.61386750
   0.89070832  0.62098555  0.12829906
   0.87462635  0.38690622  0.88037452
   0.12509912  0.61557687  0.87724052
   0.12592542  0.37786388  0.11582932
   0.61334811  0.13217888  0.87533026
   0.61996995  0.89384852  0.11996995
   0.37533026  0.13217888  0.11334811
   0.37909871  0.88407158  0.87909871
   0.62829906  0.62098555  0.39070832
   0.61582932  0.37786388  0.62592542
   0.37724052  0.61557687  0.62509912
   0.38037452  0.38690622  0.37462635