  52  52   0  16
  0.1728427E+02  0.9650536E-09  0.9650536E-09  0.9650536E-09  0.2000000E-15
  1.000000000000000E-004
  CAR 
 unknown system                          
     12.60321126    -45.23551412  301      2.04764388      1.00000000
    -45.236  0.0000E+00  0.0000E+00  0.0000E+00  0.0000E+00
    -45.043  0.0000E+00  0.0000E+00  0.0000E+00  0.0000E+00
    -44.850  0.0000E+00  0.0000E+00  0.0000E+00  0.0000E+00
    -44.657  0.0000E+00  0.0000E+00  0.0000E+00  0.0000E+00
    -44.464  0.0000E+00  0.0000E+00  0.0000E+00  0.0000E+00
    -44.272  0.0000E+00  0.0000E+00  0.0000E+00  0.0000E+00
    -44.079  0.0000E+00  0.0000E+00  0.0000E+00  0.0000E+00
    -43.886  0.0000E+00  0.0000E+00  0.0000E+00  0.0000E+00
    -43.693  0.0000E+00  0.0000E+00  0.0000E+00  0.0000E+00
    -43.500  0.0000E+00  0.0000E+00  0.0000E+00  0.0000E+00
    -43.308  0.0000E+00  0.0000E+00  0.0000E+00  0.0000E+00
    -43.115  0.0000E+00  0.0000E+00  0.0000E+00  0.0000E+00
    -42.922  0.0000E+00  0.0000E+00  0.0000E+00  0.0000E+00
    -42.729  0.1896E-10  0.1896E-10  0.3656E-11  0.3656E-11
    -42.536  0.1005E-01  0.1005E-01  0.1938E-02  0.1938E-02
    -42.344  0.4991E-01  0.4991E-01  0.1156E-01  0.1156E-01
    -42.151  0.6281E-01  0.6281E-01  0.2367E-01  0.2367E-01
    -41.958  0.1701E-02  0.1701E-02  0.2400E-01  0.2400E-01
    -41.765  0.0000E+00  0.0000E+00  0.2400E-01  0.2400E-01
    -41.572  0.0000E+00  0.0000E+00  0.2400E-01  0.2400E-01
    -41.380  0.0000E+00  0.0000E+00  0.2400E-01  0.2400E-01
    -41.187  0.0000E+00  0.0000E+00  0.2400E-01  0.2400E-01
    -40.994  0.0000E+00  0.0000E+00  0.2400E-01  0.2400E-01
    -40.801  0.0000E+00  0.0000E+00  0.2400E-01  0.2400E-01
    -40.608  0.0000E+00  0.0000E+00  0.2400E-01  0.2400E-01
    -40.416  0.0000E+00  0.0000E+00  0.2400E-01  0.2400E-01
    -40.223  0.0000E+00  0.0000E+00  0.2400E-01  0.2400E-01
    -40.030  0.0000E+00  0.0000E+00  0.2400E-01  0.2400E-01
    -39.837  0.0000E+00  0.0000E+00  0.2400E-01  0.2400E-01
    -39.644  0.0000E+00  0.0000E+00  0.2400E-01  0.2400E-01
    -39.452  0.0000E+00  0.0000E+00  0.2400E-01  0.2400E-01
    -39.259  0.0000E+00  0.0000E+00  0.2400E-01  0.2400E-01
    -39.066  0.0000E+00  0.0000E+00  0.2400E-01  0.2400E-01
    -38.873  0.0000E+00  0.0000E+00  0.2400E-01  0.2400E-01
    -38.680  0.0000E+00  0.0000E+00  0.2400E-01  0.2400E-01
    -38.488  0.0000E+00  0.0000E+00  0.2400E-01  0.2400E-01
    -38.295  0.0000E+00  0.0000E+00  0.2400E-01  0.2400E-01
    -38.102  0.0000E+00  0.0000E+00  0.2400E-01  0.2400E-01
    -37.909  0.0000E+00  0.0000E+00  0.2400E-01  0.2400E-01
    -37.716  0.0000E+00  0.0000E+00  0.2400E-01  0.2400E-01
    -37.524  0.0000E+00  0.0000E+00  0.2400E-01  0.2400E-01
    -37.331  0.0000E+00  0.0000E+00  0.2400E-01  0.2400E-01
    -37.138  0.0000E+00  0.0000E+00  0.2400E-01  0.2400E-01
    -36.945  0.0000E+00  0.0000E+00  0.2400E-01  0.2400E-01
    -36.753  0.0000E+00  0.0000E+00  0.2400E-01  0.2400E-01
    -36.560  0.0000E+00  0.0000E+00  0.2400E-01  0.2400E-01
    -36.367  0.0000E+00  0.0000E+00  0.2400E-01  0.2400E-01
    -36.174  0.0000E+00  0.0000E+00  0.2400E-01  0.2400E-01
    -35.981  0.0000E+00  0.0000E+00  0.2400E-01  0.2400E-01
    -35.789  0.0000E+00  0.0000E+00  0.2400E-01  0.2400E-01
    -35.596  0.0000E+00  0.0000E+00  0.2400E-01  0.2400E-01
    -35.403  0.0000E+00  0.0000E+00  0.2400E-01  0.2400E-01
    -35.210  0.0000E+00  0.0000E+00  0.2400E-01  0.2400E-01
    -35.017  0.0000E+00  0.0000E+00  0.2400E-01  0.2400E-01
    -34.825  0.0000E+00  0.0000E+00  0.2400E-01  0.2400E-01
    -34.632  0.0000E+00  0.0000E+00  0.2400E-01  0.2400E-01
    -34.439  0.0000E+00  0.0000E+00  0.2400E-01  0.2400E-01
    -34.246  0.0000E+00  0.0000E+00  0.2400E-01  0.2400E-01
    -34.053  0.0000E+00  0.0000E+00  0.2400E-01  0.2400E-01
    -33.861  0.0000E+00  0.0000E+00  0.2400E-01  0.2400E-01
    -33.668  0.0000E+00  0.0000E+00  0.2400E-01  0.2400E-01
    -33.475  0.0000E+00  0.0000E+00  0.2400E-01  0.2400E-01
    -33.282  0.0000E+00  0.0000E+00  0.2400E-01  0.2400E-01
    -33.089  0.0000E+00  0.0000E+00  0.2400E-01  0.2400E-01
    -32.897  0.0000E+00  0.0000E+00  0.2400E-01  0.2400E-01
    -32.704  0.0000E+00  0.0000E+00  0.2400E-01  0.2400E-01
    -32.511  0.0000E+00  0.0000E+00  0.2400E-01  0.2400E-01
    -32.318  0.0000E+00  0.0000E+00  0.2400E-01  0.2400E-01
    -32.125  0.0000E+00  0.0000E+00  0.2400E-01  0.2400E-01
    -31.933  0.0000E+00  0.0000E+00  0.2400E-01  0.2400E-01
    -31.740  0.0000E+00  0.0000E+00  0.2400E-01  0.2400E-01
    -31.547  0.0000E+00  0.0000E+00  0.2400E-01  0.2400E-01
    -31.354  0.0000E+00  0.0000E+00  0.2400E-01  0.2400E-01
    -31.161  0.0000E+00  0.0000E+00  0.2400E-01  0.2400E-01
    -30.969  0.0000E+00  0.0000E+00  0.2400E-01  0.2400E-01
    -30.776  0.0000E+00  0.0000E+00  0.2400E-01  0.2400E-01
    -30.583  0.0000E+00  0.0000E+00  0.2400E-01  0.2400E-01
    -30.390  0.0000E+00  0.0000E+00  0.2400E-01  0.2400E-01
    -30.197  0.0000E+00  0.0000E+00  0.2400E-01  0.2400E-01
    -30.005  0.0000E+00  0.0000E+00  0.2400E-01  0.2400E-01
    -29.812  0.0000E+00  0.0000E+00  0.2400E-01  0.2400E-01
    -29.619  0.0000E+00  0.0000E+00  0.2400E-01  0.2400E-01
    -29.426  0.0000E+00  0.0000E+00  0.2400E-01  0.2400E-01
    -29.233  0.0000E+00  0.0000E+00  0.2400E-01  0.2400E-01
    -29.041  0.0000E+00  0.0000E+00  0.2400E-01  0.2400E-01
    -28.848  0.0000E+00  0.0000E+00  0.2400E-01  0.2400E-01
    -28.655  0.0000E+00  0.0000E+00  0.2400E-01  0.2400E-01
    -28.462  0.0000E+00  0.0000E+00  0.2400E-01  0.2400E-01
    -28.269  0.0000E+00  0.0000E+00  0.2400E-01  0.2400E-01
    -28.077  0.0000E+00  0.0000E+00  0.2400E-01  0.2400E-01
    -27.884  0.0000E+00  0.0000E+00  0.2400E-01  0.2400E-01
    -27.691  0.0000E+00  0.0000E+00  0.2400E-01  0.2400E-01
    -27.498  0.0000E+00  0.0000E+00  0.2400E-01  0.2400E-01
    -27.306  0.0000E+00  0.0000E+00  0.2400E-01  0.2400E-01
    -27.113  0.0000E+00  0.0000E+00  0.2400E-01  0.2400E-01
    -26.920  0.0000E+00  0.0000E+00  0.2400E-01  0.2400E-01
    -26.727  0.0000E+00  0.0000E+00  0.2400E-01  0.2400E-01
    -26.534  0.0000E+00  0.0000E+00  0.2400E-01  0.2400E-01
    -26.342  0.0000E+00  0.0000E+00  0.2400E-01  0.2400E-01
    -26.149  0.0000E+00  0.0000E+00  0.2400E-01  0.2400E-01
    -25.956  0.0000E+00  0.0000E+00  0.2400E-01  0.2400E-01
    -25.763  0.0000E+00  0.0000E+00  0.2400E-01  0.2400E-01
    -25.570  0.0000E+00  0.0000E+00  0.2400E-01  0.2400E-01
    -25.378  0.0000E+00  0.0000E+00  0.2400E-01  0.2400E-01
    -25.185  0.0000E+00  0.0000E+00  0.2400E-01  0.2400E-01
    -24.992  0.0000E+00  0.0000E+00  0.2400E-01  0.2400E-01
    -24.799  0.0000E+00  0.0000E+00  0.2400E-01  0.2400E-01
    -24.606  0.0000E+00  0.0000E+00  0.2400E-01  0.2400E-01
    -24.414  0.0000E+00  0.0000E+00  0.2400E-01  0.2400E-01
    -24.221  0.0000E+00  0.0000E+00  0.2400E-01  0.2400E-01
    -24.028  0.0000E+00  0.0000E+00  0.2400E-01  0.2400E-01
    -23.835  0.0000E+00  0.0000E+00  0.2400E-01  0.2400E-01
    -23.642  0.0000E+00  0.0000E+00  0.2400E-01  0.2400E-01
    -23.450  0.0000E+00  0.0000E+00  0.2400E-01  0.2400E-01
    -23.257  0.0000E+00  0.0000E+00  0.2400E-01  0.2400E-01
    -23.064  0.0000E+00  0.0000E+00  0.2400E-01  0.2400E-01
    -22.871  0.0000E+00  0.0000E+00  0.2400E-01  0.2400E-01
    -22.678  0.0000E+00  0.0000E+00  0.2400E-01  0.2400E-01
    -22.486  0.0000E+00  0.0000E+00  0.2400E-01  0.2400E-01
    -22.293  0.0000E+00  0.0000E+00  0.2400E-01  0.2400E-01
    -22.100  0.0000E+00  0.0000E+00  0.2400E-01  0.2400E-01
    -21.907  0.0000E+00  0.0000E+00  0.2400E-01  0.2400E-01
    -21.714  0.0000E+00  0.0000E+00  0.2400E-01  0.2400E-01
    -21.522  0.0000E+00  0.0000E+00  0.2400E-01  0.2400E-01
    -21.329  0.0000E+00  0.0000E+00  0.2400E-01  0.2400E-01
    -21.136  0.0000E+00  0.0000E+00  0.2400E-01  0.2400E-01
    -20.943  0.0000E+00  0.0000E+00  0.2400E-01  0.2400E-01
    -20.750  0.0000E+00  0.0000E+00  0.2400E-01  0.2400E-01
    -20.558  0.0000E+00  0.0000E+00  0.2400E-01  0.2400E-01
    -20.365  0.0000E+00  0.0000E+00  0.2400E-01  0.2400E-01
    -20.172  0.0000E+00  0.0000E+00  0.2400E-01  0.2400E-01
    -19.979  0.0000E+00  0.0000E+00  0.2400E-01  0.2400E-01
    -19.786  0.0000E+00  0.0000E+00  0.2400E-01  0.2400E-01
    -19.594  0.0000E+00  0.0000E+00  0.2400E-01  0.2400E-01
    -19.401  0.0000E+00  0.0000E+00  0.2400E-01  0.2400E-01
    -19.208  0.0000E+00  0.0000E+00  0.2400E-01  0.2400E-01
    -19.015  0.0000E+00  0.0000E+00  0.2400E-01  0.2400E-01
    -18.822  0.0000E+00  0.0000E+00  0.2400E-01  0.2400E-01
    -18.630  0.0000E+00  0.0000E+00  0.2400E-01  0.2400E-01
    -18.437  0.0000E+00  0.0000E+00  0.2400E-01  0.2400E-01
    -18.244  0.0000E+00  0.0000E+00  0.2400E-01  0.2400E-01
    -18.051  0.0000E+00  0.0000E+00  0.2400E-01  0.2400E-01
    -17.859  0.0000E+00  0.0000E+00  0.2400E-01  0.2400E-01
    -17.666  0.0000E+00  0.0000E+00  0.2400E-01  0.2400E-01
    -17.473  0.0000E+00  0.0000E+00  0.2400E-01  0.2400E-01
    -17.280  0.0000E+00  0.0000E+00  0.2400E-01  0.2400E-01
    -17.087  0.0000E+00  0.0000E+00  0.2400E-01  0.2400E-01
    -16.895  0.0000E+00  0.0000E+00  0.2400E-01  0.2400E-01
    -16.702  0.0000E+00  0.0000E+00  0.2400E-01  0.2400E-01
    -16.509  0.0000E+00  0.0000E+00  0.2400E-01  0.2400E-01
    -16.316  0.0000E+00  0.0000E+00  0.2400E-01  0.2400E-01
    -16.123  0.0000E+00  0.0000E+00  0.2400E-01  0.2400E-01
    -15.931  0.0000E+00  0.0000E+00  0.2400E-01  0.2400E-01
    -15.738  0.0000E+00  0.0000E+00  0.2400E-01  0.2400E-01
    -15.545  0.0000E+00  0.0000E+00  0.2400E-01  0.2400E-01
    -15.352  0.0000E+00  0.0000E+00  0.2400E-01  0.2400E-01
    -15.159  0.0000E+00  0.0000E+00  0.2400E-01  0.2400E-01
    -14.967  0.0000E+00  0.0000E+00  0.2400E-01  0.2400E-01
    -14.774  0.0000E+00  0.0000E+00  0.2400E-01  0.2400E-01
    -14.581  0.0000E+00  0.0000E+00  0.2400E-01  0.2400E-01
    -14.388  0.0000E+00  0.0000E+00  0.2400E-01  0.2400E-01
    -14.195  0.0000E+00  0.0000E+00  0.2400E-01  0.2400E-01
    -14.003  0.0000E+00  0.0000E+00  0.2400E-01  0.2400E-01
    -13.810  0.0000E+00  0.0000E+00  0.2400E-01  0.2400E-01
    -13.617  0.0000E+00  0.0000E+00  0.2400E-01  0.2400E-01
    -13.424  0.0000E+00  0.0000E+00  0.2400E-01  0.2400E-01
    -13.231  0.0000E+00  0.0000E+00  0.2400E-01  0.2400E-01
    -13.039  0.6689E-03  0.6689E-03  0.2413E-01  0.2413E-01
    -12.846  0.2008E-01  0.2008E-01  0.2800E-01  0.2800E-01
    -12.653  0.2505E-02  0.2505E-02  0.2848E-01  0.2848E-01
    -12.460  0.1311E-01  0.1311E-01  0.3101E-01  0.3101E-01
    -12.267  0.5128E-02  0.5128E-02  0.3200E-01  0.3200E-01
    -12.075  0.0000E+00  0.0000E+00  0.3200E-01  0.3200E-01
    -11.882  0.0000E+00  0.0000E+00  0.3200E-01  0.3200E-01
    -11.689  0.0000E+00  0.0000E+00  0.3200E-01  0.3200E-01
    -11.496  0.0000E+00  0.0000E+00  0.3200E-01  0.3200E-01
    -11.303  0.0000E+00  0.0000E+00  0.3200E-01  0.3200E-01
    -11.111  0.0000E+00  0.0000E+00  0.3200E-01  0.3200E-01
    -10.918  0.0000E+00  0.0000E+00  0.3200E-01  0.3200E-01
    -10.725  0.0000E+00  0.0000E+00  0.3200E-01  0.3200E-01
    -10.532  0.0000E+00  0.0000E+00  0.3200E-01  0.3200E-01
    -10.339  0.1161E-07  0.1161E-07  0.3200E-01  0.3200E-01
    -10.147  0.1553E-01  0.1553E-01  0.3499E-01  0.3499E-01
     -9.954  0.2313E-01  0.2313E-01  0.3946E-01  0.3946E-01
     -9.761  0.2354E-01  0.2354E-01  0.4400E-01  0.4400E-01
     -9.568  0.0000E+00  0.0000E+00  0.4400E-01  0.4400E-01
     -9.376  0.0000E+00  0.0000E+00  0.4400E-01  0.4400E-01
     -9.183  0.0000E+00  0.0000E+00  0.4400E-01  0.4400E-01
     -8.990  0.0000E+00  0.0000E+00  0.4400E-01  0.4400E-01
     -8.797  0.0000E+00  0.0000E+00  0.4400E-01  0.4400E-01
     -8.604  0.0000E+00  0.0000E+00  0.4400E-01  0.4400E-01
     -8.412  0.4670E-07  0.4670E-07  0.4400E-01  0.4400E-01
     -8.219  0.2022E-01  0.2022E-01  0.4790E-01  0.4790E-01
     -8.026  0.5038E-03  0.5038E-03  0.4800E-01  0.4800E-01
     -7.833  0.0000E+00  0.0000E+00  0.4800E-01  0.4800E-01
     -7.640  0.0000E+00  0.0000E+00  0.4800E-01  0.4800E-01
     -7.448  0.0000E+00  0.0000E+00  0.4800E-01  0.4800E-01
     -7.255  0.0000E+00  0.0000E+00  0.4800E-01  0.4800E-01
     -7.062  0.0000E+00  0.0000E+00  0.4800E-01  0.4800E-01
     -6.869  0.0000E+00  0.0000E+00  0.4800E-01  0.4800E-01
     -6.676  0.0000E+00  0.0000E+00  0.4800E-01  0.4800E-01
     -6.484  0.0000E+00  0.0000E+00  0.4800E-01  0.4800E-01
     -6.291  0.0000E+00  0.0000E+00  0.4800E-01  0.4800E-01
     -6.098  0.1401E-02  0.1401E-02  0.4827E-01  0.4827E-01
     -5.905  0.3786E-02  0.3786E-02  0.4900E-01  0.4900E-01
     -5.712  0.1873E-03  0.1873E-03  0.4904E-01  0.4904E-01
     -5.520  0.1533E-01  0.1533E-01  0.5199E-01  0.5199E-01
     -5.327  0.2616E-04  0.2616E-04  0.5200E-01  0.5200E-01
     -5.134  0.0000E+00  0.0000E+00  0.5200E-01  0.5200E-01
     -4.941  0.0000E+00  0.0000E+00  0.5200E-01  0.5200E-01
     -4.748  0.0000E+00  0.0000E+00  0.5200E-01  0.5200E-01
     -4.556  0.0000E+00  0.0000E+00  0.5200E-01  0.5200E-01
     -4.363  0.0000E+00  0.0000E+00  0.5200E-01  0.5200E-01
     -4.170  0.0000E+00  0.0000E+00  0.5200E-01  0.5200E-01
     -3.977  0.0000E+00  0.0000E+00  0.5200E-01  0.5200E-01
     -3.784  0.0000E+00  0.0000E+00  0.5200E-01  0.5200E-01
     -3.592  0.0000E+00  0.0000E+00  0.5200E-01  0.5200E-01
     -3.399  0.0000E+00  0.0000E+00  0.5200E-01  0.5200E-01
     -3.206  0.1338E-02  0.1338E-02  0.5226E-01  0.5226E-01
     -3.013  0.1422E-01  0.1422E-01  0.5500E-01  0.5500E-01
     -2.820  0.2355E-02  0.2355E-02  0.5545E-01  0.5545E-01
     -2.628  0.1185E-01  0.1185E-01  0.5774E-01  0.5774E-01
     -2.435  0.1075E-01  0.1075E-01  0.5981E-01  0.5981E-01
     -2.242  0.2058E-01  0.2058E-01  0.6378E-01  0.6378E-01
     -2.049  0.1142E-02  0.1142E-02  0.6400E-01  0.6400E-01
     -1.856  0.0000E+00  0.0000E+00  0.6400E-01  0.6400E-01
     -1.664  0.2293E-12  0.2293E-12  0.6400E-01  0.6400E-01
     -1.471  0.1006E-01  0.1006E-01  0.6594E-01  0.6594E-01
     -1.278  0.2274E-01  0.2274E-01  0.7033E-01  0.7033E-01
     -1.085  0.1822E-01  0.1822E-01  0.7385E-01  0.7385E-01
     -0.892  0.1117E-01  0.1117E-01  0.7600E-01  0.7600E-01
     -0.700  0.4125E-16  0.4125E-16  0.7600E-01  0.7600E-01
     -0.507  0.5919E-02  0.5919E-02  0.7714E-01  0.7714E-01
     -0.314  0.1231E-01  0.1231E-01  0.7952E-01  0.7952E-01
     -0.121  0.1159E-01  0.1159E-01  0.8175E-01  0.8175E-01
      0.071  0.2641E-01  0.2641E-01  0.8684E-01  0.8684E-01
      0.264  0.2640E-01  0.2640E-01  0.9193E-01  0.9193E-01
      0.457  0.2071E-01  0.2071E-01  0.9593E-01  0.9593E-01
      0.650  0.3991E-03  0.3991E-03  0.9600E-01  0.9600E-01
      0.843  0.8637E-02  0.8637E-02  0.9767E-01  0.9767E-01
      1.035  0.2104E-01  0.2104E-01  0.1017E+00  0.1017E+00
      1.228  0.2041E-01  0.2041E-01  0.1057E+00  0.1057E+00
      1.421  0.2916E-01  0.2916E-01  0.1113E+00  0.1113E+00
      1.614  0.2923E-01  0.2923E-01  0.1169E+00  0.1169E+00
      1.807  0.1548E-01  0.1549E-01  0.1199E+00  0.1199E+00
      1.999  0.4444E-03  0.4444E-03  0.1200E+00  0.1200E+00
      2.192  0.0000E+00  0.0000E+00  0.1200E+00  0.1200E+00
      2.385  0.0000E+00  0.0000E+00  0.1200E+00  0.1200E+00
      2.578  0.0000E+00  0.0000E+00  0.1200E+00  0.1200E+00
      2.771  0.0000E+00  0.0000E+00  0.1200E+00  0.1200E+00
      2.963  0.0000E+00  0.0000E+00  0.1200E+00  0.1200E+00
      3.156  0.0000E+00  0.0000E+00  0.1200E+00  0.1200E+00
      3.349  0.0000E+00  0.0000E+00  0.1200E+00  0.1200E+00
      3.542  0.0000E+00  0.0000E+00  0.1200E+00  0.1200E+00
      3.735  0.0000E+00  0.0000E+00  0.1200E+00  0.1200E+00
      3.927  0.0000E+00  0.0000E+00  0.1200E+00  0.1200E+00
      4.120  0.0000E+00  0.0000E+00  0.1200E+00  0.1200E+00
      4.313  0.1230E-13  0.1230E-13  0.1200E+00  0.1200E+00
      4.506  0.4899E-02  0.4899E-02  0.1209E+00  0.1209E+00
      4.699  0.2765E-03  0.2765E-03  0.1210E+00  0.1210E+00
      4.891  0.0000E+00  0.0000E+00  0.1210E+00  0.1210E+00
      5.084  0.0000E+00  0.0000E+00  0.1210E+00  0.1210E+00
      5.277  0.1649E-02  0.1649E-02  0.1213E+00  0.1213E+00
      5.470  0.1391E-01  0.1391E-01  0.1240E+00  0.1240E+00
      5.663  0.0000E+00  0.0000E+00  0.1240E+00  0.1240E+00
      5.855  0.3769E-05  0.3768E-05  0.1240E+00  0.1240E+00
      6.048  0.8683E-02  0.8683E-02  0.1257E+00  0.1257E+00
      6.241  0.1988E-01  0.1988E-01  0.1295E+00  0.1295E+00
      6.434  0.2549E-02  0.2549E-02  0.1300E+00  0.1300E+00
      6.627  0.1120E-01  0.1120E-01  0.1322E+00  0.1322E+00
      6.819  0.5936E-02  0.5936E-02  0.1333E+00  0.1333E+00
      7.012  0.1397E-01  0.1397E-01  0.1360E+00  0.1360E+00
      7.205  0.5154E-02  0.5154E-02  0.1370E+00  0.1370E+00
      7.398  0.3593E-02  0.3593E-02  0.1377E+00  0.1377E+00
      7.591  0.6811E-02  0.6811E-02  0.1390E+00  0.1390E+00
      7.783  0.1338E-01  0.1338E-01  0.1416E+00  0.1416E+00
      7.976  0.1254E-01  0.1254E-01  0.1440E+00  0.1440E+00
      8.169  0.1173E-01  0.1173E-01  0.1463E+00  0.1463E+00
      8.362  0.1414E-01  0.1414E-01  0.1490E+00  0.1490E+00
      8.555  0.1626E-01  0.1626E-01  0.1521E+00  0.1521E+00
      8.747  0.1319E-01  0.1319E-01  0.1547E+00  0.1547E+00
      8.940  0.2069E-01  0.2069E-01  0.1587E+00  0.1587E+00
      9.133  0.1571E-01  0.1571E-01  0.1617E+00  0.1617E+00
      9.326  0.1810E-01  0.1810E-01  0.1652E+00  0.1652E+00
      9.518  0.1855E-01  0.1855E-01  0.1688E+00  0.1688E+00
      9.711  0.1882E-01  0.1882E-01  0.1724E+00  0.1724E+00
      9.904  0.1397E-01  0.1327E-01  0.1751E+00  0.1749E+00
     10.097  0.4750E-02  0.5461E-02  0.1760E+00  0.1760E+00
     10.290  0.0000E+00  0.0000E+00  0.1760E+00  0.1760E+00
     10.482  0.0000E+00  0.0000E+00  0.1760E+00  0.1760E+00
     10.675  0.0000E+00  0.0000E+00  0.1760E+00  0.1760E+00
     10.868  0.0000E+00  0.0000E+00  0.1760E+00  0.1760E+00
     11.061  0.0000E+00  0.0000E+00  0.1760E+00  0.1760E+00
     11.254  0.0000E+00  0.0000E+00  0.1760E+00  0.1760E+00
     11.446  0.0000E+00  0.0000E+00  0.1760E+00  0.1760E+00
     11.639  0.0000E+00  0.0000E+00  0.1760E+00  0.1760E+00
     11.832  0.0000E+00  0.0000E+00  0.1760E+00  0.1760E+00
     12.025  0.0000E+00  0.0000E+00  0.1760E+00  0.1760E+00
     12.218  0.0000E+00  0.0000E+00  0.1760E+00  0.1760E+00
     12.410  0.0000E+00  0.0000E+00  0.1760E+00  0.1760E+00
     12.603  0.0000E+00  0.0000E+00  0.1760E+00  0.1760E+00
