 vasp.6.4.1 05Apr23 (build Jun 07 2023 15:38:11) complex                        
  
 executed on             LinuxIFC date 2023.10.26  10:54:34
 running  128 mpi-ranks, with    1 threads/rank, on    1 nodes
 distrk:  each k-point on  128 cores,    1 groups
 distr:  one band on NCORE=  32 cores,    4 groups


--------------------------------------------------------------------------------------------------------


 INCAR:
   GGA = PE
   PREC = Accu
   EDIFF = 1.e-6
   EDIFFG = -1.e-3
   ENCUT = 520.
   NELM = 100
   NELMDL = -10
   LASPH = .TRUE.
   LREAL = Auto
   LMAXMIX = 4
   ISPIN = 2
   LDIAG = .TRUE.
   LPLANE = .TRUE.
   IVDW = 12
   SIGMA = 0.03
   ISMEAR = 0
   NSW = 1000    number of steps for IOM
   IBRION = 2    ionic relax: 0-MD 1-quasi-New 2-CG
   ISIF = 2    ionic relaxation + stress tensor calcn.
   LCHARG = .FALSE.
   LWAVE = .FALSE.
   ALGO = F
   KPAR = 1
   NPAR = 4
   POTIM = 0.2

 POTCAR:    PAW_PBE Li_sv_GW 25Mar2010            
 POTCAR:    PAW_PBE P_GW 19Mar2012                
 POTCAR:    PAW_PBE S_GW 19Mar2012                
 POTCAR:    PAW_PBE Cl_GW 19Mar2012               
 -----------------------------------------------------------------------------
|                                                                             |
|           W    W    AA    RRRRR   N    N  II  N    N   GGGG   !!!           |
|           W    W   A  A   R    R  NN   N  II  NN   N  G    G  !!!           |
|           W    W  A    A  R    R  N N  N  II  N N  N  G       !!!           |
|           W WW W  AAAAAA  RRRRR   N  N N  II  N  N N  G  GGG   !            |
|           WW  WW  A    A  R   R   N   NN  II  N   NN  G    G                |
|           W    W  A    A  R    R  N    N  II  N    N   GGGG   !!!           |
|                                                                             |
|     You use a magnetic or noncollinear calculation, but did not specify     |
|     the initial magnetic moment with the MAGMOM tag. Note that a            |
|     default of 1 will be used for all atoms. This ferromagnetic setup       |
|     may break the symmetry of the crystal, in particular it may rule        |
|     out finding an antiferromagnetic solution. Thence, we recommend         |
|     setting the initial magnetic moment manually or verifying carefully     |
|     that this magnetic setup is desired.                                    |
|                                                                             |
 -----------------------------------------------------------------------------

 POTCAR:    PAW_PBE Li_sv_GW 25Mar2010            
   SHA256 =  24a6ace15a582615486b36ce4dc781b048409f4015b7684ed1273ae395fa2fdc Li_sv_GW/POTCAR       
   COPYR  = (c) Copyright 25Mar2010 Georg Kresse                                                    
   COPYR  = This file is part of the software VASP. Any use, copying, and all other rights are regul
   COPYR  = If you do not have a valid VASP license, you may not use, copy or distribute this file. 
   VRHFIN =Li: 1s2s                                                                                 
   LEXCH  = PE                                                                                      
   EATOM  =   200.9989 eV,   14.7730 Ry                                                             
                                                                                                    
   TITEL  = PAW_PBE Li_sv_GW 25Mar2010                                                              
   LULTRA =        F    use ultrasoft PP ?                                                          
   IUNSCR =        0    unscreen: 0-lin 1-nonlin 2-no                                               
   RPACOR =    0.000    partial core radius                                                         
   POMASS =    7.010; ZVAL   =    3.000    mass and valenz                                          
   RCORE  =    1.500    outmost cutoff radius                                                       
   RWIGS  =    1.600; RWIGS  =    0.847    wigner-seitz radius (au A)                               
   ENMAX  =  433.699; ENMIN  =  325.274 eV                                                          
   RCLOC  =    1.003    cutoff for local pot                                                        
   LCOR   =        T    correct aug charges                                                         
   LPAW   =        T    paw PP                                                                      
   EAUG   = 1041.699                                                                                
   RMAX   =    1.536    core radius for proj-oper                                                   
   RAUG   =    1.300    factor for augmentation sphere                                              
   RDEP   =    1.520    radius for radial grids                                                     
   RDEPT  =    1.300    core radius for aug-charge                                                  
                                                                                                    
   Atomic configuration                                                                             
    4 entries                                                                                       
     n  l   j            E        occ.                                                              
     1  0  0.50       -53.3604   2.0000                                                             
     1  0  0.50       -52.0001   0.0000                                                             
     2  1  0.50        -1.5636   1.0000                                                             
     3  2  1.50        -1.3606   0.0000                                                             
   Description                                                                                      
     l       E           TYP  RCUT    TYP  RCUT                                                     
     0    -53.3603633     23  1.200                                                                 
     0    -52.0001064     23  1.200                                                                 
     0    176.8757380     23  1.300                                                                 
     1     -1.5635925     23  1.500                                                                 
     1    108.8466080     23  1.500                                                                 
     2     81.6349560     23  1.500                                                                 
  local pseudopotential read in
  kinetic energy density of atom read in
  atomic valenz-charges read in
  non local Contribution for L=           0  read in
    real space projection operators read in
  non local Contribution for L=           0  read in
    real space projection operators read in
  non local Contribution for L=           0  read in
    real space projection operators read in
  non local Contribution for L=           1  read in
    real space projection operators read in
  non local Contribution for L=           1  read in
    real space projection operators read in
  non local Contribution for L=           2  read in
    real space projection operators read in
    PAW grid and wavefunctions read in
 
   number of l-projection  operators is LMAX  =           6
   number of lm-projection operators is LMMAX =          14
 
 POTCAR:    PAW_PBE P_GW 19Mar2012                
   SHA256 =  715c28f2291d37b61637ce89646c59f66f71c8b8d8bfba631e5feb9f7b42defe P_GW/POTCAR           
   COPYR  = (c) Copyright 19Mar2012 Georg Kresse                                                    
   COPYR  = This file is part of the software VASP. Any use, copying, and all other rights are regul
   COPYR  = If you do not have a valid VASP license, you may not use, copy or distribute this file. 
   VRHFIN =P : s2p3                                                                                 
   LEXCH  = PE                                                                                      
   EATOM  =   176.0430 eV,   12.9388 Ry                                                             
                                                                                                    
   TITEL  = PAW_PBE P_GW 19Mar2012                                                                  
   LULTRA =        F    use ultrasoft PP ?                                                          
   IUNSCR =        1    unscreen: 0-lin 1-nonlin 2-no                                               
   RPACOR =    1.400    partial core radius                                                         
   POMASS =   30.974; ZVAL   =    5.000    mass and valenz                                          
   RCORE  =    2.000    outmost cutoff radius                                                       
   RWIGS  =    1.900; RWIGS  =    1.005    wigner-seitz radius (au A)                               
   ENMAX  =  255.040; ENMIN  =  191.280 eV                                                          
   ICORE  =        3    local potential                                                             
   LCOR   =        T    correct aug charges                                                         
   LPAW   =        T    paw PP                                                                      
   EAUG   =  499.732                                                                                
   DEXC   =    0.000                                                                                
   RMAX   =    2.047    core radius for proj-oper                                                   
   RAUG   =    1.300    factor for augmentation sphere                                              
   RDEP   =    2.059    radius for radial grids                                                     
   RDEPT  =    1.900    core radius for aug-charge                                                  
                                                                                                    
   Atomic configuration                                                                             
    7 entries                                                                                       
     n  l   j            E        occ.                                                              
     1  0  0.50     -2084.0982   2.0000                                                             
     2  0  0.50      -173.9859   2.0000                                                             
     2  1  1.50      -124.4865   6.0000                                                             
     3  0  0.50       -13.9692   2.0000                                                             
     3  1  0.50        -5.5067   3.0000                                                             
     3  2  1.50        -6.8029   0.0000                                                             
     4  3  2.50        -1.3606   0.0000                                                             
   Description                                                                                      
     l       E           TYP  RCUT    TYP  RCUT                                                     
     0    -13.9691528     23  1.900                                                                 
     0    102.0436950     23  1.900                                                                 
     1     -5.5066939     23  1.900                                                                 
     1    102.0436950     23  1.900                                                                 
     2     -8.1634956     23  2.000                                                                 
     2     81.6349560     23  2.000                                                                 
     3     27.2116520     23  2.000                                                                 
  local pseudopotential read in
  partial core-charges read in
  partial kinetic energy density read in
  kinetic energy density of atom read in
  atomic valenz-charges read in
  non local Contribution for L=           0  read in
    real space projection operators read in
  non local Contribution for L=           0  read in
    real space projection operators read in
  non local Contribution for L=           1  read in
    real space projection operators read in
  non local Contribution for L=           1  read in
    real space projection operators read in
  non local Contribution for L=           2  read in
    real space projection operators read in
  non local Contribution for L=           2  read in
    real space projection operators read in
    PAW grid and wavefunctions read in
 
   number of l-projection  operators is LMAX  =           6
   number of lm-projection operators is LMMAX =          18
 
 POTCAR:    PAW_PBE S_GW 19Mar2012                
   SHA256 =  357db9cfb0783579b2eebe03197c2d807131fea8ea663b1fcfb6ce2fa75af011 S_GW/POTCAR           
   COPYR  = (c) Copyright 19Mar2012 Georg Kresse                                                    
   COPYR  = This file is part of the software VASP. Any use, copying, and all other rights are regul
   COPYR  = If you do not have a valid VASP license, you may not use, copy or distribute this file. 
   VRHFIN =S : s2p4                                                                                 
   LEXCH  = PE                                                                                      
   EATOM  =   276.8230 eV,   20.3459 Ry                                                             
                                                                                                    
   TITEL  = PAW_PBE S_GW 19Mar2012                                                                  
   LULTRA =        F    use ultrasoft PP ?                                                          
   IUNSCR =        1    unscreen: 0-lin 1-nonlin 2-no                                               
   RPACOR =    1.400    partial core radius                                                         
   POMASS =   32.066; ZVAL   =    6.000    mass and valenz                                          
   RCORE  =    1.900    outmost cutoff radius                                                       
   RWIGS  =    1.900; RWIGS  =    1.005    wigner-seitz radius (au A)                               
   ENMAX  =  258.689; ENMIN  =  194.016 eV                                                          
   ICORE  =        3    local potential                                                             
   LCOR   =        T    correct aug charges                                                         
   LPAW   =        T    paw PP                                                                      
   EAUG   =  488.319                                                                                
   DEXC   =    0.000                                                                                
   RMAX   =    1.942    core radius for proj-oper                                                   
   RAUG   =    1.300    factor for augmentation sphere                                              
   RDEP   =    1.954    radius for radial grids                                                     
   RDEPT  =    1.900    core radius for aug-charge                                                  
                                                                                                    
   Atomic configuration                                                                             
    7 entries                                                                                       
     n  l   j            E        occ.                                                              
     1  0  0.50     -2405.8406   2.0000                                                             
     2  0  0.50      -211.7007   2.0000                                                             
     2  1  1.50      -156.4958   6.0000                                                             
     3  0  0.50       -17.2562   2.0000                                                             
     3  1  0.50        -7.0085   4.0000                                                             
     3  2  1.50        -8.1635   0.0000                                                             
     4  3  2.50        -1.3606   0.0000                                                             
   Description                                                                                      
     l       E           TYP  RCUT    TYP  RCUT                                                     
     0    -17.2561639     23  1.700                                                                 
     0     88.4378690     23  1.900                                                                 
     1     -7.0085399     23  1.900                                                                 
     1     88.4378690     23  1.900                                                                 
     2    -10.8846608     23  1.900                                                                 
     2     54.4233040     23  1.900                                                                 
     3     27.2116520     23  1.800                                                                 
  local pseudopotential read in
  partial core-charges read in
  partial kinetic energy density read in
  kinetic energy density of atom read in
  atomic valenz-charges read in
  non local Contribution for L=           0  read in
    real space projection operators read in
  non local Contribution for L=           0  read in
    real space projection operators read in
  non local Contribution for L=           1  read in
    real space projection operators read in
  non local Contribution for L=           1  read in
    real space projection operators read in
  non local Contribution for L=           2  read in
    real space projection operators read in
  non local Contribution for L=           2  read in
    real space projection operators read in
    PAW grid and wavefunctions read in
 
   number of l-projection  operators is LMAX  =           6
   number of lm-projection operators is LMMAX =          18
 
 POTCAR:    PAW_PBE Cl_GW 19Mar2012               
   SHA256 =  3ef3b3169d6a9a89979f58b4cf17d927a58518fc660d8883d88cacaee8175441 Cl_GW/POTCAR          
   COPYR  = (c) Copyright 19Mar2012 Georg Kresse                                                    
   COPYR  = This file is part of the software VASP. Any use, copying, and all other rights are regul
   COPYR  = If you do not have a valid VASP license, you may not use, copy or distribute this file. 
   VRHFIN =Cl: s2p5                                                                                 
   LEXCH  = PE                                                                                      
   EATOM  =   409.7259 eV,   30.1140 Ry                                                             
                                                                                                    
   TITEL  = PAW_PBE Cl_GW 19Mar2012                                                                 
   LULTRA =        F    use ultrasoft PP ?                                                          
   IUNSCR =        1    unscreen: 0-lin 1-nonlin 2-no                                               
   RPACOR =    1.400    partial core radius                                                         
   POMASS =   35.453; ZVAL   =    7.000    mass and valenz                                          
   RCORE  =    1.900    outmost cutoff radius                                                       
   RWIGS  =    1.900; RWIGS  =    1.005    wigner-seitz radius (au A)                               
   ENMAX  =  262.472; ENMIN  =  196.854 eV                                                          
   ICORE  =        3    local potential                                                             
   LCOR   =        T    correct aug charges                                                         
   LPAW   =        T    paw PP                                                                      
   EAUG   =  456.703                                                                                
   DEXC   =    0.000                                                                                
   RMAX   =    1.945    core radius for proj-oper                                                   
   RAUG   =    1.300    factor for augmentation sphere                                              
   RDEP   =    2.020    radius for radial grids                                                     
   RDEPT  =    1.900    core radius for aug-charge                                                  
                                                                                                    
   Atomic configuration                                                                             
    7 entries                                                                                       
     n  l   j            E        occ.                                                              
     1  0  0.50     -2751.1850   2.0000                                                             
     2  0  0.50      -252.6861   2.0000                                                             
     2  1  1.50      -191.6157   6.0000                                                             
     3  0  0.50       -20.6916   2.0000                                                             
     3  1  0.50        -8.5949   5.0000                                                             
     3  2  1.50        -9.5241   0.0000                                                             
     4  3  2.50        -9.5241   0.0000                                                             
   Description                                                                                      
     l       E           TYP  RCUT    TYP  RCUT                                                     
     0    -20.6915657     23  1.700                                                                 
     0     95.2407820     23  1.800                                                                 
     1     -8.5948577     23  1.900                                                                 
     1     95.2407820     23  1.900                                                                 
     2    -10.8846608     23  1.900                                                                 
     2     54.4233040     23  1.900                                                                 
     3     27.2116520     23  1.900                                                                 
  local pseudopotential read in
  partial core-charges read in
  partial kinetic energy density read in
  kinetic energy density of atom read in
  atomic valenz-charges read in
  non local Contribution for L=           0  read in
    real space projection operators read in
  non local Contribution for L=           0  read in
    real space projection operators read in
  non local Contribution for L=           1  read in
    real space projection operators read in
  non local Contribution for L=           1  read in
    real space projection operators read in
  non local Contribution for L=           2  read in
    real space projection operators read in
  non local Contribution for L=           2  read in
    real space projection operators read in
    PAW grid and wavefunctions read in
 
   number of l-projection  operators is LMAX  =           6
   number of lm-projection operators is LMMAX =          18
 
 Optimization of the real space projectors (new method)

 maximal supplied QI-value         = 25.13
 optimisation between [QCUT,QGAM] = [ 11.56, 23.12] = [ 37.43,149.72] Ry 
 Optimized for a Real-space Cutoff    1.28 Angstroem

   l    n(q)    QCUT    max X(q) W(low)/X(q) W(high)/X(q)  e(spline) 
   0      9    11.561    87.733    0.11E-03    0.32E-04    0.56E-06
   0      9    11.561    82.800    0.11E-03    0.35E-04    0.56E-06
   0      9    11.561     2.509    0.22E-03    0.42E-04    0.79E-06
   1      8    11.561    12.580    0.94E-04    0.26E-03    0.21E-06
   1      8    11.561     1.319    0.33E-04    0.15E-03    0.19E-06
   2      8    11.561     1.993    0.36E-04    0.89E-04    0.26E-06
 Optimization of the real space projectors (new method)

 maximal supplied QI-value         = 18.90
 optimisation between [QCUT,QGAM] = [ 11.53, 23.24] = [ 37.21,151.29] Ry 
 Optimized for a Real-space Cutoff    1.21 Angstroem

   l    n(q)    QCUT    max X(q) W(low)/X(q) W(high)/X(q)  e(spline) 
   0      8    11.527     8.355    0.73E-04    0.70E-04    0.26E-07
   0      8    11.527     1.401    0.17E-03    0.17E-03    0.63E-07
   1      8    11.527     4.747    0.13E-03    0.17E-03    0.11E-06
   1      8    11.527     2.025    0.16E-03    0.18E-03    0.12E-06
   2      7    11.527     3.169    0.51E-04    0.25E-03    0.60E-07
   2      7    11.527     3.441    0.82E-04    0.22E-03    0.14E-06
 Optimization of the real space projectors (new method)

 maximal supplied QI-value         = 19.84
 optimisation between [QCUT,QGAM] = [ 11.51, 23.22] = [ 37.09,150.92] Ry 
 Optimized for a Real-space Cutoff    1.49 Angstroem

   l    n(q)    QCUT    max X(q) W(low)/X(q) W(high)/X(q)  e(spline) 
   0     10    11.508     7.541    0.34E-04    0.13E-04    0.69E-07
   0     10    11.508     1.809    0.49E-04    0.27E-04    0.14E-06
   1     10    11.508     4.107    0.27E-05    0.41E-05    0.14E-06
   1     10    11.508     2.196    0.26E-05    0.25E-05    0.22E-06
   2      9    11.508     4.265    0.18E-03    0.11E-03    0.81E-06
   2      9    11.508     1.925    0.97E-04    0.76E-04    0.47E-06
 Optimization of the real space projectors (new method)

 maximal supplied QI-value         = 19.84
 optimisation between [QCUT,QGAM] = [ 11.51, 23.22] = [ 37.09,150.92] Ry 
 Optimized for a Real-space Cutoff    1.21 Angstroem

   l    n(q)    QCUT    max X(q) W(low)/X(q) W(high)/X(q)  e(spline) 
   0      8    11.508     6.761    0.57E-04    0.57E-04    0.35E-07
   0      8    11.508     1.642    0.14E-03    0.14E-03    0.91E-07
   1      8    11.508     3.519    0.20E-04    0.72E-04    0.47E-07
   1      8    11.508     2.150    0.27E-04    0.11E-03    0.89E-07
   2      7    11.508     2.976    0.19E-03    0.33E-03    0.16E-06
   2      7    11.508     1.494    0.14E-03    0.29E-03    0.14E-06
  PAW_PBE Li_sv_GW 25Mar2010            :
 energy of atom  1       EATOM= -200.9989
 kinetic energy error for atom=    0.0127 (will be added to EATOM!!)
  PAW_PBE P_GW 19Mar2012                :
 energy of atom  2       EATOM= -176.0430
 kinetic energy error for atom=    0.0011 (will be added to EATOM!!)
  PAW_PBE S_GW 19Mar2012                :
 energy of atom  3       EATOM= -276.8230
 kinetic energy error for atom=    0.0024 (will be added to EATOM!!)
  PAW_PBE Cl_GW 19Mar2012               :
 energy of atom  4       EATOM= -409.7259
 kinetic energy error for atom=    0.0030 (will be added to EATOM!!)
 
 
 POSCAR: Li24 P4 S20 Cl4
  positions in direct lattice
  velocities in cartesian coordinates
 exchange correlation table for  LEXCH =        8
   RHO(1)=    0.500       N(1)  =     2000
   RHO(2)=  100.500       N(2)  =     4000

 VTST: version 4.1, (05/19/21)

 CHAIN: initializing optimizer
 
 OPT: Using VASP Conjugate-Gradient optimizer
 CHAIN: Read ICHAIN            0
 
 POSCAR: Li24 P4 S20 Cl4
  positions in direct lattice
  velocities in cartesian coordinates
 


--------------------------------------------------------------------------------------------------------


 ion  position               nearest neighbor table
   1  0.986  0.216  0.203-
   2  0.956  0.828  0.852-
   3  0.025  0.186  0.831-
   4  0.033  0.689  0.308-
   5  0.297  0.279  0.989-
   6  0.285  0.708  0.016-
   7  0.659  0.315  0.037-
   8  0.672  0.662  0.960-
   9  0.183  0.970  0.183-
  10  0.274  0.029  0.689-
  11  0.702  0.981  0.689-
  12  0.799  0.020  0.165-
  13  0.272  0.802  0.477-
  14  0.168  0.335  0.535-
  15  0.784  0.714  0.514-
  16  0.803  0.300  0.479-
  17  0.309  0.481  0.800-
  18  0.346  0.526  0.221-
  19  0.793  0.480  0.276-
  20  0.855  0.534  0.712-
  21  0.475  0.220  0.692-
  22  0.481  0.830  0.299-
  23  0.539  0.167  0.335-
  24  0.514  0.778  0.706-
  25  0.501  0.498  0.501-  42 2.04  44 2.05  41 2.06  43 2.06
  26  0.497  0.996  0.995-  38 2.05  37 2.05  40 2.05  39 2.06
  27  0.000  0.504  0.003-  34 2.05  35 2.05  33 2.05  36 2.05
  28  0.995  0.002  0.501-  30 2.05  31 2.05  29 2.05  32 2.06
  29  0.099  0.869  0.630-  28 2.05
  30  0.131  0.120  0.388-  28 2.05
  31  0.875  0.888  0.369-  28 2.05
  32  0.882  0.130  0.629-  28 2.06
  33  0.880  0.641  0.113-  27 2.05
  34  0.870  0.372  0.899-  27 2.05
  35  0.109  0.618  0.861-  27 2.05
  36  0.131  0.399  0.135-  27 2.05
  37  0.617  0.126  0.876-  26 2.05
  38  0.622  0.863  0.103-  26 2.05
  39  0.389  0.111  0.138-  26 2.06
  40  0.364  0.886  0.872-  26 2.05
  41  0.608  0.620  0.363-  25 2.06
  42  0.632  0.398  0.634-  25 2.04
  43  0.363  0.618  0.610-  25 2.06
  44  0.384  0.355  0.396-  25 2.05
  45  0.747  0.752  0.747-
  46  0.751  0.245  0.252-
  47  0.257  0.751  0.248-
  48  0.245  0.256  0.755-
  49  0.002  0.021  0.019-
  50  0.960  0.506  0.481-
  51  0.486  0.985  0.525-
  52  0.470  0.499  0.998-
 
  LATTYP: Found a simple cubic cell.
 ALAT       =     9.6505359104
  
  Lattice vectors:
  
 A1 = (   9.6505359104,   0.0000000000,   0.0000000000)
 A2 = (   0.0000000000,   9.6505359104,   0.0000000000)
 A3 = (   0.0000000000,   0.0000000000,   9.6505359104)


Analysis of symmetry for initial positions (statically):
=====================================================================
 Subroutine PRICEL returns:
 Original cell was already a primitive cell.
 

 Routine SETGRP: Setting up the symmetry group for a 
 simple cubic supercell.


 Subroutine GETGRP returns: Found  1 space group operations
 (whereof  1 operations were pure point group operations)
 out of a pool of 48 trial point group operations.


The static configuration has the point symmetry C_1 .


Analysis of symmetry for dynamics (positions and initial velocities):
=====================================================================
 Subroutine PRICEL returns:
 Original cell was already a primitive cell.
 

 Routine SETGRP: Setting up the symmetry group for a 
 simple cubic supercell.


 Subroutine GETGRP returns: Found  1 space group operations
 (whereof  1 operations were pure point group operations)
 out of a pool of 48 trial point group operations.


The dynamic configuration has the point symmetry C_1 .


Analysis of structural, dynamic, and magnetic symmetry:
=====================================================================
 Subroutine PRICEL returns:
 Original cell was already a primitive cell.
 

 Routine SETGRP: Setting up the symmetry group for a 
 simple cubic supercell.


 Subroutine GETGRP returns: Found  1 space group operations
 (whereof  1 operations were pure point group operations)
 out of a pool of 48 trial point group operations.


The overall configuration has the point symmetry C_1 .


 Subroutine INISYM returns: Found  1 space group operations
 (whereof  1 operations are pure point group operations),
 and found     1 'primitive' translations


----------------------------------------------------------------------------------------

                                     Primitive cell                                     

  volume of cell :     898.7818

  direct lattice vectors                    reciprocal lattice vectors
     9.650535910  0.000000000  0.000000000     0.103621188  0.000000000  0.000000000
     0.000000000  9.650535910  0.000000000     0.000000000  0.103621188  0.000000000
     0.000000000  0.000000000  9.650535910     0.000000000  0.000000000  0.103621188

  length of vectors
     9.650535910  9.650535910  9.650535910     0.103621188  0.103621188  0.103621188

  position of ions in fractional coordinates (direct lattice)
     0.985609038  0.215699674  0.202809240
     0.955949939  0.828051131  0.851950492
     0.025184444  0.185544902  0.831413562
     0.032679250  0.689290846  0.308398987
     0.297466811  0.279441443  0.988566196
     0.284745647  0.708047640  0.015736408
     0.659426398  0.315329584  0.037329999
     0.671980246  0.661671411  0.959960132
     0.183106712  0.969811606  0.183175478
     0.274493112  0.028925653  0.688545641
     0.702293533  0.980674019  0.689312446
     0.798549208  0.019932279  0.165378929
     0.272410071  0.801623984  0.477012073
     0.168039215  0.334721429  0.535061788
     0.784216240  0.713607491  0.513793589
     0.803346994  0.300091963  0.479148598
     0.309317628  0.481077119  0.799642612
     0.346008281  0.525887960  0.221146798
     0.792646118  0.479989956  0.275856001
     0.855090748  0.534178562  0.712045864
     0.474501528  0.220484683  0.691517218
     0.481171477  0.829927814  0.298982945
     0.538533143  0.167358488  0.335240811
     0.514389137  0.778258579  0.706156676
     0.500902921  0.497521316  0.500995043
     0.497317950  0.996421939  0.994869536
     0.000321632  0.503876490  0.003412595
     0.995361783  0.002391166  0.500949152
     0.098560924  0.868596304  0.630400865
     0.131305716  0.120217213  0.387871534
     0.874525575  0.887644349  0.368939313
     0.882407472  0.130130222  0.628774347
     0.879573785  0.640544249  0.113101486
     0.869786782  0.372141824  0.899387020
     0.109047037  0.618432890  0.860836596
     0.131056987  0.398750005  0.134508137
     0.616817104  0.125725060  0.875931266
     0.621639548  0.862545385  0.102798342
     0.388586879  0.111036708  0.138094460
     0.363845926  0.886014564  0.871738384
     0.607737243  0.620139507  0.363264202
     0.632379277  0.398252448  0.634051789
     0.362634173  0.618054398  0.609605242
     0.383548632  0.354581323  0.396147061
     0.746824724  0.751579027  0.746913894
     0.751175183  0.245315597  0.251552559
     0.257133041  0.750920694  0.248141436
     0.245033099  0.255687120  0.755405001
     0.002144416  0.021449334  0.019435419
     0.960350915  0.505788695  0.481155008
     0.486482202  0.985273386  0.524828666
     0.470070317  0.499098469  0.998121942

  ion indices of the primitive-cell ions
   primitive index   ion index
                 1           1
                 2           2
                 3           3
                 4           4
                 5           5
                 6           6
                 7           7
                 8           8
                 9           9
                10          10
                11          11
                12          12
                13          13
                14          14
                15          15
                16          16
                17          17
                18          18
                19          19
                20          20
                21          21
                22          22
                23          23
                24          24
                25          25
                26          26
                27          27
                28          28
                29          29
                30          30
                31          31
                32          32
                33          33
                34          34
                35          35
                36          36
                37          37
                38          38
                39          39
                40          40
                41          41
                42          42
                43          43
                44          44
                45          45
                46          46
                47          47
                48          48
                49          49
                50          50
                51          51
                52          52

----------------------------------------------------------------------------------------

 
 
 KPOINTS: Automatic mesh                          

Automatic generation of k-mesh.
 Grid dimensions read from file:
 generate k-points for:    2    2    2

 Generating k-lattice:

  Cartesian coordinates                     Fractional coordinates (reciprocal lattice)
     0.051810594  0.000000000  0.000000000     0.500000000  0.000000000  0.000000000
     0.000000000  0.051810594  0.000000000     0.000000000  0.500000000  0.000000000
     0.000000000  0.000000000  0.051810594     0.000000000  0.000000000  0.500000000

  Length of vectors
     0.051810594  0.051810594  0.051810594

  Shift w.r.t. Gamma in fractional coordinates (k-lattice)
     0.500000000  0.500000000  0.500000000

 
 Subroutine IBZKPT returns following result:
 ===========================================
 
 Found      4 irreducible k-points:
 
 Following reciprocal coordinates:
            Coordinates               Weight
  0.250000  0.250000  0.250000      2.000000
 -0.250000  0.250000  0.250000      2.000000
 -0.250000 -0.250000  0.250000      2.000000
  0.250000 -0.250000  0.250000      2.000000
 
 Following cartesian coordinates:
            Coordinates               Weight
  0.025905  0.025905  0.025905      2.000000
 -0.025905  0.025905  0.025905      2.000000
 -0.025905 -0.025905  0.025905      2.000000
  0.025905 -0.025905  0.025905      2.000000
 


--------------------------------------------------------------------------------------------------------




 Dimension of arrays:
   k-points           NKPTS =      4   k-points in BZ     NKDIM =      4   number of bands    NBANDS=    176
   number of dos      NEDOS =    301   number of ions     NIONS =     52
   non local maximal  LDIM  =      6   non local SUM 2l+1 LMDIM =     18
   total plane-waves  NPLWV = 373248
   max r-space proj   IRMAX =   5794   max aug-charges    IRDMAX=  17725
   dimension x,y,z NGX =    72 NGY =   72 NGZ =   72
   dimension x,y,z NGXF=   144 NGYF=  144 NGZF=  144
   support grid    NGXF=   144 NGYF=  144 NGZF=  144
   ions per type =              24   4  20   4
   NGX,Y,Z   is equivalent  to a cutoff of  12.40, 12.40, 12.40 a.u.
   NGXF,Y,Z  is equivalent  to a cutoff of  24.81, 24.81, 24.81 a.u.

 SYSTEM =  unknown system                          
 POSCAR =  Li24 P4 S20 Cl4                         

 Startparameter for this run:
   NWRITE =      2    write-flag & timer
   PREC   = accu      normal or accurate (medium, high low for compatibility)
   ISTART =      0    job   : 0-new  1-cont  2-samecut
   ICHARG =      2    charge: 1-file 2-atom 10-const
   ISPIN  =      2    spin polarized calculation?
   LNONCOLLINEAR =      F non collinear calculations
   LSORBIT =      F    spin-orbit coupling
   INIWAV =      1    electr: 0-lowe 1-rand  2-diag
   LASPH  =      T    aspherical Exc in radial PAW
 Electronic Relaxation 1
   ENCUT  =  520.0 eV  38.22 Ry    6.18 a.u.  17.94 17.94 17.94*2*pi/ulx,y,z
   ENINI  =  520.0     initial cutoff
   ENAUG  = 1041.7 eV  augmentation charge cutoff
   NELM   =    100;   NELMIN=  2; NELMDL=-10     # of ELM steps 
   EDIFF  = 0.1E-05   stopping-criterion for ELM
   LREAL  =      T    real-space projection
   NLSPLINE    = F    spline interpolate recip. space projectors
   LCOMPAT=      F    compatible to vasp.4.4
   GGA_COMPAT  = T    GGA compatible to vasp.4.4-vasp.4.6
   LMAXPAW     = -100 max onsite density
   LMAXMIX     =    4 max onsite mixed and CHGCAR
   VOSKOWN=      0    Vosko Wilk Nusair interpolation
   ROPT   =   -0.00025  -0.00025  -0.00025  -0.00025
 Ionic relaxation
   EDIFFG = -.1E-02   stopping-criterion for IOM
   NSW    =   1000    number of steps for IOM
   NBLOCK =      1;   KBLOCK =   1000    inner block; outer block 
   IBRION =      2    ionic relax: 0-MD 1-quasi-New 2-CG
   NFREE  =      1    steps in history (QN), initial steepest desc. (CG)
   ISIF   =      2    stress and relaxation
   IWAVPR =     11    prediction:  0-non 1-charg 2-wave 3-comb
   ISYM   =      2    0-nonsym 1-usesym 2-fastsym
   LCORR  =      T    Harris-Foulkes like correction to forces

   POTIM  = 0.2000    time-step for ionic-motion
   TEIN   =    0.0    initial temperature
   TEBEG  =    0.0;   TEEND  =   0.0 temperature during run
   SMASS  =  -3.00    Nose mass-parameter (am)
   estimated Nose-frequenzy (Omega)   =  0.10E-29 period in steps = 0.31E+47 mass=  -0.213E-26a.u.
   SCALEE = 1.0000    scale energy and forces
   NPACO  =    256;   APACO  = 10.0  distance and # of slots for P.C.
   PSTRESS=    0.0 pullay stress

  Mass of Ions in am
   POMASS =   7.01 30.97 32.07 35.45
  Ionic Valenz
   ZVAL   =   3.00  5.00  6.00  7.00
  Atomic Wigner-Seitz radii
   RWIGS  =  -1.00 -1.00 -1.00 -1.00
  virtual crystal weights 
   VCA    =   1.00  1.00  1.00  1.00
   NELECT =     240.0000    total number of electrons
   NUPDOWN=      -1.0000    fix difference up-down

 DOS related values:
   EMIN   =  10.00;   EMAX   =-10.00  energy-range for DOS
   EFERMI =   0.00;   METHOD = LEGACY      
   ISMEAR =     0;   SIGMA  =   0.03  broadening in eV -4-tet -1-fermi 0-gaus

 Electronic relaxation 2 (details)
   IALGO  =     68    algorithm
   LDIAG  =      T    sub-space diagonalisation (order eigenvalues)
   LSUBROT=      F    optimize rotation matrix (better conditioning)
   TURBO    =      0    0=normal 1=particle mesh
   IRESTART =      0    0=no restart 2=restart with 2 vectors
   NREBOOT  =      0    no. of reboots
   NMIN     =      0    reboot dimension
   EREF     =   0.00    reference energy to select bands
   IMIX   =      4    mixing-type and parameters
     AMIX     =   0.40;   BMIX     =  1.00
     AMIX_MAG =   1.60;   BMIX_MAG =  1.00
     AMIN     =   0.10
     WC   =   100.;   INIMIX=   1;  MIXPRE=   1;  MAXMIX= -45

 Intra band minimization:
   WEIMIN = 0.0010     energy-eigenvalue tresh-hold
   EBREAK =  0.14E-08  absolut break condition
   DEPER  =   0.30     relativ break condition  

   TIME   =   0.40     timestep for ELM

  volume/ion in A,a.u.               =      17.28       116.64
  Fermi-wavevector in a.u.,A,eV,Ry     =   1.054210  1.992168 15.120955  1.111359
  Thomas-Fermi vector in A             =   2.189361
 
 Write flags
   LWAVE        =      F    write WAVECAR
   LDOWNSAMPLE  =      F    k-point downsampling of WAVECAR
   LCHARG       =      F    write CHGCAR
   LVTOT        =      F    write LOCPOT, total local potential
   LVHAR        =      F    write LOCPOT, Hartree potential only
   LELF         =      F    write electronic localiz. function (ELF)
   LORBIT       =      0    0 simple, 1 ext, 2 COOP (PROOUT), +10 PAW based schemes


 Dipole corrections
   LMONO  =      F    monopole corrections only (constant potential shift)
   LDIPOL =      F    correct potential (dipole corrections)
   IDIPOL =      0    1-x, 2-y, 3-z, 4-all directions 
   EPSILON=  1.0000000 bulk dielectric constant

 Exchange correlation treatment:
   GGA     =    PE    GGA type
   LEXCH   =     8    internal setting for exchange type
   LIBXC   =     F    Libxc                    
   VOSKOWN =     0    Vosko Wilk Nusair interpolation
   LHFCALC =     F    Hartree Fock is set to
   LHFONE  =     F    Hartree Fock one center treatment
   AEXX    =    0.0000 exact exchange contribution

 Linear response parameters
   LEPSILON=     F    determine dielectric tensor
   LRPA    =     F    only Hartree local field effects (RPA)
   LNABLA  =     F    use nabla operator in PAW spheres
   LVEL    =     F    velocity operator in full k-point grid
   CSHIFT  =0.1000    complex shift for real part using Kramers Kronig
   OMEGAMAX=  -1.0    maximum frequency
   DEG_THRESHOLD= 0.2000000E-02 threshold for treating states as degnerate
   RTIME   =   -0.100 relaxation time in fs
  (WPLASMAI=    0.000 imaginary part of plasma frequency in eV, 0.658/RTIME)
   DFIELD  = 0.0000000 0.0000000 0.0000000 field for delta impulse in time
 
  Optional k-point grid parameters
   LKPOINTS_OPT  =     F    use optional k-point grid
   KPOINTS_OPT_MODE=     1    mode for optional k-point grid
 
 Orbital magnetization related:
   ORBITALMAG=     F  switch on orbital magnetization
   LCHIMAG   =     F  perturbation theory with respect to B field
   DQ        =  0.001000  dq finite difference perturbation B field
   LLRAUG    =     F  two centre corrections for induced B field
   LBONE     =     F  B-component reconstruction in AE one-centre
   LVGVCALC  =     T  calculate vGv susceptibility
   LVGVAPPL  =     F  apply vGv susceptibility instead of pGv for G=0

 Random number generation:
   RANDOM_GENERATOR = DEFAULT
   PCG_SEED         = not used


--------------------------------------------------------------------------------------------------------


 conjugate gradient relaxation of ions
 charge density and potential will be updated during run
 spin polarized calculation
 RMM-DIIS sequential band-by-band and
  variant of blocked Davidson during initial phase
 perform sub-space diagonalisation
    before iterative eigenvector-optimisation
 modified Broyden-mixing scheme, WC =      100.0
 initial mixing is a Kerker type mixing with AMIX =  0.4000 and BMIX =      1.0000
 Hartree-type preconditioning will be used
 using additional bands           56
 real space projection scheme for non local part
 use partial core corrections
 calculate Harris-corrections to forces 
   (improved forces if not selfconsistent)
 use gradient corrections 
 use of overlap-Matrix (Vanderbilt PP)
 Gauss-broadening in eV      SIGMA  =   0.03


--------------------------------------------------------------------------------------------------------


  energy-cutoff  :      520.00
  volume of cell :      898.78
      direct lattice vectors                 reciprocal lattice vectors
     9.650535910  0.000000000  0.000000000     0.103621188  0.000000000  0.000000000
     0.000000000  9.650535910  0.000000000     0.000000000  0.103621188  0.000000000
     0.000000000  0.000000000  9.650535910     0.000000000  0.000000000  0.103621188

  length of vectors
     9.650535910  9.650535910  9.650535910     0.103621188  0.103621188  0.103621188


 
 k-points in units of 2pi/SCALE and weight: Automatic mesh                          
   0.02590530  0.02590530  0.02590530       0.250
  -0.02590530  0.02590530  0.02590530       0.250
  -0.02590530 -0.02590530  0.02590530       0.250
   0.02590530 -0.02590530  0.02590530       0.250
 
 k-points in reciprocal lattice and weights: Automatic mesh                          
   0.25000000  0.25000000  0.25000000       0.250
  -0.25000000  0.25000000  0.25000000       0.250
  -0.25000000 -0.25000000  0.25000000       0.250
   0.25000000 -0.25000000  0.25000000       0.250
 
 position of ions in fractional coordinates (direct lattice) 
   0.98560904  0.21569967  0.20280924
   0.95594994  0.82805113  0.85195049
   0.02518444  0.18554490  0.83141356
   0.03267925  0.68929085  0.30839899
   0.29746681  0.27944144  0.98856620
   0.28474565  0.70804764  0.01573641
   0.65942640  0.31532958  0.03733000
   0.67198025  0.66167141  0.95996013
   0.18310671  0.96981161  0.18317548
   0.27449311  0.02892565  0.68854564
   0.70229353  0.98067402  0.68931245
   0.79854921  0.01993228  0.16537893
   0.27241007  0.80162398  0.47701207
   0.16803921  0.33472143  0.53506179
   0.78421624  0.71360749  0.51379359
   0.80334699  0.30009196  0.47914860
   0.30931763  0.48107712  0.79964261
   0.34600828  0.52588796  0.22114680
   0.79264612  0.47998996  0.27585600
   0.85509075  0.53417856  0.71204586
   0.47450153  0.22048468  0.69151722
   0.48117148  0.82992781  0.29898294
   0.53853314  0.16735849  0.33524081
   0.51438914  0.77825858  0.70615668
   0.50090292  0.49752132  0.50099504
   0.49731795  0.99642194  0.99486954
   0.00032163  0.50387649  0.00341259
   0.99536178  0.00239117  0.50094915
   0.09856092  0.86859630  0.63040087
   0.13130572  0.12021721  0.38787153
   0.87452557  0.88764435  0.36893931
   0.88240747  0.13013022  0.62877435
   0.87957378  0.64054425  0.11310149
   0.86978678  0.37214182  0.89938702
   0.10904704  0.61843289  0.86083660
   0.13105699  0.39875000  0.13450814
   0.61681710  0.12572506  0.87593127
   0.62163955  0.86254538  0.10279834
   0.38858688  0.11103671  0.13809446
   0.36384593  0.88601456  0.87173838
   0.60773724  0.62013951  0.36326420
   0.63237928  0.39825245  0.63405179
   0.36263417  0.61805440  0.60960524
   0.38354863  0.35458132  0.39614706
   0.74682472  0.75157903  0.74691389
   0.75117518  0.24531560  0.25155256
   0.25713304  0.75092069  0.24814144
   0.24503310  0.25568712  0.75540500
   0.00214442  0.02144933  0.01943542
   0.96035092  0.50578870  0.48115501
   0.48648220  0.98527339  0.52482867
   0.47007032  0.49909847  0.99812194
 
 position of ions in cartesian coordinates  (Angst):
   9.51165541  2.08161745  1.95721785
   9.22542922  7.99113717  8.22177882
   0.24304338  1.79060774  8.02358643
   0.31537228  6.65202607  2.97621550
   2.87071415  2.69675968  9.54019357
   2.74794809  6.83303918  0.15186477
   6.36381814  3.04309948  0.36025450
   6.48496949  6.38548371  9.26412973
   1.76707790  9.35920173  1.76774153
   2.64900563  0.27914805  6.64483443
   6.77750896  9.46402984  6.65223452
   7.70642781  0.19235717  1.59599529
   2.62890317  7.73610105  4.60342214
   1.62166847  3.23024117  5.16363300
   7.56810699  6.88669471  4.95838348
   7.75272902  2.89604826  4.62404075
   2.98508088  4.64265201  7.71697974
   3.33916534  5.07510064  2.13418512
   7.64945983  4.63216031  2.66215825
   8.25208397  5.15510940  6.87162418
   4.57919404  2.12779536  6.67351175
   4.64356262  8.00924817  2.88534564
   5.19713343  1.61509910  3.23525349
   4.96413084  7.51061237  6.81479036
   4.83398163  4.80134733  4.83487065
   4.79938473  9.61600570  9.60102419
   0.00310392  4.86267816  0.03293337
   9.60577463  0.02307603  4.83442778
   0.95116574  8.38241982  6.08370619
   1.26717053  1.16016053  3.74316817
   8.43964046  8.56624367  3.56046209
   8.51570500  1.25582639  6.06800941
   8.48835840  6.18159528  1.09148995
   8.39390858  3.59136804  8.67956674
   1.05236234  5.96820881  8.30753449
   1.26477016  3.84815124  1.29807561
   5.95261561  1.21331420  8.45320613
   5.99915479  8.32402521  0.99205909
   3.75007163  1.07156374  1.33268555
   3.51130818  8.55051537  8.41274258
   5.86499008  5.98467858  3.50569423
   6.10279892  3.84334955  6.11893956
   3.49961411  5.96455616  5.88301728
   3.70144985  3.42189979  3.82303144
   7.20725882  7.25314039  7.20811935
   7.24924308  2.36742698  2.42761701
   2.48147165  7.24678712  2.39469784
   2.36470072  2.46751773  7.29006309
   0.02069477  0.20699757  0.18756221
   9.26790099  4.88113197  4.64340369
   4.69481396  9.50841620  5.06487789
   4.53643048  4.81656770  9.63241165
 


--------------------------------------------------------------------------------------------------------


 k-point   1 :   0.2500 0.2500 0.2500  plane waves:   24216
 k-point   2 :  -0.2500 0.2500 0.2500  plane waves:   24216
 k-point   3 :  -0.2500-0.2500 0.2500  plane waves:   24216
 k-point   4 :   0.2500-0.2500 0.2500  plane waves:   24216

 maximum and minimum number of plane-waves per node :       777      739

 maximum number of plane-waves:     24216
 maximum index in each direction: 
   IXMAX=   18   IYMAX=   18   IZMAX=   17
   IXMIN=  -18   IYMIN=  -18   IZMIN=  -18


 real space projection operators:
  total allocation   :      28450.72 KBytes
  max/ min on nodes  :       1214.75        695.83


 parallel 3D FFT for wavefunctions:
    minimum data exchange during FFTs selected (reduces bandwidth)
 parallel 3D FFT for charge:
    minimum data exchange during FFTs selected (reduces bandwidth)


 total amount of memory used by VASP MPI-rank0    48283. kBytes
=======================================================================

   base      :      30000. kBytes
   nonlr-proj:       6623. kBytes
   fftplans  :       1747. kBytes
   grid      :       5278. kBytes
   one-center:         62. kBytes
   wavefun   :       4573. kBytes
 
     INWAV:  cpu time      0.0000: real time      0.0000
 Broyden mixing: mesh for mixing (old mesh)
   NGX = 35   NGY = 35   NGZ = 35
  (NGX  =144   NGY  =144   NGZ  =144)
  gives a total of  42875 points

 initial charge density was supplied:
 charge density of overlapping atoms calculated
 number of electron     240.0000000 magnetization      52.0000000
 keeping initial charge density in first step


--------------------------------------------------------------------------------------------------------


 Maximum index for non-local projection operator          539
 Maximum index for augmentation-charges         1164 (set IRDMAX)


--------------------------------------------------------------------------------------------------------


 First call to EWALD:  gamma=   0.184
 Maximum number of real-space cells 3x 3x 3
 Maximum number of reciprocal cells 3x 3x 3

    FEWALD:  cpu time      0.0031: real time      0.0035


--------------------------------------- Ionic step        1  -------------------------------------------




--------------------------------------- Iteration      1(   1)  ---------------------------------------


    POTLOK:  cpu time      0.0559: real time      0.0831
    SETDIJ:  cpu time      0.4055: real time      0.4440
     EDDAV:  cpu time      2.2656: real time      2.3334
       DOS:  cpu time      0.0026: real time      0.0039
    --------------------------------------------
      LOOP:  cpu time      2.7296: real time      2.8644

 eigenvalue-minimisations  :  3096
 total energy-change (2. order) : 0.1591474E+04  (-0.1139215E+05)
 number of electron     240.0000000 magnetization      52.0000000
 augmentation part      240.0000000 magnetization      52.0000000

 Free energy of the ion-electron system (eV)
  ---------------------------------------------------
  alpha Z        PSCENC =       302.02824401
  Ewald energy   TEWEN  =     -8842.65233860
  -Hartree energ DENC   =     -2095.03983596
  -exchange      EXHF   =         0.00000000
  -V(xc)+E(xc)   XCENC  =       534.37172931
  PAW double counting   =      8141.38806575    -8271.61346273
  entropy T*S    EENTRO =        -0.00511242
  eigenvalues    EBANDS =      -880.14313427
  atomic energy  EATOM  =     12703.13999606
  Solvation  Ediel_sol  =         0.00000000
  ---------------------------------------------------
  free energy    TOTEN  =      1591.47415114 eV

  energy without entropy =     1591.47926356  energy(sigma->0) =     1591.47670735


--------------------------------------------------------------------------------------------------------




--------------------------------------- Iteration      1(   2)  ---------------------------------------


     EDDAV:  cpu time      2.6795: real time      2.7563
       DOS:  cpu time      0.0004: real time      0.0004
    --------------------------------------------
      LOOP:  cpu time      2.6800: real time      2.7567

 eigenvalue-minimisations  :  3840
 total energy-change (2. order) :-0.1648005E+04  (-0.1550643E+04)
 number of electron     240.0000000 magnetization      52.0000000
 augmentation part      240.0000000 magnetization      52.0000000

 Free energy of the ion-electron system (eV)
  ---------------------------------------------------
  alpha Z        PSCENC =       302.02824401
  Ewald energy   TEWEN  =     -8842.65233860
  -Hartree energ DENC   =     -2095.03983596
  -exchange      EXHF   =         0.00000000
  -V(xc)+E(xc)   XCENC  =       534.37172931
  PAW double counting   =      8141.38806575    -8271.61346273
  entropy T*S    EENTRO =        -0.00000000
  eigenvalues    EBANDS =     -2528.15292442
  atomic energy  EATOM  =     12703.13999606
  Solvation  Ediel_sol  =         0.00000000
  ---------------------------------------------------
  free energy    TOTEN  =       -56.53052658 eV

  energy without entropy =      -56.53052658  energy(sigma->0) =      -56.53052658


--------------------------------------------------------------------------------------------------------




--------------------------------------- Iteration      1(   3)  ---------------------------------------


     EDDAV:  cpu time      2.5501: real time      2.6174
       DOS:  cpu time      0.0004: real time      0.0004
    --------------------------------------------
      LOOP:  cpu time      2.5505: real time      2.6178

 eigenvalue-minimisations  :  3744
 total energy-change (2. order) :-0.1715868E+03  (-0.1695669E+03)
 number of electron     240.0000000 magnetization      52.0000000
 augmentation part      240.0000000 magnetization      52.0000000

 Free energy of the ion-electron system (eV)
  ---------------------------------------------------
  alpha Z        PSCENC =       302.02824401
  Ewald energy   TEWEN  =     -8842.65233860
  -Hartree energ DENC   =     -2095.03983596
  -exchange      EXHF   =         0.00000000
  -V(xc)+E(xc)   XCENC  =       534.37172931
  PAW double counting   =      8141.38806575    -8271.61346273
  entropy T*S    EENTRO =        -0.00000000
  eigenvalues    EBANDS =     -2699.73968755
  atomic energy  EATOM  =     12703.13999606
  Solvation  Ediel_sol  =         0.00000000
  ---------------------------------------------------
  free energy    TOTEN  =      -228.11728972 eV

  energy without entropy =     -228.11728972  energy(sigma->0) =     -228.11728972


--------------------------------------------------------------------------------------------------------




--------------------------------------- Iteration      1(   4)  ---------------------------------------


     EDDAV:  cpu time      3.1087: real time      3.1358
       DOS:  cpu time      0.0004: real time      0.0004
    --------------------------------------------
      LOOP:  cpu time      3.1091: real time      3.1362

 eigenvalue-minimisations  :  4752
 total energy-change (2. order) :-0.1362565E+02  (-0.1360149E+02)
 number of electron     240.0000000 magnetization      52.0000000
 augmentation part      240.0000000 magnetization      52.0000000

 Free energy of the ion-electron system (eV)
  ---------------------------------------------------
  alpha Z        PSCENC =       302.02824401
  Ewald energy   TEWEN  =     -8842.65233860
  -Hartree energ DENC   =     -2095.03983596
  -exchange      EXHF   =         0.00000000
  -V(xc)+E(xc)   XCENC  =       534.37172931
  PAW double counting   =      8141.38806575    -8271.61346273
  entropy T*S    EENTRO =        -0.00000000
  eigenvalues    EBANDS =     -2713.36534145
  atomic energy  EATOM  =     12703.13999606
  Solvation  Ediel_sol  =         0.00000000
  ---------------------------------------------------
  free energy    TOTEN  =      -241.74294362 eV

  energy without entropy =     -241.74294362  energy(sigma->0) =     -241.74294362


--------------------------------------------------------------------------------------------------------




--------------------------------------- Iteration      1(   5)  ---------------------------------------


     EDDAV:  cpu time      2.9435: real time      2.9860
       DOS:  cpu time      0.0004: real time      0.0004
    --------------------------------------------
      LOOP:  cpu time      2.9439: real time      2.9864

 eigenvalue-minimisations  :  4456
 total energy-change (2. order) :-0.2195383E+00  (-0.2194337E+00)
 number of electron     240.0000000 magnetization      52.0000000
 augmentation part      240.0000000 magnetization      52.0000000

 Free energy of the ion-electron system (eV)
  ---------------------------------------------------
  alpha Z        PSCENC =       302.02824401
  Ewald energy   TEWEN  =     -8842.65233860
  -Hartree energ DENC   =     -2095.03983596
  -exchange      EXHF   =         0.00000000
  -V(xc)+E(xc)   XCENC  =       534.37172931
  PAW double counting   =      8141.38806575    -8271.61346273
  entropy T*S    EENTRO =        -0.00000000
  eigenvalues    EBANDS =     -2713.58487972
  atomic energy  EATOM  =     12703.13999606
  Solvation  Ediel_sol  =         0.00000000
  ---------------------------------------------------
  free energy    TOTEN  =      -241.96248188 eV

  energy without entropy =     -241.96248188  energy(sigma->0) =     -241.96248188


--------------------------------------------------------------------------------------------------------




--------------------------------------- Iteration      1(   6)  ---------------------------------------


     EDDAV:  cpu time      3.0386: real time      3.0630
       DOS:  cpu time      0.0004: real time      0.0004
    --------------------------------------------
      LOOP:  cpu time      3.0390: real time      3.0634

 eigenvalue-minimisations  :  4624
 total energy-change (2. order) :-0.1184807E-01  (-0.1184676E-01)
 number of electron     240.0000000 magnetization      52.0000000
 augmentation part      240.0000000 magnetization      52.0000000

 Free energy of the ion-electron system (eV)
  ---------------------------------------------------
  alpha Z        PSCENC =       302.02824401
  Ewald energy   TEWEN  =     -8842.65233860
  -Hartree energ DENC   =     -2095.03983596
  -exchange      EXHF   =         0.00000000
  -V(xc)+E(xc)   XCENC  =       534.37172931
  PAW double counting   =      8141.38806575    -8271.61346273
  entropy T*S    EENTRO =        -0.00000000
  eigenvalues    EBANDS =     -2713.59672779
  atomic energy  EATOM  =     12703.13999606
  Solvation  Ediel_sol  =         0.00000000
  ---------------------------------------------------
  free energy    TOTEN  =      -241.97432995 eV

  energy without entropy =     -241.97432995  energy(sigma->0) =     -241.97432995


--------------------------------------------------------------------------------------------------------




--------------------------------------- Iteration      1(   7)  ---------------------------------------


     EDDAV:  cpu time      3.0227: real time      3.0553
       DOS:  cpu time      0.0004: real time      0.0004
    --------------------------------------------
      LOOP:  cpu time      3.0231: real time      3.0557

 eigenvalue-minimisations  :  4592
 total energy-change (2. order) :-0.3999453E-03  (-0.3999214E-03)
 number of electron     240.0000000 magnetization      52.0000000
 augmentation part      240.0000000 magnetization      52.0000000

 Free energy of the ion-electron system (eV)
  ---------------------------------------------------
  alpha Z        PSCENC =       302.02824401
  Ewald energy   TEWEN  =     -8842.65233860
  -Hartree energ DENC   =     -2095.03983596
  -exchange      EXHF   =         0.00000000
  -V(xc)+E(xc)   XCENC  =       534.37172931
  PAW double counting   =      8141.38806575    -8271.61346273
  entropy T*S    EENTRO =        -0.00000000
  eigenvalues    EBANDS =     -2713.59712773
  atomic energy  EATOM  =     12703.13999606
  Solvation  Ediel_sol  =         0.00000000
  ---------------------------------------------------
  free energy    TOTEN  =      -241.97472990 eV

  energy without entropy =     -241.97472990  energy(sigma->0) =     -241.97472990


--------------------------------------------------------------------------------------------------------




--------------------------------------- Iteration      1(   8)  ---------------------------------------


     EDDAV:  cpu time      2.9963: real time      3.0204
       DOS:  cpu time      0.0004: real time      0.0004
    --------------------------------------------
      LOOP:  cpu time      2.9967: real time      3.0207

 eigenvalue-minimisations  :  4552
 total energy-change (2. order) :-0.2399336E-04  (-0.2399267E-04)
 number of electron     240.0000000 magnetization      52.0000000
 augmentation part      240.0000000 magnetization      52.0000000

 Free energy of the ion-electron system (eV)
  ---------------------------------------------------
  alpha Z        PSCENC =       302.02824401
  Ewald energy   TEWEN  =     -8842.65233860
  -Hartree energ DENC   =     -2095.03983596
  -exchange      EXHF   =         0.00000000
  -V(xc)+E(xc)   XCENC  =       534.37172931
  PAW double counting   =      8141.38806575    -8271.61346273
  entropy T*S    EENTRO =        -0.00000000
  eigenvalues    EBANDS =     -2713.59715172
  atomic energy  EATOM  =     12703.13999606
  Solvation  Ediel_sol  =         0.00000000
  ---------------------------------------------------
  free energy    TOTEN  =      -241.97475389 eV

  energy without entropy =     -241.97475389  energy(sigma->0) =     -241.97475389


--------------------------------------------------------------------------------------------------------




--------------------------------------- Iteration      1(   9)  ---------------------------------------


     EDDAV:  cpu time      2.9610: real time      2.9856
       DOS:  cpu time      0.0004: real time      0.0004
    --------------------------------------------
      LOOP:  cpu time      2.9614: real time      2.9860

 eigenvalue-minimisations  :  4488
 total energy-change (2. order) :-0.1593464E-05  (-0.1593224E-05)
 number of electron     240.0000000 magnetization      52.0000000
 augmentation part      240.0000000 magnetization      52.0000000

 Free energy of the ion-electron system (eV)
  ---------------------------------------------------
  alpha Z        PSCENC =       302.02824401
  Ewald energy   TEWEN  =     -8842.65233860
  -Hartree energ DENC   =     -2095.03983596
  -exchange      EXHF   =         0.00000000
  -V(xc)+E(xc)   XCENC  =       534.37172931
  PAW double counting   =      8141.38806575    -8271.61346273
  entropy T*S    EENTRO =        -0.00000000
  eigenvalues    EBANDS =     -2713.59715332
  atomic energy  EATOM  =     12703.13999606
  Solvation  Ediel_sol  =         0.00000000
  ---------------------------------------------------
  free energy    TOTEN  =      -241.97475549 eV

  energy without entropy =     -241.97475549  energy(sigma->0) =     -241.97475549


--------------------------------------------------------------------------------------------------------




--------------------------------------- Iteration      1(  10)  ---------------------------------------


     EDDAV:  cpu time      1.9701: real time      1.9864
       DOS:  cpu time      0.0004: real time      0.0004
    CHARGE:  cpu time      0.0702: real time      0.0765
    MIXING:  cpu time      0.0020: real time      0.0035
    --------------------------------------------
      LOOP:  cpu time      2.0426: real time      2.0667

 eigenvalue-minimisations  :  2648
 total energy-change (2. order) :-0.7605377E-07  (-0.7603512E-07)
 number of electron     239.9999986 magnetization      27.2313316
 augmentation part        1.4916366 magnetization      27.6736518

 Broyden mixing:
  rms(total) = 0.64258E+01    rms(broyden)= 0.64253E+01
  rms(prec ) = 0.66644E+01
  weight for this iteration     100.00

 Free energy of the ion-electron system (eV)
  ---------------------------------------------------
  alpha Z        PSCENC =       302.02824401
  Ewald energy   TEWEN  =     -8842.65233860
  -Hartree energ DENC   =     -2095.03983596
  -exchange      EXHF   =         0.00000000
  -V(xc)+E(xc)   XCENC  =       534.37172931
  PAW double counting   =      8141.38806575    -8271.61346273
  entropy T*S    EENTRO =        -0.00000000
  eigenvalues    EBANDS =     -2713.59715339
  atomic energy  EATOM  =     12703.13999606
  Solvation  Ediel_sol  =         0.00000000
  ---------------------------------------------------
  free energy    TOTEN  =      -241.97475556 eV

  energy without entropy =     -241.97475556  energy(sigma->0) =     -241.97475556


--------------------------------------------------------------------------------------------------------




--------------------------------------- Iteration      1(  11)  ---------------------------------------


    POTLOK:  cpu time      0.0547: real time      0.0556
    SETDIJ:  cpu time      0.3977: real time      0.4009
    EDDIAG:  cpu time      0.3634: real time      0.3659
  RMM-DIIS:  cpu time      1.1490: real time      1.1594
    ORTHCH:  cpu time      0.0661: real time      0.0667
       DOS:  cpu time      0.0005: real time      0.0005
    CHARGE:  cpu time      0.0648: real time      0.0673
    MIXING:  cpu time      0.0012: real time      0.0252
    --------------------------------------------
      LOOP:  cpu time      2.0975: real time      2.1415

 eigenvalue-minimisations  :  2816
 total energy-change (2. order) : 0.5566042E+01  (-0.4679005E+01)
 number of electron     239.9999986 magnetization      16.2953701
 augmentation part        1.7040019 magnetization      16.4784576

 Broyden mixing:
  rms(total) = 0.33056E+01    rms(broyden)= 0.33054E+01
  rms(prec ) = 0.34201E+01
  weight for this iteration     100.00

 eigenvalues of (default mixing * dielectric matrix)
  average eigenvalue GAMMA=   0.7253
  0.7253

 Free energy of the ion-electron system (eV)
  ---------------------------------------------------
  alpha Z        PSCENC =       302.02824401
  Ewald energy   TEWEN  =     -8842.65233860
  -Hartree energ DENC   =     -2142.74120673
  -exchange      EXHF   =         0.00000000
  -V(xc)+E(xc)   XCENC  =       542.58829878
  PAW double counting   =      8927.89815742    -9064.18933782
  entropy T*S    EENTRO =        -0.00000000
  eigenvalues    EBANDS =     -2662.48052665
  atomic energy  EATOM  =     12703.13999606
  Solvation  Ediel_sol  =         0.00000000
  ---------------------------------------------------
  free energy    TOTEN  =      -236.40871354 eV

  energy without entropy =     -236.40871354  energy(sigma->0) =     -236.40871354


--------------------------------------------------------------------------------------------------------




--------------------------------------- Iteration      1(  12)  ---------------------------------------


    POTLOK:  cpu time      0.0523: real time      0.0532
    SETDIJ:  cpu time      0.4010: real time      0.4031
    EDDIAG:  cpu time      0.3557: real time      0.3584
  RMM-DIIS:  cpu time      1.2145: real time      1.2257
    ORTHCH:  cpu time      0.0654: real time      0.0658
       DOS:  cpu time      0.0005: real time      0.0005
    CHARGE:  cpu time      0.0654: real time      0.0671
    MIXING:  cpu time      0.0011: real time      0.0011
    --------------------------------------------
      LOOP:  cpu time      2.1558: real time      2.1750

 eigenvalue-minimisations  :  2948
 total energy-change (2. order) :-0.1964002E+02  (-0.2122877E+01)
 number of electron     239.9999986 magnetization       0.4980804
 augmentation part        1.8025605 magnetization       0.8389222

 Broyden mixing:
  rms(total) = 0.20285E+01    rms(broyden)= 0.20285E+01
  rms(prec ) = 0.20891E+01
  weight for this iteration     100.00

 eigenvalues of (default mixing * dielectric matrix)
  average eigenvalue GAMMA=   1.1534
  1.6362  0.6706

 Free energy of the ion-electron system (eV)
  ---------------------------------------------------
  alpha Z        PSCENC =       302.02824401
  Ewald energy   TEWEN  =     -8842.65233860
  -Hartree energ DENC   =     -2166.57443955
  -exchange      EXHF   =         0.00000000
  -V(xc)+E(xc)   XCENC  =       536.25791681
  PAW double counting   =      9281.17639792    -9421.06339022
  entropy T*S    EENTRO =        -0.00000000
  eigenvalues    EBANDS =     -2648.36111770
  atomic energy  EATOM  =     12703.13999606
  Solvation  Ediel_sol  =         0.00000000
  ---------------------------------------------------
  free energy    TOTEN  =      -256.04873126 eV

  energy without entropy =     -256.04873126  energy(sigma->0) =     -256.04873126


--------------------------------------------------------------------------------------------------------




--------------------------------------- Iteration      1(  13)  ---------------------------------------


    POTLOK:  cpu time      0.0522: real time      0.0531
    SETDIJ:  cpu time      0.4019: real time      0.4037
    EDDIAG:  cpu time      0.3717: real time      0.3748
  RMM-DIIS:  cpu time      1.1831: real time      1.1930
    ORTHCH:  cpu time      0.0660: real time      0.0664
       DOS:  cpu time      0.0005: real time      0.0005
    CHARGE:  cpu time      0.0648: real time      0.0664
    MIXING:  cpu time      0.0010: real time      0.0010
    --------------------------------------------
      LOOP:  cpu time      2.1411: real time      2.1590

 eigenvalue-minimisations  :  2906
 total energy-change (2. order) :-0.2493726E+01  (-0.8909282E+00)
 number of electron     239.9999986 magnetization      -1.8724976
 augmentation part        1.9031656 magnetization      -1.7687538

 Broyden mixing:
  rms(total) = 0.67148E+00    rms(broyden)= 0.67148E+00
  rms(prec ) = 0.70365E+00
  weight for this iteration     100.00

 eigenvalues of (default mixing * dielectric matrix)
  average eigenvalue GAMMA=   1.3022
  2.5072  0.7469  0.6525

 Free energy of the ion-electron system (eV)
  ---------------------------------------------------
  alpha Z        PSCENC =       302.02824401
  Ewald energy   TEWEN  =     -8842.65233860
  -Hartree energ DENC   =     -2193.81314666
  -exchange      EXHF   =         0.00000000
  -V(xc)+E(xc)   XCENC  =       537.81155236
  PAW double counting   =      9783.24941314    -9927.09064951
  entropy T*S    EENTRO =        -0.00000000
  eigenvalues    EBANDS =     -2621.21552795
  atomic energy  EATOM  =     12703.13999606
  Solvation  Ediel_sol  =         0.00000000
  ---------------------------------------------------
  free energy    TOTEN  =      -258.54245715 eV

  energy without entropy =     -258.54245715  energy(sigma->0) =     -258.54245715


--------------------------------------------------------------------------------------------------------




--------------------------------------- Iteration      1(  14)  ---------------------------------------


    POTLOK:  cpu time      0.0522: real time      0.0531
    SETDIJ:  cpu time      0.4063: real time      0.4078
    EDDIAG:  cpu time      0.3578: real time      0.3599
  RMM-DIIS:  cpu time      1.5525: real time      1.5660
    ORTHCH:  cpu time      0.0657: real time      0.0667
       DOS:  cpu time      0.0005: real time      0.0005
    CHARGE:  cpu time      0.0649: real time      0.0666
    MIXING:  cpu time      0.0011: real time      0.0011
    --------------------------------------------
      LOOP:  cpu time      2.5010: real time      2.5217

 eigenvalue-minimisations  :  3767
 total energy-change (2. order) :-0.1956235E+00  (-0.1950931E+00)
 number of electron     239.9999986 magnetization      -0.8457771
 augmentation part        1.8727483 magnetization      -0.8190901

 Broyden mixing:
  rms(total) = 0.32214E+00    rms(broyden)= 0.32214E+00
  rms(prec ) = 0.35681E+00
  weight for this iteration     100.00

 eigenvalues of (default mixing * dielectric matrix)
  average eigenvalue GAMMA=   1.2666
  2.6117  1.1731  0.6899  0.5916

 Free energy of the ion-electron system (eV)
  ---------------------------------------------------
  alpha Z        PSCENC =       302.02824401
  Ewald energy   TEWEN  =     -8842.65233860
  -Hartree energ DENC   =     -2195.08180920
  -exchange      EXHF   =         0.00000000
  -V(xc)+E(xc)   XCENC  =       538.25099708
  PAW double counting   =      9859.84929439   -10004.48735285
  entropy T*S    EENTRO =        -0.00000000
  eigenvalues    EBANDS =     -2619.78511158
  atomic energy  EATOM  =     12703.13999606
  Solvation  Ediel_sol  =         0.00000000
  ---------------------------------------------------
  free energy    TOTEN  =      -258.73808070 eV

  energy without entropy =     -258.73808070  energy(sigma->0) =     -258.73808070


--------------------------------------------------------------------------------------------------------




--------------------------------------- Iteration      1(  15)  ---------------------------------------


    POTLOK:  cpu time      0.0521: real time      0.0529
    SETDIJ:  cpu time      0.4011: real time      0.4026
    EDDIAG:  cpu time      0.3548: real time      0.3571
  RMM-DIIS:  cpu time      1.2525: real time      1.2632
    ORTHCH:  cpu time      0.0666: real time      0.0672
       DOS:  cpu time      0.0005: real time      0.0005
    CHARGE:  cpu time      0.0688: real time      0.0694
    MIXING:  cpu time      0.0012: real time      0.0012
    --------------------------------------------
      LOOP:  cpu time      2.1975: real time      2.2140

 eigenvalue-minimisations  :  3074
 total energy-change (2. order) : 0.2707490E-01  (-0.3274607E-01)
 number of electron     239.9999986 magnetization      -0.2270101
 augmentation part        1.8241161 magnetization      -0.2005708

 Broyden mixing:
  rms(total) = 0.69324E-01    rms(broyden)= 0.69322E-01
  rms(prec ) = 0.81643E-01
  weight for this iteration     100.00

 eigenvalues of (default mixing * dielectric matrix)
  average eigenvalue GAMMA=   1.2710
  2.5343  1.5848  0.9495  0.6851  0.6012

 Free energy of the ion-electron system (eV)
  ---------------------------------------------------
  alpha Z        PSCENC =       302.02824401
  Ewald energy   TEWEN  =     -8842.65233860
  -Hartree energ DENC   =     -2190.50497775
  -exchange      EXHF   =         0.00000000
  -V(xc)+E(xc)   XCENC  =       537.89354102
  PAW double counting   =      9831.06061480    -9975.50970125
  entropy T*S    EENTRO =        -0.00000000
  eigenvalues    EBANDS =     -2624.16638408
  atomic energy  EATOM  =     12703.13999606
  Solvation  Ediel_sol  =         0.00000000
  ---------------------------------------------------
  free energy    TOTEN  =      -258.71100580 eV

  energy without entropy =     -258.71100580  energy(sigma->0) =     -258.71100580


--------------------------------------------------------------------------------------------------------




--------------------------------------- Iteration      1(  16)  ---------------------------------------


    POTLOK:  cpu time      0.0529: real time      0.0537
    SETDIJ:  cpu time      0.4048: real time      0.4061
    EDDIAG:  cpu time      0.3545: real time      0.3566
  RMM-DIIS:  cpu time      1.2713: real time      1.2824
    ORTHCH:  cpu time      0.0654: real time      0.0663
       DOS:  cpu time      0.0005: real time      0.0005
    CHARGE:  cpu time      0.0646: real time      0.0656
    MIXING:  cpu time      0.0012: real time      0.0012
    --------------------------------------------
      LOOP:  cpu time      2.2151: real time      2.2324

 eigenvalue-minimisations  :  3075
 total energy-change (2. order) :-0.1912081E-01  (-0.1012366E-01)
 number of electron     239.9999986 magnetization      -0.1040211
 augmentation part        1.8021239 magnetization      -0.0896470

 Broyden mixing:
  rms(total) = 0.31051E-01    rms(broyden)= 0.31049E-01
  rms(prec ) = 0.37293E-01
  weight for this iteration     100.00

 eigenvalues of (default mixing * dielectric matrix)
  average eigenvalue GAMMA=   1.2511
  2.4487  1.9533  1.0415  0.6202  0.6986  0.7441

 Free energy of the ion-electron system (eV)
  ---------------------------------------------------
  alpha Z        PSCENC =       302.02824401
  Ewald energy   TEWEN  =     -8842.65233860
  -Hartree energ DENC   =     -2189.92971612
  -exchange      EXHF   =         0.00000000
  -V(xc)+E(xc)   XCENC  =       537.81090095
  PAW double counting   =      9819.86147424    -9964.08511343
  entropy T*S    EENTRO =        -0.00000000
  eigenvalues    EBANDS =     -2624.90357373
  atomic energy  EATOM  =     12703.13999606
[...]
  0.003  -0.002  -0.000  -0.001   0.003  -0.000  -0.000   0.000  -0.000  -0.000  -0.000   0.000   0.000   0.000
 -0.002   0.001   0.000   0.001  -0.000   0.006   0.000  -0.000   0.000   0.000  -0.000   0.000   0.000  -0.000
  0.009  -0.008  -0.000   0.006  -0.005   0.004   0.000  -0.000   0.000   0.000  -0.000  -0.000  -0.000  -0.000
 -0.011   0.011   0.000  -0.003  -0.003  -0.004  -0.000  -0.000  -0.000  -0.000   0.000   0.000  -0.000  -0.000
 -0.019   0.019   0.000  -0.005   0.002   0.004  -0.000   0.000   0.000  -0.000   0.000   0.000   0.000  -0.000
 -0.006   0.006   0.000  -0.004   0.004   0.005  -0.000   0.000   0.000  -0.000  -0.000   0.000   0.000  -0.000
  0.019  -0.019  -0.000  -0.000   0.004  -0.009  -0.000   0.000  -0.000  -0.000  -0.000  -0.000  -0.000   0.000
 total augmentation occupancy for first ion, spin component:           2
 -0.000   0.000   0.000  -0.000  -0.000   0.000  -0.000   0.000   0.000  -0.000   0.000   0.000  -0.000  -0.000
  0.000  -0.000  -0.000   0.000   0.000  -0.000   0.000   0.000  -0.000   0.000  -0.000  -0.000   0.000   0.000
  0.000  -0.000  -0.000   0.000   0.000  -0.000   0.000   0.000  -0.000   0.000   0.000  -0.000  -0.000   0.000
 -0.000   0.000   0.000  -0.000   0.000   0.000  -0.000  -0.000   0.000   0.000  -0.000  -0.000   0.000   0.000
 -0.000   0.000   0.000   0.000  -0.000   0.000  -0.000  -0.000  -0.000   0.000  -0.000   0.000   0.000  -0.000
  0.000  -0.000  -0.000   0.000   0.000  -0.000   0.000   0.000  -0.000   0.000  -0.000  -0.000   0.000   0.000
 -0.000   0.000   0.000  -0.000  -0.000   0.000  -0.000   0.000   0.000   0.000  -0.000   0.000   0.000  -0.000
  0.000   0.000   0.000  -0.000  -0.000   0.000   0.000  -0.000   0.000   0.000  -0.000   0.000   0.000  -0.000
  0.000  -0.000  -0.000   0.000  -0.000  -0.000   0.000   0.000   0.000   0.000  -0.000   0.000  -0.000  -0.000
 -0.000   0.000   0.000   0.000   0.000   0.000   0.000   0.000   0.000   0.000   0.000   0.000   0.000  -0.000
  0.000  -0.000   0.000  -0.000  -0.000  -0.000  -0.000  -0.000  -0.000   0.000   0.000   0.000   0.000  -0.000
  0.000  -0.000  -0.000  -0.000   0.000  -0.000   0.000   0.000   0.000   0.000   0.000  -0.000   0.000   0.000
 -0.000   0.000  -0.000   0.000   0.000   0.000   0.000   0.000  -0.000   0.000   0.000   0.000   0.000  -0.000
 -0.000   0.000   0.000   0.000  -0.000   0.000  -0.000  -0.000  -0.000  -0.000  -0.000   0.000  -0.000   0.000


------------------------ aborting loop because EDIFF is reached ----------------------------------------


    CHARGE:  cpu time      0.0649: real time      0.0656
    FORLOC:  cpu time      0.0038: real time      0.0038
    FORNL :  cpu time      0.3951: real time      0.3979
    STRESS:  cpu time      1.1821: real time      1.1898
    FORCOR:  cpu time      0.0495: real time      0.0499
    FORHAR:  cpu time      0.0091: real time      0.0091
    MIXING:  cpu time      0.0007: real time      0.0007
    OFIELD:  cpu time      0.0000: real time      0.0000

 ---------------------------------------------------------------------------------------------

         DFTD3 V3.0 Rev 1        
 Edisp (eV)  -13.62464

 E6    (eV) :    -8.3942
 E8    (eV) :    -5.2304
 % E8        : 38.39
    FORVDW:  cpu time      0.2801: real time      0.2820

  FORCE on cell =-STRESS in cart. coord.  units (eV):
  Direction    XX          YY          ZZ          XY          YZ          ZX
  --------------------------------------------------------------------------------------
  Alpha Z   302.02824   302.02824   302.02824
  Ewald   -3015.04985 -2927.91988 -2899.66425    26.52677   -52.52107   -14.83254
  Hartree   695.05880   743.60088   753.84871     8.63567   -18.58710   -12.95240
  E(xc)    -947.89187  -947.80001  -947.66085     0.07728    -0.13260    -0.01115
  Local   -1392.99194 -1523.82635 -1560.32117   -32.66506    67.57320    29.35316
  n-local  1481.24082  1481.63985  1481.91544     0.14839    -0.83511    -0.16598
  augment  -357.02313  -357.01099  -356.65786     0.05679    -0.03272     0.14391
  Kinetic  3248.23001  3245.16731  3240.18565    -1.39419     2.09007    -2.98384
  Fock        0.00000     0.00000     0.00000     0.00000     0.00000     0.00000
  vdW       -14.40421   -14.37077   -14.40949     0.01175     0.02542    -0.00202
  -------------------------------------------------------------------------------------
  Total      -0.80312     1.50827    -0.73558     1.39739    -2.41991    -1.45086
  in kB      -1.43165     2.68866    -1.31125     2.49100    -4.31375    -2.58633
  external pressure =       -0.02 kB  Pullay stress =        0.00 kB


 VOLUME and BASIS-vectors are now :
 -----------------------------------------------------------------------------
  energy-cutoff  :      520.00
  volume of cell :      898.78
      direct lattice vectors                 reciprocal lattice vectors
     9.650535910  0.000000000  0.000000000     0.103621188  0.000000000  0.000000000
     0.000000000  9.650535910  0.000000000     0.000000000  0.103621188  0.000000000
     0.000000000  0.000000000  9.650535910     0.000000000  0.000000000  0.103621188

  length of vectors
     9.650535910  9.650535910  9.650535910     0.103621188  0.103621188  0.103621188


 FORCES acting on ions
    electron-ion (+dipol)            ewald-force                    non-local-force                 convergence-correction
 -----------------------------------------------------------------------------------------------
   -.499E+01 -.101E+01 0.320E+00   0.418E+01 0.197E+01 0.549E+00   0.808E+00 -.963E+00 -.873E+00   -.122E-04 0.316E-05 -.218E-04
   -.177E+01 -.134E+02 -.113E+02   0.776E+00 0.123E+02 0.998E+01   0.991E+00 0.107E+01 0.127E+01   0.198E-04 0.473E-04 0.245E-04
   0.169E+01 0.580E+01 -.640E+00   -.105E+01 -.485E+01 -.513E-01   -.638E+00 -.949E+00 0.690E+00   -.152E-04 -.108E-04 0.253E-04
   -.664E+01 0.424E+01 -.751E+01   0.764E+01 -.317E+01 0.634E+01   -.100E+01 -.107E+01 0.118E+01   0.140E-05 -.292E-05 -.447E-05
   -.217E+01 0.427E+01 -.487E+01   0.135E+01 -.513E+01 0.415E+01   0.819E+00 0.867E+00 0.712E+00   0.855E-05 0.244E-04 0.298E-05
   0.606E+00 -.149E+01 0.290E+01   -.136E+01 0.284E+01 -.216E+01   0.758E+00 -.136E+01 -.739E+00   -.236E-04 -.307E-04 -.814E-05
   0.981E+01 -.113E+02 0.616E+00   -.832E+01 0.999E+01 0.239E+00   -.149E+01 0.130E+01 -.852E+00   0.139E-04 0.861E-06 -.200E-04
   0.718E+01 0.143E+02 -.358E+00   -.623E+01 -.125E+02 -.529E+00   -.945E+00 -.179E+01 0.886E+00   -.139E-04 -.319E-04 -.401E-05
   0.510E+01 0.741E+00 0.648E+01   -.406E+01 -.173E+01 -.580E+01   -.104E+01 0.986E+00 -.677E+00   -.130E-04 -.906E-05 -.231E-04
   0.206E+01 -.348E+01 0.269E+01   -.311E+01 0.419E+01 -.139E+01   0.104E+01 -.700E+00 -.131E+01   0.990E-05 -.317E-04 0.221E-04
   -.116E+01 -.558E+01 0.653E+01   0.260E+01 0.492E+01 -.545E+01   -.144E+01 0.656E+00 -.108E+01   -.940E-05 -.285E-04 0.815E-05
   0.350E+01 0.418E+01 0.426E+01   -.415E+01 -.382E+01 -.349E+01   0.650E+00 -.358E+00 -.776E+00   0.781E-05 0.875E-05 0.949E-05
   0.186E+01 -.178E+01 0.127E+00   -.294E+01 0.410E+00 -.978E+00   0.108E+01 0.138E+01 0.847E+00   -.349E-05 -.188E-04 -.176E-05
   0.147E+02 -.169E+02 0.267E+01   -.132E+02 0.155E+02 -.171E+01   -.156E+01 0.140E+01 -.960E+00   -.206E-04 0.804E-05 -.252E-04
   -.196E+01 -.529E+01 0.129E+01   0.120E+01 0.639E+01 -.393E+00   0.760E+00 -.110E+01 -.900E+00   -.280E-04 -.321E-04 -.180E-04
   -.152E+01 0.779E+01 -.319E+01   0.870E+00 -.893E+01 0.270E+01   0.655E+00 0.115E+01 0.488E+00   -.472E-05 0.534E-04 0.123E-04
   -.324E+01 -.248E+01 0.218E+01   0.224E+01 0.168E+01 -.344E+01   0.100E+01 0.798E+00 0.126E+01   0.179E-04 0.609E-07 0.326E-04
   -.228E+01 0.661E+01 -.198E+01   0.132E+01 -.587E+01 0.268E+01   0.955E+00 -.733E+00 -.699E+00   -.465E-04 -.953E-05 -.102E-04
   0.344E+01 0.106E+01 0.772E+01   -.416E+01 -.171E+01 -.852E+01   0.732E+00 0.654E+00 0.801E+00   0.217E-04 0.444E-04 -.176E-04
   -.103E+02 0.530E+01 0.114E+01   0.917E+01 -.455E+01 -.252E+00   0.114E+01 -.740E+00 -.882E+00   -.977E-04 -.565E-04 -.345E-04
   -.540E+01 0.368E+01 0.842E+01   0.466E+01 -.245E+01 -.692E+01   0.738E+00 -.123E+01 -.151E+01   0.209E-04 -.206E-06 0.287E-04
   -.927E+01 -.141E+02 -.972E+01   0.847E+01 0.125E+02 0.798E+01   0.803E+00 0.153E+01 0.173E+01   0.274E-04 -.954E-05 0.698E-05
   -.373E+01 0.118E+02 -.913E+01   0.439E+01 -.101E+02 0.778E+01   -.664E+00 -.160E+01 0.134E+01   0.233E-04 -.207E-04 -.268E-04
   -.182E+01 0.393E+01 -.200E+01   0.253E+01 -.492E+01 0.271E+01   -.703E+00 0.997E+00 -.716E+00   0.176E-04 0.129E-04 0.724E-05
   0.720E+00 0.300E+01 0.594E+00   -.735E+00 -.336E+01 -.489E+00   0.588E-02 0.361E+00 -.107E+00   0.291E-04 0.624E-04 0.680E-05
   -.161E+01 -.363E+01 -.407E+00   0.180E+01 0.348E+01 0.452E+00   -.181E+00 0.148E+00 -.385E-01   0.119E-04 -.424E-04 -.159E-04
   -.220E+01 0.367E+01 -.362E-01   0.198E+01 -.346E+01 -.102E+00   0.212E+00 -.205E+00 0.134E+00   0.239E-04 -.138E-04 0.110E-03
   0.691E+01 -.312E+01 0.192E+01   -.678E+01 0.310E+01 -.192E+01   -.125E+00 0.203E-01 -.417E-02   -.490E-04 -.144E-04 0.178E-05
   -.131E+02 0.576E+02 -.485E+02   0.147E+02 -.614E+02 0.516E+02   -.154E+01 0.384E+01 -.314E+01   -.958E-05 -.306E-04 0.660E-04
   -.548E+02 -.434E+02 0.271E+02   0.589E+02 0.461E+02 -.291E+02   -.418E+01 -.271E+01 0.203E+01   -.199E-04 0.192E-04 -.366E-04
   0.499E+02 0.210E+02 0.424E+02   -.531E+02 -.235E+02 -.460E+02   0.323E+01 0.256E+01 0.364E+01   -.237E-04 -.299E-04 -.365E-04
   0.326E+02 -.411E+02 -.433E+02   -.352E+02 0.443E+02 0.466E+02   0.260E+01 -.321E+01 -.329E+01   0.186E-04 -.278E-04 -.140E-04
   0.355E+02 -.609E+02 -.218E+02   -.379E+02 0.650E+02 0.237E+02   0.244E+01 -.406E+01 -.186E+01   -.324E-04 0.594E-05 0.728E-04
   0.472E+02 0.485E+02 0.346E+02   -.504E+02 -.518E+02 -.371E+02   0.319E+01 0.329E+01 0.248E+01   -.204E-03 -.811E-04 0.214E-05
   -.225E+02 -.377E+02 0.626E+02   0.242E+02 0.403E+02 -.668E+02   -.174E+01 -.260E+01 0.414E+01   0.192E-03 0.860E-04 0.154E-03
   -.373E+02 0.296E+02 -.566E+02   0.402E+02 -.319E+02 0.608E+02   -.285E+01 0.238E+01 -.419E+01   0.574E-04 0.530E-04 0.311E-04
   -.544E+02 -.430E+02 0.268E+02   0.581E+02 0.462E+02 -.291E+02   -.371E+01 -.321E+01 0.234E+01   0.183E-04 0.550E-04 -.187E-04
   -.470E+02 0.420E+02 -.302E+02   0.502E+02 -.454E+02 0.326E+02   -.322E+01 0.340E+01 -.241E+01   0.138E-04 -.429E-04 -.356E-04
   0.307E+02 -.401E+02 -.504E+02   -.332E+02 0.429E+02 0.540E+02   0.254E+01 -.282E+01 -.367E+01   0.117E-04 0.271E-04 0.151E-04
   0.553E+02 0.285E+02 0.239E+02   -.593E+02 -.311E+02 -.266E+02   0.404E+01 0.262E+01 0.277E+01   0.250E-04 -.205E-04 0.111E-04
   -.228E+02 -.374E+02 0.556E+02   0.251E+02 0.403E+02 -.597E+02   -.226E+01 -.288E+01 0.408E+01   0.792E-04 0.719E-04 0.827E-05
   -.373E+02 0.294E+02 -.615E+02   0.402E+02 -.316E+02 0.656E+02   -.285E+01 0.219E+01 -.410E+01   0.247E-03 0.108E-03 0.153E-03
   0.618E+02 -.212E+02 -.259E+02   -.660E+02 0.235E+02 0.284E+02   0.419E+01 -.234E+01 -.255E+01   0.263E-04 0.483E-04 -.349E-04
   0.439E+02 0.518E+02 0.361E+02   -.468E+02 -.553E+02 -.384E+02   0.293E+01 0.347E+01 0.224E+01   -.338E-04 0.219E-04 -.986E-04
   -.706E+01 -.187E+01 -.138E+02   0.728E+01 0.186E+01 0.141E+02   -.218E+00 0.108E-01 -.305E+00   -.110E-03 -.585E-04 -.332E-04
   0.164E+02 0.958E+01 0.150E+01   -.167E+02 -.975E+01 -.163E+01   0.283E+00 0.168E+00 0.121E+00   0.137E-04 -.354E-04 -.520E-04
   0.134E+02 0.369E+01 0.876E+00   -.136E+02 -.389E+01 -.986E+00   0.220E+00 0.196E+00 0.112E+00   -.201E-04 -.808E-04 -.317E-04
   0.183E+02 -.216E+01 0.530E+01   -.187E+02 0.219E+01 -.549E+01   0.436E+00 -.324E-01 0.191E+00   0.122E-04 -.124E-05 0.652E-04
   -.173E+01 0.187E+02 0.234E+02   0.189E+01 -.191E+02 -.238E+02   -.158E+00 0.362E+00 0.387E+00   -.144E-04 0.376E-04 0.311E-04
   -.573E+02 0.316E+01 -.139E+02   0.584E+02 -.315E+01 0.140E+02   -.110E+01 -.133E-01 -.122E+00   -.181E-03 -.211E-04 -.147E-03
   -.179E+02 -.166E+02 0.278E+02   0.181E+02 0.167E+02 -.280E+02   -.199E+00 -.166E+00 0.267E+00   0.268E-04 -.133E-03 0.672E-04
   -.342E+02 0.417E+01 0.734E+00   0.347E+02 -.416E+01 -.778E+00   -.466E+00 -.146E-01 0.457E-01   -.317E-04 0.139E-04 -.134E-04
 -----------------------------------------------------------------------------------------------
   -.499E+01 -.953E+00 0.156E+01   0.135E-12 -.311E-13 0.122E-13   0.499E+01 0.959E+00 -.158E+01   -.211E-04 -.113E-03 0.193E-03
 
 
 POSITION                                       TOTAL-FORCE (eV/Angst)
 -----------------------------------------------------------------------------------
      9.51166      2.08163      1.95724         0.000028      0.000059      0.000127
      9.22542      7.99113      8.22182        -0.000065     -0.000036      0.000158
      0.24302      1.79061      8.02357        -0.000142      0.000027     -0.000118
      0.31537      6.65205      2.97622         0.000028      0.000174      0.000047
      2.87068      2.69673      9.54019        -0.000221     -0.000202     -0.000016
      2.74792      6.83302      0.15186        -0.000167     -0.000158     -0.000018
      6.36378      3.04307      0.36027        -0.000158     -0.000117      0.000066
      6.48498      6.38545      9.26412         0.000066     -0.000144     -0.000032
      1.76709      9.35920      1.76773         0.000082      0.000001     -0.000057
      2.64899      0.27914      6.64485        -0.000128     -0.000048      0.000092
      6.77751      9.46402      6.65223         0.000023     -0.000075     -0.000025
      7.70642      0.19237      1.59598        -0.000068      0.000056     -0.000081
      2.62890      7.73614      4.60342        -0.000025      0.000257     -0.000045
      1.62167      3.23024      5.16363        -0.000002     -0.000014     -0.000017
      7.56808      6.88668      4.95838        -0.000213     -0.000114     -0.000004
      7.75271      2.89609      4.62406        -0.000160      0.000265      0.000124
      2.98511      4.64264      7.71697         0.000206     -0.000103     -0.000104
      3.33921      5.07511      2.13421         0.000339      0.000077      0.000157
      7.64946      4.63217      2.66213         0.000023      0.000060     -0.000169
      8.25228      5.15518      6.87167         0.000909      0.000319      0.000158
      4.57918      2.12779      6.67347        -0.000023      0.000002     -0.000201
      4.64357      8.00925      2.88534         0.000018     -0.000001     -0.000022
      5.19715      1.61508      3.23527         0.000075     -0.000074      0.000075
      4.96412      7.51058      6.81483        -0.000064     -0.000235      0.000262
      4.83397      4.80135      4.83488        -0.000007     -0.000045      0.000085
      4.79938      9.61600      9.60102        -0.000016     -0.000053     -0.000029
      0.00311      4.86267      0.03293        -0.000023     -0.000064      0.000033
      9.60576      0.02308      4.83443        -0.000090      0.000011     -0.000002
      0.95113      8.38245      6.08367         0.000025     -0.000080      0.000095
      1.26713      1.16011      3.74320         0.000078      0.000016     -0.000077
      8.43965      8.56628      3.56050        -0.000207     -0.000099     -0.000083
      8.51571      1.25581      6.06796        -0.000122      0.000090     -0.000023
      8.48841      6.18158      1.09146         0.000004      0.000157      0.000069
      8.39392      3.59141      8.67962        -0.000143     -0.000089     -0.000024
      1.05232      5.96814      8.30754         0.000000     -0.000093     -0.000199
      1.26474      3.84819      1.29804         0.000127     -0.000085      0.000122
      5.95256      1.21327      8.45322        -0.000003      0.000039     -0.000128
      5.99912      8.32405      0.99202         0.000068     -0.000096      0.000035
      3.75011      1.07154      1.33265        -0.000026      0.000073      0.000090
      3.51132      8.55054      8.41278        -0.000178     -0.000134     -0.000064
      5.86495      5.98462      3.50571         0.000075      0.000057     -0.000197
      6.10276      3.84343      6.11893         0.000042      0.000070      0.000192
      3.49963      5.96453      5.88297        -0.000127      0.000090      0.000011
      3.70149      3.42192      3.82308        -0.000047     -0.000147     -0.000017
      7.20726      7.25314      7.20811         0.000004     -0.000024     -0.000030
      7.24925      2.36744      2.42763         0.000049      0.000066      0.000072
      2.48148      7.24679      2.39470         0.000021      0.000019     -0.000006
      2.36470      2.46751      7.29006        -0.000016     -0.000035     -0.000011
      0.02070      0.20700      0.18755         0.000006      0.000045      0.000026
      9.26793      4.88114      4.64339         0.000065      0.000020     -0.000008
      4.69482      9.50842      5.06487         0.000035      0.000193     -0.000224
      4.53644      4.81656      9.63242         0.000049      0.000121     -0.000063
 -----------------------------------------------------------------------------------
    total drift:                                0.003059      0.005813     -0.017650


--------------------------------------------------------------------------------------------------------



  FREE ENERGIE OF THE ION-ELECTRON SYSTEM (eV)
  ---------------------------------------------------
  free  energy   TOTEN  =      -272.36242072 eV

  energy  without entropy=     -272.36242072  energy(sigma->0) =     -272.36242072
 
 d Force = 0.2422675E-06[ 0.144E-06, 0.340E-06]  d Energy = 0.3531241E-06-0.111E-06
 d Force = 0.2337648E-02[ 0.234E-02, 0.234E-02]  d Ewald  = 0.2337648E-02 0.909E-11


--------------------------------------------------------------------------------------------------------


    POTLOK:  cpu time      0.4617: real time      0.4632


--------------------------------------------------------------------------------------------------------


 stress matrix after NEB project (eV)
     -0.80312      1.39739     -1.45086
      1.39739      1.50827     -2.41991
     -1.45086     -2.41991     -0.73558
  FORCES: max atom, RMS     0.000976    0.000226
  FORCE total and by dimension    0.001633    0.000909
  Stress total and by dimension    4.825794    2.419910
 Conjugate gradient step on ions:
 trial-energy change:   -0.000000  1 .order   -0.000000   -0.000000   -0.000000
  (g-gl).g = 0.204E-06      g.g   = 0.241E-06  gl.gl    = 0.666E-06
 g(Force)  = 0.241E-06   g(Stress)= 0.000E+00 ortho     = 0.373E-07
 gamma     =   0.30603
 trial     =   1.34880
 opt step  =   2.33885  (harmonic =   2.33885) maximal distance =0.00012840
 next E    =  -272.362421   (d E  =  -0.00000)


--------------------------------------------------------------------------------------------------------


  
 reached required accuracy - stopping structural energy minimisation
     LOOP+:  cpu time      7.0682: real time      7.1343
    4ORBIT:  cpu time      0.0000: real time      0.0000

 total amount of memory used by VASP MPI-rank0    48283. kBytes
=======================================================================

   base      :      30000. kBytes
   nonlr-proj:       6623. kBytes
   fftplans  :       1747. kBytes
   grid      :       5278. kBytes
   one-center:         62. kBytes
   wavefun   :       4573. kBytes
 
  
  
 General timing and accounting informations for this job:
 ========================================================
  
                  Total CPU time used (sec):      110.617
                            User time (sec):      109.340
                          System time (sec):        1.278
                         Elapsed time (sec):      114.951
  
                   Maximum memory used (kb):      380124.
                   Average memory used (kb):          N/A
  
                          Minor page faults:        61701
                          Major page faults:          137
                 Voluntary context switches:         5149
