unknown system                          
           1
     9.650536    0.000000    0.000000
     0.000000    9.650536    0.000000
     0.000000    0.000000    9.650536
   Li   P    S    Cl
    24     4    20     4
Direct configuration=     1
   0.98560904  0.21569967  0.20280924
   0.95594994  0.82805113  0.85195049
   0.02518444  0.18554490  0.83141356
   0.03267925  0.68929085  0.30839899
   0.29746681  0.27944144  0.98856620
   0.28474565  0.70804764  0.01573641
   0.65942640  0.31532958  0.03733000
   0.67198025  0.66167141  0.95996013
   0.18310671  0.96981161  0.18317548
   0.27449311  0.02892565  0.68854564
   0.70229353  0.98067402  0.68931245
   0.79854921  0.01993228  0.16537893
   0.27241007  0.80162398  0.47701207
   0.16803921  0.33472143  0.53506179
   0.78421624  0.71360749  0.51379359
   0.80334699  0.30009196  0.47914860
   0.30931763  0.48107712  0.79964261
   0.34600828  0.52588796  0.22114680
   0.79264612  0.47998996  0.27585600
   0.85509075  0.53417856  0.71204586
   0.47450153  0.22048468  0.69151722
   0.48117148  0.82992781  0.29898294
   0.53853314  0.16735849  0.33524081
   0.51438914  0.77825858  0.70615668
   0.50090292  0.49752132  0.50099504
   0.49731795  0.99642194  0.99486954
   0.00032163  0.50387649  0.00341259
   0.99536178  0.00239117  0.50094915
   0.09856092  0.86859630  0.63040087
   0.13130572  0.12021721  0.38787153
   0.87452557  0.88764435  0.36893931
   0.88240747  0.13013022  0.62877435
   0.87957378  0.64054425  0.11310149
   0.86978678  0.37214182  0.89938702
   0.10904704  0.61843289  0.86083660
   0.13105699  0.39875000  0.13450814
   0.61681710  0.12572506  0.87593127
   0.62163955  0.86254538  0.10279834
   0.38858688  0.11103671  0.13809446
   0.36384593  0.88601456  0.87173838
   0.60773724  0.62013951  0.36326420
   0.63237928  0.39825245  0.63405179
   0.36263417  0.61805440  0.60960524
   0.38354863  0.35458132  0.39614706
   0.74682472  0.75157903  0.74691389
   0.75117518  0.24531560  0.25155256
   0.25713304  0.75092069  0.24814144
   0.24503310  0.25568712  0.75540500
   0.00214442  0.02144933  0.01943542
   0.96035092  0.50578870  0.48115501
   0.48648220  0.98527339  0.52482867
   0.47007032  0.49909847  0.99812194
Direct configuration=     2
   0.98560907  0.21569987  0.20280971
   0.95594959  0.82805101  0.85195143
   0.02518390  0.18554498  0.83141318
   0.03267929  0.68929153  0.30839911
   0.29746595  0.27944066  0.98856611
   0.28474498  0.70804701  0.01573634
   0.65942551  0.31532899  0.03733026
   0.67198056  0.66167058  0.95995995
   0.18310701  0.96981164  0.18317527
   0.27449255  0.02892545  0.68854599
   0.70229360  0.98067370  0.68931235
   0.79854895  0.01993252  0.16537852
   0.27240988  0.80162501  0.47701190
   0.16803914  0.33472133  0.53506165
   0.78421541  0.71360706  0.51379365
   0.80334643  0.30009296  0.47914900
   0.30931835  0.48107671  0.79964227
   0.34600953  0.52588825  0.22114738
   0.79264623  0.47999018  0.27585533
   0.85509543  0.53418021  0.71204690
   0.47450129  0.22048465  0.69151622
   0.48117150  0.82992790  0.29898273
   0.53853345  0.16735810  0.33524121
   0.51438896  0.77825767  0.70615768
   0.50090262  0.49752117  0.50099545
   0.49731801  0.99642172  0.99486965
   0.00032188  0.50387631  0.00341253
   0.99536121  0.00239162  0.50094932
   0.09855956  0.86859745  0.63039971
   0.13130431  0.12021551  0.38787273
   0.87452623  0.88764556  0.36894067
   0.88240821  0.13012917  0.62877253
   0.87957550  0.64054349  0.11310027
   0.86978761  0.37214325  0.89938865
   0.10904543  0.61843073  0.86083729
   0.13105564  0.39875155  0.13450675
   0.61681536  0.12572348  0.87593212
   0.62163828  0.86254653  0.10279692
   0.38858836  0.11103558  0.13809318
   0.36384670  0.88601558  0.87173985
   0.60773577  0.62013772  0.36326515
   0.63237763  0.39825486  0.63405106
   0.36263508  0.61805324  0.60960356
   0.38355015  0.35458238  0.39614865
   0.74682473  0.75157899  0.74691387
   0.75117527  0.24531590  0.25155280
   0.25713312  0.75092084  0.24814141
   0.24503299  0.25568700  0.75540486
   0.00214439  0.02144915  0.01943489
   0.96035223  0.50578902  0.48115469
   0.48648235  0.98527376  0.52482805
   0.47007098  0.49909836  0.99812200
Direct configuration=     3
   0.98560909  0.21569999  0.20280999
   0.95594939  0.82805093  0.85195198
   0.02518357  0.18554503  0.83141296
   0.03267931  0.68929194  0.30839919
   0.29746544  0.27944020  0.98856606
   0.28474458  0.70804663  0.01573630
   0.65942498  0.31532864  0.03733042
   0.67198074  0.66167009  0.95995985
   0.18310718  0.96981166  0.18317515
   0.27449221  0.02892532  0.68854620
   0.70229364  0.98067351  0.68931229
   0.79854880  0.01993266  0.16537827
   0.27240977  0.80162562  0.47701180
   0.16803910  0.33472128  0.53506157
   0.78421492  0.71360680  0.51379369
   0.80334610  0.30009355  0.47914924
   0.30931878  0.48107647  0.79964207
   0.34601027  0.52588842  0.22114772
   0.79264630  0.47999031  0.27585494
   0.85509821  0.53418119  0.71204751
   0.47450115  0.22048463  0.69151563
   0.48117152  0.82992795  0.29898261
   0.53853364  0.16735786  0.33524145
   0.51438886  0.77825713  0.70615827
   0.50090245  0.49752109  0.50099569
   0.49731804  0.99642159  0.99486971
   0.00032203  0.50387621  0.00341250
   0.99536087  0.00239189  0.50094942
   0.09855875  0.86859813  0.63039903
   0.13130347  0.12021450  0.38787343
   0.87452662  0.88764628  0.36894148
   0.88240864  0.13012855  0.62877146
   0.87957651  0.64054305  0.11309955
   0.86978810  0.37214409  0.89938962
   0.10904447  0.61842946  0.86083770
   0.13105484  0.39875247  0.13450593
   0.61681433  0.12572255  0.87593262
   0.62163753  0.86254720  0.10279608
   0.38858923  0.11103491  0.13809243
   0.36384716  0.88601618  0.87174071
   0.60773490  0.62013666  0.36326571
   0.63237665  0.39825629  0.63405062
   0.36263561  0.61805255  0.60960257
   0.38355105  0.35458301  0.39614960
   0.74682474  0.75157896  0.74691385
   0.75117533  0.24531608  0.25155295
   0.25713317  0.75092092  0.24814140
   0.24503293  0.25568694  0.75540478
   0.00214437  0.02144904  0.01943457
   0.96035301  0.50578922  0.48115450
   0.48648243  0.98527398  0.52482769
   0.47007137  0.49909829  0.99812203
Direct configuration=     4
   0.98560912  0.21570023  0.20281054
   0.95594898  0.82805079  0.85195309
   0.02518292  0.18554512  0.83141251
   0.03267936  0.68929276  0.30839934
   0.29746442  0.27943928  0.98856595
   0.28474378  0.70804588  0.01573622
   0.65942392  0.31532794  0.03733074
   0.67198111  0.66166911  0.95995964
   0.18310753  0.96981171  0.18317491
   0.27449154  0.02892508  0.68854662
   0.70229372  0.98067313  0.68931217
   0.79854850  0.01993294  0.16537779
   0.27240954  0.80162684  0.47701160
   0.16803901  0.33472116  0.53506140
   0.78421393  0.71360629  0.51379377
   0.80334543  0.30009472  0.47914971
   0.30931964  0.48107598  0.79964166
   0.34601175  0.52588877  0.22114841
   0.79264644  0.47999058  0.27585414
   0.85510376  0.53418314  0.71204873
   0.47450087  0.22048459  0.69151445
   0.48117155  0.82992806  0.29898236
   0.53853400  0.16735740  0.33524192
   0.51438866  0.77825605  0.70615946
   0.50090209  0.49752092  0.50099618
   0.49731811  0.99642134  0.99486984
   0.00032233  0.50387599  0.00341243
   0.99536019  0.00239243  0.50094961
   0.09855713  0.86859949  0.63039766
   0.13130180  0.12021248  0.38787485
   0.87452740  0.88764771  0.36894309
   0.88240951  0.13012731  0.62876931
   0.87957854  0.64054215  0.11309811
   0.86978908  0.37214578  0.89939155
   0.10904256  0.61842690  0.86083852
   0.13105325  0.39875430  0.13450429
   0.61681228  0.12572068  0.87593363
   0.62163604  0.86254855  0.10279440
   0.38859098  0.11103358  0.13809092
   0.36384807  0.88601738  0.87174245
   0.60773316  0.62013454  0.36326683
   0.63237471  0.39825914  0.63404975
   0.36263669  0.61805118  0.60960059
   0.38355284  0.35458426  0.39615149
   0.74682475  0.75157891  0.74691382
   0.75117544  0.24531644  0.25155323
   0.25713327  0.75092109  0.24814137
   0.24503281  0.25568680  0.75540462
   0.00214433  0.02144882  0.01943394
   0.96035458  0.50578960  0.48115411
   0.48648260  0.98527442  0.52482696
   0.47007215  0.49909817  0.99812209
Direct configuration=     5
   0.98560912  0.21570018  0.20281044
   0.95594905  0.82805081  0.85195289
   0.02518304  0.18554510  0.83141259
   0.03267935  0.68929260  0.30839931
   0.29746461  0.27943945  0.98856597
   0.28474393  0.70804602  0.01573624
   0.65942412  0.31532807  0.03733068
   0.67198104  0.66166929  0.95995968
   0.18310747  0.96981170  0.18317496
   0.27449166  0.02892512  0.68854655
   0.70229371  0.98067320  0.68931219
   0.79854856  0.01993289  0.16537788
   0.27240958  0.80162661  0.47701164
   0.16803903  0.33472118  0.53506143
   0.78421411  0.71360639  0.51379375
   0.80334556  0.30009451  0.47914962
   0.30931948  0.48107607  0.79964174
   0.34601148  0.52588870  0.22114828
   0.79264642  0.47999053  0.27585429
   0.85510273  0.53418278  0.71204850
   0.47450092  0.22048459  0.69151467
   0.48117154  0.82992804  0.29898240
   0.53853394  0.16735749  0.33524183
   0.51438869  0.77825625  0.70615924
   0.50090216  0.49752095  0.50099609
   0.49731810  0.99642139  0.99486982
   0.00032227  0.50387603  0.00341244
   0.99536031  0.00239233  0.50094958
   0.09855743  0.86859924  0.63039791
   0.13130211  0.12021285  0.38787459
   0.87452725  0.88764744  0.36894279
   0.88240935  0.13012754  0.62876971
   0.87957817  0.64054232  0.11309837
   0.86978890  0.37214547  0.89939119
   0.10904292  0.61842737  0.86083837
   0.13105354  0.39875396  0.13450459
   0.61681266  0.12572102  0.87593345
   0.62163631  0.86254830  0.10279471
   0.38859066  0.11103383  0.13809120
   0.36384790  0.88601716  0.87174213
   0.60773348  0.62013493  0.36326662
   0.63237507  0.39825861  0.63404991
   0.36263649  0.61805143  0.60960095
   0.38355251  0.35458403  0.39615114
   0.74682475  0.75157892  0.74691382
   0.75117542  0.24531637  0.25155318
   0.25713326  0.75092106  0.24814138
   0.24503283  0.25568682  0.75540465
   0.00214434  0.02144886  0.01943406
   0.96035429  0.50578953  0.48115418
   0.48648257  0.98527434  0.52482709
   0.47007200  0.49909819  0.99812208
Direct configuration=     6
   0.98560912  0.21570022  0.20281053
   0.95594899  0.82805079  0.85195306
   0.02518294  0.18554512  0.83141252
   0.03267935  0.68929273  0.30839933
   0.29746445  0.27943930  0.98856595
   0.28474380  0.70804590  0.01573623
   0.65942395  0.31532796  0.03733073
   0.67198110  0.66166914  0.95995964
   0.18310752  0.96981171  0.18317492
   0.27449156  0.02892509  0.68854661
   0.70229372  0.98067314  0.68931218
   0.79854851  0.01993294  0.16537780
   0.27240955  0.80162680  0.47701161
   0.16803901  0.33472117  0.53506141
   0.78421396  0.71360630  0.51379376
   0.80334545  0.30009469  0.47914970
   0.30931961  0.48107600  0.79964168
   0.34601171  0.52588876  0.22114839
   0.79264644  0.47999057  0.27585417
   0.85510361  0.53418309  0.71204870
   0.47450088  0.22048459  0.69151448
   0.48117155  0.82992806  0.29898236
   0.53853399  0.16735741  0.33524190
   0.51438866  0.77825608  0.70615943
   0.50090210  0.49752092  0.50099616
   0.49731811  0.99642135  0.99486984
   0.00032232  0.50387600  0.00341243
   0.99536021  0.00239241  0.50094961
   0.09855718  0.86859945  0.63039770
   0.13130184  0.12021254  0.38787481
   0.87452738  0.88764767  0.36894304
   0.88240949  0.13012734  0.62876937
   0.87957849  0.64054217  0.11309814
   0.86978905  0.37214574  0.89939150
   0.10904262  0.61842697  0.86083850
   0.13105329  0.39875425  0.13450433
   0.61681233  0.12572073  0.87593361
   0.62163608  0.86254851  0.10279445
   0.38859094  0.11103362  0.13809096
   0.36384805  0.88601735  0.87174240
   0.60773321  0.62013460  0.36326680
   0.63237476  0.39825906  0.63404978
   0.36263666  0.61805122  0.60960064
   0.38355279  0.35458423  0.39615143
   0.74682475  0.75157891  0.74691382
   0.75117543  0.24531643  0.25155323
   0.25713327  0.75092109  0.24814137
   0.24503281  0.25568680  0.75540463
   0.00214433  0.02144883  0.01943396
   0.96035453  0.50578959  0.48115412
   0.48648260  0.98527441  0.52482698
   0.47007213  0.49909817  0.99812209
Direct configuration=     7
   0.98560928  0.21570053  0.20281102
   0.95594849  0.82805058  0.85195445
   0.02518233  0.18554528  0.83141200
   0.03267947  0.68929354  0.30839946
   0.29746351  0.27943842  0.98856590
   0.28474310  0.70804527  0.01573606
   0.65942263  0.31532702  0.03733113
   0.67198172  0.66166785  0.95995933
   0.18310788  0.96981173  0.18317459
   0.27449101  0.02892486  0.68854696
   0.70229385  0.98067287  0.68931201
   0.79854825  0.01993314  0.16537740
   0.27240943  0.80162795  0.47701142
   0.16803896  0.33472106  0.53506110
   0.78421305  0.71360588  0.51379365
   0.80334485  0.30009588  0.47915021
   0.30932053  0.48107566  0.79964119
   0.34601322  0.52588913  0.22114903
   0.79264658  0.47999099  0.27585335
   0.85511128  0.53418575  0.71205021
   0.47450059  0.22048457  0.69151280
   0.48117174  0.82992816  0.29898200
   0.53853457  0.16735684  0.33524247
   0.51438838  0.77825505  0.70616052
   0.50090219  0.49752109  0.50099611
   0.49731780  0.99642100  0.99486953
   0.00032211  0.50387562  0.00341266
   0.99535980  0.00239204  0.50094936
   0.09855682  0.86859955  0.63039750
   0.13130193  0.12021210  0.38787457
   0.87452650  0.88764776  0.36894319
   0.88240825  0.13012828  0.62876884
   0.87957929  0.64054282  0.11309820
   0.86978841  0.37214572  0.89939207
   0.10904256  0.61842580  0.86083704
   0.13105361  0.39875443  0.13450447
   0.61681171  0.12572058  0.87593280
   0.62163632  0.86254802  0.10279428
   0.38859125  0.11103389  0.13809102
   0.36384735  0.88601710  0.87174263
   0.60773291  0.62013380  0.36326633
   0.63237488  0.39826059  0.63405102
   0.36263593  0.61805185  0.60960019
   0.38355307  0.35458347  0.39615171
   0.74682457  0.75157877  0.74691338
   0.75117591  0.24531706  0.25155371
   0.25713349  0.75092128  0.24814127
   0.24503284  0.25568659  0.75540452
   0.00214450  0.02144973  0.01943450
   0.96035406  0.50578982  0.48115322
   0.48648237  0.98527353  0.52482810
   0.47007101  0.49909761  0.99812231
