       N       E                     dE             d eps       ncg     rms          rms(c)
DAV:   1     0.158614801167E+04    0.15861E+04   -0.11368E+05  3088   0.126E+03
DAV:   2    -0.588665896950E+02   -0.16450E+04   -0.15483E+04  3896   0.361E+02
DAV:   3    -0.228939413304E+03   -0.17007E+03   -0.16807E+03  3752   0.116E+02
DAV:   4    -0.242194452538E+03   -0.13255E+02   -0.13231E+02  4736   0.330E+01
DAV:   5    -0.242415908983E+03   -0.22146E+00   -0.22135E+00  4440   0.448E+00
DAV:   6    -0.242427589715E+03   -0.11681E-01   -0.11679E-01  4648   0.112E+00
DAV:   7    -0.242428036188E+03   -0.44647E-03   -0.44645E-03  4576   0.219E-01
DAV:   8    -0.242428064179E+03   -0.27991E-04   -0.27991E-04  4560   0.634E-02
DAV:   9    -0.242428066106E+03   -0.19269E-05   -0.19267E-05  4432   0.142E-02
DAV:  10    -0.242428066213E+03   -0.10707E-06   -0.10677E-06  2640   0.448E-03    0.644E+01
RMM:  11    -0.236240948988E+03    0.61871E+01   -0.47459E+01  2816   0.194E+01    0.331E+01
RMM:  12    -0.256227318839E+03   -0.19986E+02   -0.21898E+01  2956   0.135E+01    0.203E+01
RMM:  13    -0.258709912567E+03   -0.24826E+01   -0.89994E+00  2905   0.541E+00    0.673E+00
RMM:  14    -0.258913016835E+03   -0.20310E+00   -0.20064E+00  3762   0.340E+00    0.324E+00
RMM:  15    -0.258885481603E+03    0.27535E-01   -0.32713E-01  3050   0.164E+00    0.706E-01
RMM:  16    -0.258905206411E+03   -0.19725E-01   -0.10757E-01  3080   0.896E-01    0.314E-01
RMM:  17    -0.258911566716E+03   -0.63603E-02   -0.26889E-02  3462   0.465E-01    0.173E-01
RMM:  18    -0.258912818390E+03   -0.12517E-02   -0.67989E-03  3398   0.209E-01    0.900E-02
RMM:  19    -0.258913344212E+03   -0.52582E-03   -0.19301E-03  3854   0.112E-01    0.439E-02
RMM:  20    -0.258913448993E+03   -0.10478E-03   -0.51641E-04  3830   0.499E-02    0.246E-02
RMM:  21    -0.258913468397E+03   -0.19404E-04   -0.14872E-04  3473   0.274E-02    0.104E-02
RMM:  22    -0.258913474847E+03   -0.64499E-05   -0.48780E-05  3794   0.153E-02    0.585E-03
RMM:  23    -0.258913474791E+03    0.55199E-07   -0.13840E-05  2969   0.810E-03    0.274E-03
RMM:  24    -0.258913474236E+03    0.55564E-06   -0.49072E-06  2215   0.602E-03
   1 F= -.27241657E+03 E0= -.27241657E+03  d E =-.272417E+03  mag=    -0.0004
       N       E                     dE             d eps       ncg     rms          rms(c)
DAV:   1    -0.258913613358E+03   -0.13857E-03   -0.50508E-03  3016   0.130E-01    0.151E-02
RMM:   2    -0.258913630510E+03   -0.17151E-04   -0.29896E-04  2865   0.649E-02    0.718E-03
RMM:   3    -0.258913639961E+03   -0.94514E-05   -0.12519E-04  3184   0.292E-02    0.422E-03
RMM:   4    -0.258913642615E+03   -0.26543E-05   -0.22211E-05  3200   0.133E-02    0.318E-03
RMM:   5    -0.258913642789E+03   -0.17326E-06   -0.24500E-06  2082   0.463E-03
   2 F= -.27241679E+03 E0= -.27241679E+03  d E =-.215857E-03  mag=     0.0000
       N       E                     dE             d eps       ncg     rms          rms(c)
DAV:   1    -0.258913627177E+03    0.15438E-04   -0.11149E-02  3416   0.195E-01    0.221E-02
RMM:   2    -0.258913670298E+03   -0.43121E-04   -0.66794E-04  2858   0.956E-02    0.108E-02
RMM:   3    -0.258913691388E+03   -0.21090E-04   -0.26699E-04  3284   0.431E-02    0.630E-03
RMM:   4    -0.258913696801E+03   -0.54127E-05   -0.49040E-05  3394   0.190E-02    0.467E-03
RMM:   5    -0.258913697121E+03   -0.31955E-06   -0.53393E-06  2598   0.600E-03
   3 F= -.27241691E+03 E0= -.27241691E+03  d E =-.340709E-03  mag=     0.0000
       N       E                     dE             d eps       ncg     rms          rms(c)
DAV:   1    -0.258913695440E+03    0.13615E-05   -0.12826E-05  3560   0.682E-03    0.124E-03
RMM:   2    -0.258913695237E+03    0.20275E-06   -0.99942E-07  1814   0.397E-03
   4 F= -.27241691E+03 E0= -.27241691E+03  d E =-.341025E-03  mag=     0.0000
       N       E                     dE             d eps       ncg     rms          rms(c)
DAV:   1    -0.258913710622E+03   -0.15182E-04   -0.10522E-03  3496   0.603E-02    0.603E-03
RMM:   2    -0.258913713532E+03   -0.29095E-05   -0.32654E-05  3506   0.192E-02    0.179E-03
RMM:   3    -0.258913714104E+03   -0.57268E-06   -0.73279E-06  2450   0.893E-03
   5 F= -.27241693E+03 E0= -.27241693E+03  d E =-.132489E-04  mag=     0.0000
       N       E                     dE             d eps       ncg     rms          rms(c)
DAV:   1    -0.258913725926E+03   -0.12395E-04   -0.89086E-04  3424   0.552E-02    0.534E-03
RMM:   2    -0.258913728424E+03   -0.24981E-05   -0.27759E-05  3377   0.186E-02    0.184E-03
RMM:   3    -0.258913729039E+03   -0.61494E-06   -0.77060E-06  2440   0.860E-03
   6 F= -.27241694E+03 E0= -.27241694E+03  d E =-.231469E-04  mag=     0.0000
       N       E                     dE             d eps       ncg     rms          rms(c)
DAV:   1    -0.258913740708E+03   -0.12283E-04   -0.34398E-03  3312   0.109E-01    0.106E-02
RMM:   2    -0.258913750201E+03   -0.94937E-05   -0.10304E-04  3501   0.356E-02    0.349E-03
RMM:   3    -0.258913752841E+03   -0.26395E-05   -0.28996E-05  3576   0.170E-02    0.300E-03
RMM:   4    -0.258913753005E+03   -0.16442E-06   -0.46176E-06  2006   0.730E-03
   7 F= -.27241695E+03 E0= -.27241695E+03  d E =-.370358E-04  mag=     0.0000
       N       E                     dE             d eps       ncg     rms          rms(c)
DAV:   1    -0.258913729083E+03    0.23758E-04   -0.13626E-02  3304   0.216E-01    0.218E-02
RMM:   2    -0.258913766835E+03   -0.37753E-04   -0.40529E-04  3593   0.675E-02    0.664E-03
RMM:   3    -0.258913775635E+03   -0.87998E-05   -0.94238E-05  3891   0.319E-02    0.485E-03
RMM:   4    -0.258913777538E+03   -0.19030E-05   -0.25179E-05  3008   0.144E-02    0.367E-03
RMM:   5    -0.258913777469E+03    0.69091E-07   -0.12295E-06  1893   0.473E-03
   8 F= -.27241696E+03 E0= -.27241696E+03  d E =-.413507E-04  mag=    -0.0000
       N       E                     dE             d eps       ncg     rms          rms(c)
DAV:   1    -0.258913751695E+03    0.25843E-04   -0.43633E-03  3272   0.123E-01    0.123E-02
RMM:   2    -0.258913764550E+03   -0.12855E-04   -0.13189E-04  3608   0.380E-02    0.362E-03
RMM:   3    -0.258913767388E+03   -0.28380E-05   -0.29090E-05  3506   0.177E-02    0.266E-03
RMM:   4    -0.258913767881E+03   -0.49343E-06   -0.72658E-06  2173   0.858E-03
   9 F= -.27241696E+03 E0= -.27241696E+03  d E =-.431727E-04  mag=     0.0000
       N       E                     dE             d eps       ncg     rms          rms(c)
DAV:   1    -0.258913769925E+03   -0.25367E-05   -0.10794E-03  3232   0.617E-02    0.656E-03
RMM:   2    -0.258913772950E+03   -0.30254E-05   -0.34292E-05  3542   0.194E-02    0.178E-03
RMM:   3    -0.258913773652E+03   -0.70161E-06   -0.85811E-06  2430   0.892E-03
  10 F= -.27241696E+03 E0= -.27241696E+03  d E =-.432458E-04  mag=    -0.0000
       N       E                     dE             d eps       ncg     rms          rms(c)
DAV:   1    -0.258913769476E+03    0.34738E-05   -0.31423E-04  3064   0.338E-02    0.383E-03
RMM:   2    -0.258913770576E+03   -0.11002E-05   -0.11310E-05  2963   0.112E-02    0.971E-04
RMM:   3    -0.258913770746E+03   -0.16919E-06   -0.25168E-06  1875   0.571E-03
  11 F= -.27241696E+03 E0= -.27241696E+03  d E =-.434790E-04  mag=     0.0000
       N       E                     dE             d eps       ncg     rms          rms(c)
DAV:   1    -0.258913779437E+03   -0.88608E-05   -0.41671E-04  3216   0.366E-02    0.406E-03
RMM:   2    -0.258913780530E+03   -0.10932E-05   -0.12593E-05  2986   0.119E-02    0.111E-03
RMM:   3    -0.258913780712E+03   -0.18157E-06   -0.30460E-06  2007   0.588E-03
  12 F= -.27241697E+03 E0= -.27241697E+03  d E =-.740099E-05  mag=     0.0000
       N       E                     dE             d eps       ncg     rms          rms(c)
DAV:   1    -0.258913792110E+03   -0.11579E-04   -0.96300E-04  3240   0.544E-02    0.550E-03
RMM:   2    -0.258913794595E+03   -0.24856E-05   -0.27114E-05  3308   0.180E-02    0.163E-03
RMM:   3    -0.258913795157E+03   -0.56146E-06   -0.75540E-06  2395   0.846E-03
  13 F= -.27241698E+03 E0= -.27241698E+03  d E =-.180458E-04  mag=     0.0000
       N       E                     dE             d eps       ncg     rms          rms(c)
DAV:   1    -0.258913808069E+03   -0.13474E-04   -0.38110E-03  3232   0.109E-01    0.110E-02
RMM:   2    -0.258913817828E+03   -0.97584E-05   -0.10409E-04  3595   0.345E-02    0.319E-03
RMM:   3    -0.258913820159E+03   -0.23312E-05   -0.26006E-05  3368   0.161E-02    0.244E-03
RMM:   4    -0.258913820520E+03   -0.36098E-06   -0.59628E-06  2109   0.753E-03
  14 F= -.27241699E+03 E0= -.27241699E+03  d E =-.358156E-04  mag=    -0.0000
       N       E                     dE             d eps       ncg     rms          rms(c)
DAV:   1    -0.258913812041E+03    0.81181E-05   -0.15058E-02  3200   0.216E-01    0.224E-02
RMM:   2    -0.258913850365E+03   -0.38324E-04   -0.40503E-04  3674   0.657E-02    0.629E-03
RMM:   3    -0.258913858853E+03   -0.84877E-05   -0.90597E-05  3797   0.307E-02    0.422E-03
RMM:   4    -0.258913861049E+03   -0.21958E-05   -0.26918E-05  2835   0.148E-02    0.372E-03
RMM:   5    -0.258913861019E+03    0.29406E-07   -0.12973E-06  1896   0.510E-03
  15 F= -.27241702E+03 E0= -.27241702E+03  d E =-.611293E-04  mag=    -0.0000
       N       E                     dE             d eps       ncg     rms          rms(c)
DAV:   1    -0.258913702513E+03    0.15854E-03   -0.60030E-02  3184   0.432E-01    0.455E-02
RMM:   2    -0.258913855669E+03   -0.15316E-03   -0.16158E-03  3708   0.131E-01    0.123E-02
RMM:   3    -0.258913893180E+03   -0.37511E-04   -0.38674E-04  3844   0.610E-02    0.868E-03
RMM:   4    -0.258913900297E+03   -0.71173E-05   -0.84437E-05  3816   0.271E-02    0.789E-03
RMM:   5    -0.258913899923E+03    0.37450E-06   -0.38934E-06  2220   0.623E-03
  16 F= -.27241703E+03 E0= -.27241703E+03  d E =-.696337E-04  mag=     0.0000
       N       E                     dE             d eps       ncg     rms          rms(c)
DAV:   1    -0.258913815459E+03    0.84838E-04   -0.20582E-02  3216   0.254E-01    0.256E-02
RMM:   2    -0.258913869553E+03   -0.54094E-04   -0.55530E-04  3704   0.761E-02    0.694E-03
RMM:   3    -0.258913881279E+03   -0.11725E-04   -0.12039E-04  3722   0.349E-02    0.488E-03
RMM:   4    -0.258913884205E+03   -0.29269E-05   -0.35098E-05  2943   0.163E-02    0.448E-03
RMM:   5    -0.258913884072E+03    0.13340E-06   -0.12075E-06  1893   0.501E-03
  17 F= -.27241703E+03 E0= -.27241703E+03  d E =-.715083E-04  mag=    -0.0000
       N       E                     dE             d eps       ncg     rms          rms(c)
DAV:   1    -0.258913877639E+03    0.65662E-05   -0.51326E-03  3296   0.127E-01    0.129E-02
RMM:   2    -0.258913890812E+03   -0.13172E-04   -0.14018E-04  3674   0.383E-02    0.350E-03
RMM:   3    -0.258913893574E+03   -0.27628E-05   -0.30625E-05  3471   0.176E-02    0.248E-03
RMM:   4    -0.258913894161E+03   -0.58712E-06   -0.79761E-06  2159   0.838E-03
  18 F= -.27241703E+03 E0= -.27241703E+03  d E =-.727393E-04  mag=     0.0000
       N       E                     dE             d eps       ncg     rms          rms(c)
DAV:   1    -0.258913887781E+03    0.57928E-05   -0.79932E-04  3336   0.505E-02    0.606E-03
RMM:   2    -0.258913890143E+03   -0.23612E-05   -0.24212E-05  3337   0.157E-02    0.169E-03
RMM:   3    -0.258913890601E+03   -0.45786E-06   -0.56811E-06  2150   0.730E-03
  19 F= -.27241703E+03 E0= -.27241703E+03  d E =-.727076E-04  mag=     0.0000
       N       E                     dE             d eps       ncg     rms          rms(c)
DAV:   1    -0.258913891973E+03   -0.18307E-05   -0.27677E-04  3256   0.305E-02    0.351E-03
RMM:   2    -0.258913892694E+03   -0.72041E-06   -0.86187E-06  2544   0.999E-03
  20 F= -.27241703E+03 E0= -.27241703E+03  d E =-.726914E-04  mag=     0.0000
       N       E                     dE             d eps       ncg     rms          rms(c)
DAV:   1    -0.258913891511E+03    0.46264E-06   -0.72993E-05  3128   0.157E-02    0.190E-03
RMM:   2    -0.258913891679E+03   -0.16855E-06   -0.16721E-06  1608   0.483E-03
  21 F= -.27241703E+03 E0= -.27241703E+03  d E =-.727878E-04  mag=     0.0000
       N       E                     dE             d eps       ncg     rms          rms(c)
DAV:   1    -0.258913892285E+03   -0.77450E-06   -0.17187E-05  2296   0.776E-03    0.913E-04
RMM:   2    -0.258913892315E+03   -0.29384E-07   -0.55938E-07  1473   0.328E-03
  22 F= -.27241703E+03 E0= -.27241703E+03  d E =-.728697E-04  mag=     0.0000
       N       E                     dE             d eps       ncg     rms          rms(c)
DAV:   1    -0.258913892129E+03    0.15589E-06   -0.18433E-06  1832   0.284E-03    0.369E-04
RMM:   2    -0.258913892137E+03   -0.72741E-08   -0.68332E-08  1242   0.116E-03
  23 F= -.27241703E+03 E0= -.27241703E+03  d E =-.728789E-04  mag=     0.0000
       N       E                     dE             d eps       ncg     rms          rms(c)
DAV:   1    -0.258913892219E+03   -0.89967E-07   -0.23243E-07  1664   0.102E-03    0.173E-04
RMM:   2    -0.258913892218E+03    0.16662E-08   -0.12048E-08   661   0.502E-04
  24 F= -.27241703E+03 E0= -.27241703E+03  d E =-.728874E-04  mag=     0.0000
       N       E                     dE             d eps       ncg     rms          rms(c)
DAV:   1    -0.258913897606E+03   -0.53868E-05   -0.13371E-03  3104   0.627E-02    0.583E-03
RMM:   2    -0.258913901161E+03   -0.35552E-05   -0.38565E-05  3443   0.193E-02    0.141E-03
RMM:   3    -0.258913901757E+03   -0.59589E-06   -0.81061E-06  2348   0.906E-03
  25 F= -.27241704E+03 E0= -.27241704E+03  d E =-.862041E-05  mag=    -0.0000
       N       E                     dE             d eps       ncg     rms          rms(c)
DAV:   1    -0.258913903540E+03   -0.23791E-05   -0.42691E-05  3376   0.121E-02    0.129E-03
RMM:   2    -0.258913903632E+03   -0.91204E-07   -0.13870E-06  1749   0.438E-03
  26 F= -.27241704E+03 E0= -.27241704E+03  d E =-.103600E-04  mag=     0.0000
       N       E                     dE             d eps       ncg     rms          rms(c)
DAV:   1    -0.258913905647E+03   -0.21071E-05   -0.12644E-04  3008   0.198E-02    0.172E-03
RMM:   2    -0.258913905984E+03   -0.33694E-06   -0.37373E-06  1937   0.700E-03
  27 F= -.27241704E+03 E0= -.27241704E+03  d E =-.124332E-04  mag=     0.0000
       N       E                     dE             d eps       ncg     rms          rms(c)
DAV:   1    -0.258913908563E+03   -0.29160E-05   -0.51670E-04  3216   0.389E-02    0.338E-03
RMM:   2    -0.258913910040E+03   -0.14769E-05   -0.16161E-05  3113   0.139E-02    0.950E-04
RMM:   3    -0.258913910298E+03   -0.25756E-06   -0.40025E-06  2068   0.629E-03
  28 F= -.27241705E+03 E0= -.27241705E+03  d E =-.161795E-04  mag=    -0.0000
       N       E                     dE             d eps       ncg     rms          rms(c)
DAV:   1    -0.258913909461E+03    0.57941E-06   -0.20418E-03  3176   0.773E-02    0.687E-03
RMM:   2    -0.258913914855E+03   -0.53942E-05   -0.58614E-05  3506   0.250E-02    0.178E-03
RMM:   3    -0.258913916085E+03   -0.12296E-05   -0.15109E-05  2938   0.117E-02    0.174E-03
RMM:   4    -0.258913916165E+03   -0.80303E-07   -0.22174E-06  1888   0.531E-03
  29 F= -.27241705E+03 E0= -.27241705E+03  d E =-.209166E-04  mag=     0.0000
       N       E                     dE             d eps       ncg     rms          rms(c)
DAV:   1    -0.258913921067E+03   -0.49826E-05   -0.19685E-03  3344   0.754E-02    0.652E-03
RMM:   2    -0.258913926413E+03   -0.53461E-05   -0.55759E-05  3547   0.232E-02    0.165E-03
RMM:   3    -0.258913927251E+03   -0.83776E-06   -0.11586E-05  2450   0.108E-02    0.145E-03
RMM:   4    -0.258913927466E+03   -0.21539E-06   -0.28429E-06  1946   0.613E-03
  30 F= -.27241706E+03 E0= -.27241706E+03  d E =-.122248E-04  mag=    -0.0000
       N       E                     dE             d eps       ncg     rms          rms(c)
DAV:   1    -0.258913891358E+03    0.35893E-04   -0.17696E-02  3088   0.226E-01    0.200E-02
RMM:   2    -0.258913936574E+03   -0.45215E-04   -0.47655E-04  3794   0.682E-02    0.503E-03
RMM:   3    -0.258913947038E+03   -0.10465E-04   -0.11127E-04  3855   0.312E-02    0.462E-03
RMM:   4    -0.258913948712E+03   -0.16735E-05   -0.20335E-05  2884   0.133E-02    0.445E-03
RMM:   5    -0.258913948563E+03    0.14934E-06   -0.11887E-06  1886   0.454E-03
  31 F= -.27241709E+03 E0= -.27241709E+03  d E =-.360972E-04  mag=     0.0000
       N       E                     dE             d eps       ncg     rms          rms(c)
DAV:   1    -0.258913938554E+03    0.10158E-04   -0.41970E-03  3576   0.109E-01    0.107E-02
RMM:   2    -0.258913949233E+03   -0.10679E-04   -0.11437E-04  3714   0.325E-02    0.271E-03
RMM:   3    -0.258913951452E+03   -0.22187E-05   -0.25324E-05  3107   0.151E-02    0.174E-03
RMM:   4    -0.258913951961E+03   -0.50869E-06   -0.61227E-06  2063   0.727E-03
  32 F= -.27241709E+03 E0= -.27241709E+03  d E =-.408474E-04  mag=    -0.0000
       N       E                     dE             d eps       ncg     rms          rms(c)
DAV:   1    -0.258913950503E+03    0.94840E-06   -0.31459E-03  3352   0.925E-02    0.735E-03
RMM:   2    -0.258913958483E+03   -0.79793E-05   -0.82937E-05  3663   0.278E-02    0.173E-03
RMM:   3    -0.258913960266E+03   -0.17829E-05   -0.21338E-05  2852   0.131E-02    0.217E-03
RMM:   4    -0.258913960305E+03   -0.39161E-07   -0.14587E-06  1872   0.496E-03
  33 F= -.27241710E+03 E0= -.27241710E+03  d E =-.958818E-05  mag=     0.0000
       N       E                     dE             d eps       ncg     rms          rms(c)
DAV:   1    -0.258913899490E+03    0.60776E-04   -0.24932E-02  3112   0.261E-01    0.216E-02
RMM:   2    -0.258913960311E+03   -0.60822E-04   -0.63637E-04  3839   0.755E-02    0.468E-03
RMM:   3    -0.258913974469E+03   -0.14158E-04   -0.14830E-04  3797   0.344E-02    0.485E-03
RMM:   4    -0.258913976910E+03   -0.24401E-05   -0.28255E-05  2980   0.150E-02    0.515E-03
RMM:   5    -0.258913976735E+03    0.17466E-06   -0.13807E-06  1915   0.506E-03
  34 F= -.27241712E+03 E0= -.27241712E+03  d E =-.295166E-04  mag=    -0.0000
       N       E                     dE             d eps       ncg     rms          rms(c)
DAV:   1    -0.258913962772E+03    0.14138E-04   -0.54669E-03  3560   0.121E-01    0.125E-02
RMM:   2    -0.258913975669E+03   -0.12898E-04   -0.13997E-04  3796   0.352E-02    0.340E-03
RMM:   3    -0.258913978938E+03   -0.32685E-05   -0.34512E-05  3474   0.166E-02    0.185E-03
RMM:   4    -0.258913979472E+03   -0.53450E-06   -0.60132E-06  2131   0.785E-03
  35 F= -.27241713E+03 E0= -.27241713E+03  d E =-.338921E-04  mag=    -0.0000
       N       E                     dE             d eps       ncg     rms          rms(c)
DAV:   1    -0.258913984419E+03   -0.54813E-05   -0.15994E-03  3376   0.716E-02    0.650E-03
RMM:   2    -0.258913988762E+03   -0.43431E-05   -0.47515E-05  3464   0.240E-02    0.225E-03
RMM:   3    -0.258913990066E+03   -0.13034E-05   -0.14828E-05  3055   0.111E-02    0.198E-03
RMM:   4    -0.258913989983E+03    0.82195E-07   -0.92088E-07  1858   0.516E-03
  36 F= -.27241714E+03 E0= -.27241714E+03  d E =-.912899E-05  mag=     0.0000
       N       E                     dE             d eps       ncg     rms          rms(c)
DAV:   1    -0.258913982050E+03    0.80156E-05   -0.60614E-03  3088   0.140E-01    0.137E-02
RMM:   2    -0.258913998353E+03   -0.16303E-04   -0.17869E-04  3463   0.456E-02    0.435E-03
RMM:   3    -0.258914003036E+03   -0.46827E-05   -0.50607E-05  3765   0.211E-02    0.326E-03
RMM:   4    -0.258914003468E+03   -0.43245E-06   -0.75733E-06  2399   0.898E-03
  37 F= -.27241715E+03 E0= -.27241715E+03  d E =-.199132E-04  mag=    -0.0000
       N       E                     dE             d eps       ncg     rms          rms(c)
DAV:   1    -0.258914004387E+03   -0.13511E-05   -0.22899E-03  3320   0.882E-02    0.801E-03
RMM:   2    -0.258914010964E+03   -0.65768E-05   -0.72874E-05  3185   0.304E-02    0.322E-03
RMM:   3    -0.258914013125E+03   -0.21614E-05   -0.24424E-05  3563   0.145E-02    0.267E-03
RMM:   4    -0.258914013080E+03    0.44734E-07   -0.17183E-06  1896   0.577E-03
  38 F= -.27241716E+03 E0= -.27241716E+03  d E =-.952025E-05  mag=     0.0000
       N       E                     dE             d eps       ncg     rms          rms(c)
DAV:   1    -0.258914013509E+03   -0.38398E-06   -0.14593E-05  3240   0.751E-03    0.135E-03
RMM:   2    -0.258914013553E+03   -0.43738E-07   -0.65838E-07  1712   0.355E-03
  39 F= -.27241716E+03 E0= -.27241716E+03  d E =-.998530E-05  mag=    -0.0000
       N       E                     dE             d eps       ncg     rms          rms(c)
DAV:   1    -0.258914014107E+03   -0.59801E-06   -0.55772E-05  3136   0.140E-02    0.137E-03
RMM:   2    -0.258914014276E+03   -0.16921E-06   -0.20024E-06  1705   0.568E-03
  40 F= -.27241716E+03 E0= -.27241716E+03  d E =-.106939E-04  mag=    -0.0000
       N       E                     dE             d eps       ncg     rms          rms(c)
DAV:   1    -0.258914014488E+03   -0.38055E-06   -0.21878E-04  3168   0.273E-02    0.245E-03
RMM:   2    -0.258914015197E+03   -0.70884E-06   -0.80019E-06  2760   0.111E-02
  41 F= -.27241716E+03 E0= -.27241716E+03  d E =-.115852E-04  mag=    -0.0000
       N       E                     dE             d eps       ncg     rms          rms(c)
DAV:   1    -0.258914014705E+03   -0.21703E-06   -0.60726E-05  2912   0.155E-02    0.194E-03
RMM:   2    -0.258914014840E+03   -0.13579E-06   -0.16090E-06  1492   0.469E-03
  42 F= -.27241716E+03 E0= -.27241716E+03  d E =-.112417E-04  mag=     0.0000
       N       E                     dE             d eps       ncg     rms          rms(c)
DAV:   1    -0.258914015193E+03   -0.48872E-06   -0.32644E-05  3016   0.112E-02    0.115E-03
RMM:   2    -0.258914015283E+03   -0.89225E-07   -0.11438E-06  1534   0.407E-03
  43 F= -.27241716E+03 E0= -.27241716E+03  d E =-.116753E-04  mag=     0.0000
       N       E                     dE             d eps       ncg     rms          rms(c)
DAV:   1    -0.258914008270E+03    0.69230E-05   -0.25186E-03  2992   0.901E-02    0.816E-03
RMM:   2    -0.258914015269E+03   -0.69985E-05   -0.75438E-05  3465   0.296E-02    0.260E-03
RMM:   3    -0.258914017479E+03   -0.22097E-05   -0.23471E-05  3409   0.137E-02    0.242E-03
RMM:   4    -0.258914017403E+03    0.75852E-07   -0.14995E-06  1878   0.578E-03
  44 F= -.27241717E+03 E0= -.27241717E+03  d E =-.755500E-05  mag=    -0.0000
       N       E                     dE             d eps       ncg     rms          rms(c)
DAV:   1    -0.258914008742E+03    0.87365E-05   -0.23674E-03  3112   0.865E-02    0.838E-03
RMM:   2    -0.258914015204E+03   -0.64622E-05   -0.70554E-05  3546   0.287E-02    0.255E-03
RMM:   3    -0.258914017322E+03   -0.21176E-05   -0.22332E-05  3361   0.133E-02    0.213E-03
RMM:   4    -0.258914017287E+03    0.35374E-07   -0.17276E-06  1909   0.577E-03
  45 F= -.27241717E+03 E0= -.27241717E+03  d E =-.127416E-04  mag=    -0.0000
       N       E                     dE             d eps       ncg     rms          rms(c)
DAV:   1    -0.258913978864E+03    0.38458E-04   -0.94627E-03  2960   0.174E-01    0.161E-02
RMM:   2    -0.258914004856E+03   -0.25993E-04   -0.27947E-04  3537   0.569E-02    0.506E-03
RMM:   3    -0.258914012424E+03   -0.75673E-05   -0.78778E-05  3852   0.264E-02    0.420E-03
RMM:   4    -0.258914013294E+03   -0.87040E-06   -0.11726E-05  2857   0.105E-02    0.324E-03
RMM:   5    -0.258914013215E+03    0.79448E-07   -0.11834E-06  1887   0.479E-03
  46 F= -.27241718E+03 E0= -.27241718E+03  d E =-.192810E-04  mag=    -0.0000
       N       E                     dE             d eps       ncg     rms          rms(c)
DAV:   1    -0.258914006722E+03    0.65724E-05   -0.22102E-03  3520   0.839E-02    0.810E-03
RMM:   2    -0.258914012954E+03   -0.62321E-05   -0.66999E-05  3378   0.282E-02    0.231E-03
RMM:   3    -0.258914015013E+03   -0.20597E-05   -0.21479E-05  3348   0.131E-02    0.208E-03
RMM:   4    -0.258914015011E+03    0.24957E-08   -0.21533E-06  1954   0.649E-03
  47 F= -.27241718E+03 E0= -.27241718E+03  d E =-.629916E-05  mag=    -0.0000
       N       E                     dE             d eps       ncg     rms          rms(c)
DAV:   1    -0.258914014688E+03    0.32518E-06   -0.84899E-05  3472   0.164E-02    0.162E-03
RMM:   2    -0.258914014951E+03   -0.26259E-06   -0.27317E-06  1838   0.685E-03
  48 F= -.27241718E+03 E0= -.27241718E+03  d E =-.710286E-05  mag=    -0.0000
       N       E                     dE             d eps       ncg     rms          rms(c)
DAV:   1    -0.258914013159E+03    0.15291E-05   -0.33325E-04  3136   0.325E-02    0.281E-03
RMM:   2    -0.258914014189E+03   -0.10294E-05   -0.10785E-05  2906   0.124E-02    0.950E-04
RMM:   3    -0.258914014514E+03   -0.32556E-06   -0.37164E-06  2136   0.596E-03
  49 F= -.27241719E+03 E0= -.27241719E+03  d E =-.838698E-05  mag=    -0.0000
       N       E                     dE             d eps       ncg     rms          rms(c)
DAV:   1    -0.258914014401E+03   -0.21237E-06   -0.30777E-05  3008   0.108E-02    0.159E-03
RMM:   2    -0.258914014478E+03   -0.76994E-07   -0.10508E-06  1499   0.376E-03
  50 F= -.27241719E+03 E0= -.27241719E+03  d E =-.779287E-05  mag=    -0.0000
       N       E                     dE             d eps       ncg     rms          rms(c)
DAV:   1    -0.258914014451E+03   -0.49995E-07   -0.25808E-05  2800   0.929E-03    0.979E-04
RMM:   2    -0.258914014526E+03   -0.75001E-07   -0.81763E-07  1474   0.339E-03
  51 F= -.27241719E+03 E0= -.27241719E+03  d E =-.835312E-05  mag=    -0.0000
       N       E                     dE             d eps       ncg     rms          rms(c)
DAV:   1    -0.258914014539E+03   -0.87930E-07   -0.45978E-07  1744   0.280E-03    0.214E-04
RMM:   2    -0.258914014549E+03   -0.10439E-07   -0.10189E-07  1344   0.129E-03
  52 F= -.27241719E+03 E0= -.27241719E+03  d E =-.840312E-05  mag=    -0.0000
       N       E                     dE             d eps       ncg     rms          rms(c)
DAV:   1    -0.258914014548E+03   -0.86984E-08   -0.81167E-08  1600   0.120E-03    0.991E-05
RMM:   2    -0.258914014551E+03   -0.30923E-08   -0.31618E-08  1206   0.847E-04
  53 F= -.27241719E+03 E0= -.27241719E+03  d E =-.841975E-05  mag=    -0.0000
       N       E                     dE             d eps       ncg     rms          rms(c)
DAV:   1    -0.258914014551E+03   -0.31669E-08   -0.19219E-08  1600   0.639E-04    0.527E-05
RMM:   2    -0.258914014551E+03   -0.72214E-09   -0.51579E-09   789   0.478E-04
  54 F= -.27241719E+03 E0= -.27241719E+03  d E =-.842362E-05  mag=    -0.0000
       N       E                     dE             d eps       ncg     rms          rms(c)
DAV:   1    -0.258914014552E+03   -0.12660E-08   -0.71256E-09  1600   0.404E-04    0.152E-05
RMM:   2    -0.258914014552E+03    0.52751E-10   -0.12599E-10   428   0.310E-04
  55 F= -.27241719E+03 E0= -.27241719E+03  d E =-.842469E-05  mag=    -0.0000
       N       E                     dE             d eps       ncg     rms          rms(c)
DAV:   1    -0.258914014552E+03   -0.20736E-09   -0.38046E-09  1600   0.306E-04    0.117E-05
RMM:   2    -0.258914014552E+03   -0.63665E-10    0.00000E+00   367   0.216E-04
  56 F= -.27241719E+03 E0= -.27241719E+03  d E =-.842511E-05  mag=     0.0000
       N       E                     dE             d eps       ncg     rms          rms(c)
DAV:   1    -0.258914014552E+03   -0.40018E-10   -0.20305E-09  1600   0.216E-04    0.783E-06
RMM:   2    -0.258914014552E+03   -0.26739E-09    0.00000E+00   348   0.165E-04
  57 F= -.27241719E+03 E0= -.27241719E+03  d E =-.842536E-05  mag=    -0.0000
       N       E                     dE             d eps       ncg     rms          rms(c)
DAV:   1    -0.258914014553E+03   -0.44020E-09   -0.11445E-09  1600   0.164E-04    0.614E-06
RMM:   2    -0.258914014553E+03    0.58208E-10    0.00000E+00   312   0.120E-04
  58 F= -.27241719E+03 E0= -.27241719E+03  d E =-.842548E-05  mag=    -0.0000
       N       E                     dE             d eps       ncg     rms          rms(c)
DAV:   1    -0.258914014553E+03   -0.18372E-09   -0.67354E-10  1600   0.120E-04    0.503E-06
RMM:   2    -0.258914014553E+03    0.16917E-09    0.00000E+00   267   0.942E-05
  59 F= -.27241719E+03 E0= -.27241719E+03  d E =-.842555E-05  mag=    -0.0000
       N       E                     dE             d eps       ncg     rms          rms(c)
DAV:   1    -0.258913993151E+03    0.21402E-04   -0.54793E-03  2944   0.132E-01    0.121E-02
RMM:   2    -0.258914008608E+03   -0.15457E-04   -0.16526E-04  3411   0.428E-02    0.337E-03
RMM:   3    -0.258914012997E+03   -0.43890E-05   -0.46583E-05  3670   0.198E-02    0.325E-03
RMM:   4    -0.258914013311E+03   -0.31423E-06   -0.60796E-06  2385   0.842E-03
  60 F= -.27241718E+03 E0= -.27241718E+03  d E =-.966356E-07  mag=    -0.0000
