 vasp.6.4.1 05Apr23 (build Jun 07 2023 15:38:11) complex                        
  
 executed on             LinuxIFC date 2023.10.01  03:28:00
 running  128 mpi-ranks, with    1 threads/rank, on    1 nodes
 distrk:  each k-point on  128 cores,    1 groups
 distr:  one band on NCORE=  32 cores,    4 groups


--------------------------------------------------------------------------------------------------------


 INCAR:
   GGA = PE
   PREC = Accu
   EDIFF = 1.e-5
   EDIFFG = -1.e-2
   ENCUT = 520.
   NELM = 100
   NELMDL = -10
   LASPH = .TRUE.
   LREAL = Auto
   LMAXMIX = 4
   ISPIN = 2
   LDIAG = .TRUE.
   LPLANE = .TRUE.
   IVDW = 12
   SIGMA = 0.03
   ISMEAR = 0
   NSW = 1000    number of steps for IOM
   IBRION = 1    ionic relax: 0-MD 1-quasi-New 2-CG
   ISIF = 2    ionic relaxation + stress tensor calcn.
   LCHARG = .FALSE.
   LWAVE = .FALSE.
   ALGO = V
   KPAR = 1
   NPAR = 4

 POTCAR:    PAW_PBE Li_sv_GW 25Mar2010            
 POTCAR:    PAW_PBE P_GW 19Mar2012                
 POTCAR:    PAW_PBE S_GW 19Mar2012                
 POTCAR:    PAW_PBE Cl_GW 19Mar2012               
 -----------------------------------------------------------------------------
|                                                                             |
|           W    W    AA    RRRRR   N    N  II  N    N   GGGG   !!!           |
|           W    W   A  A   R    R  NN   N  II  NN   N  G    G  !!!           |
|           W    W  A    A  R    R  N N  N  II  N N  N  G       !!!           |
|           W WW W  AAAAAA  RRRRR   N  N N  II  N  N N  G  GGG   !            |
|           WW  WW  A    A  R   R   N   NN  II  N   NN  G    G                |
|           W    W  A    A  R    R  N    N  II  N    N   GGGG   !!!           |
|                                                                             |
|     You use a magnetic or noncollinear calculation, but did not specify     |
|     the initial magnetic moment with the MAGMOM tag. Note that a            |
|     default of 1 will be used for all atoms. This ferromagnetic setup       |
|     may break the symmetry of the crystal, in particular it may rule        |
|     out finding an antiferromagnetic solution. Thence, we recommend         |
|     setting the initial magnetic moment manually or verifying carefully     |
|     that this magnetic setup is desired.                                    |
|                                                                             |
 -----------------------------------------------------------------------------

 POTCAR:    PAW_PBE Li_sv_GW 25Mar2010            
   SHA256 =  24a6ace15a582615486b36ce4dc781b048409f4015b7684ed1273ae395fa2fdc Li_sv_GW/POTCAR       
   COPYR  = (c) Copyright 25Mar2010 Georg Kresse                                                    
   COPYR  = This file is part of the software VASP. Any use, copying, and all other rights are regul
   COPYR  = If you do not have a valid VASP license, you may not use, copy or distribute this file. 
   VRHFIN =Li: 1s2s                                                                                 
   LEXCH  = PE                                                                                      
   EATOM  =   200.9989 eV,   14.7730 Ry                                                             
                                                                                                    
   TITEL  = PAW_PBE Li_sv_GW 25Mar2010                                                              
   LULTRA =        F    use ultrasoft PP ?                                                          
   IUNSCR =        0    unscreen: 0-lin 1-nonlin 2-no                                               
   RPACOR =    0.000    partial core radius                                                         
   POMASS =    7.010; ZVAL   =    3.000    mass and valenz                                          
   RCORE  =    1.500    outmost cutoff radius                                                       
   RWIGS  =    1.600; RWIGS  =    0.847    wigner-seitz radius (au A)                               
   ENMAX  =  433.699; ENMIN  =  325.274 eV                                                          
   RCLOC  =    1.003    cutoff for local pot                                                        
   LCOR   =        T    correct aug charges                                                         
   LPAW   =        T    paw PP                                                                      
   EAUG   = 1041.699                                                                                
   RMAX   =    1.536    core radius for proj-oper                                                   
   RAUG   =    1.300    factor for augmentation sphere                                              
   RDEP   =    1.520    radius for radial grids                                                     
   RDEPT  =    1.300    core radius for aug-charge                                                  
                                                                                                    
   Atomic configuration                                                                             
    4 entries                                                                                       
     n  l   j            E        occ.                                                              
     1  0  0.50       -53.3604   2.0000                                                             
     1  0  0.50       -52.0001   0.0000                                                             
     2  1  0.50        -1.5636   1.0000                                                             
     3  2  1.50        -1.3606   0.0000                                                             
   Description                                                                                      
     l       E           TYP  RCUT    TYP  RCUT                                                     
     0    -53.3603633     23  1.200                                                                 
     0    -52.0001064     23  1.200                                                                 
     0    176.8757380     23  1.300                                                                 
     1     -1.5635925     23  1.500                                                                 
     1    108.8466080     23  1.500                                                                 
     2     81.6349560     23  1.500                                                                 
  local pseudopotential read in
  kinetic energy density of atom read in
  atomic valenz-charges read in
  non local Contribution for L=           0  read in
    real space projection operators read in
  non local Contribution for L=           0  read in
    real space projection operators read in
  non local Contribution for L=           0  read in
    real space projection operators read in
  non local Contribution for L=           1  read in
    real space projection operators read in
  non local Contribution for L=           1  read in
    real space projection operators read in
  non local Contribution for L=           2  read in
    real space projection operators read in
    PAW grid and wavefunctions read in
 
   number of l-projection  operators is LMAX  =           6
   number of lm-projection operators is LMMAX =          14
 
 POTCAR:    PAW_PBE P_GW 19Mar2012                
   SHA256 =  715c28f2291d37b61637ce89646c59f66f71c8b8d8bfba631e5feb9f7b42defe P_GW/POTCAR           
   COPYR  = (c) Copyright 19Mar2012 Georg Kresse                                                    
   COPYR  = This file is part of the software VASP. Any use, copying, and all other rights are regul
   COPYR  = If you do not have a valid VASP license, you may not use, copy or distribute this file. 
   VRHFIN =P : s2p3                                                                                 
   LEXCH  = PE                                                                                      
   EATOM  =   176.0430 eV,   12.9388 Ry                                                             
                                                                                                    
   TITEL  = PAW_PBE P_GW 19Mar2012                                                                  
   LULTRA =        F    use ultrasoft PP ?                                                          
   IUNSCR =        1    unscreen: 0-lin 1-nonlin 2-no                                               
   RPACOR =    1.400    partial core radius                                                         
   POMASS =   30.974; ZVAL   =    5.000    mass and valenz                                          
   RCORE  =    2.000    outmost cutoff radius                                                       
   RWIGS  =    1.900; RWIGS  =    1.005    wigner-seitz radius (au A)                               
   ENMAX  =  255.040; ENMIN  =  191.280 eV                                                          
   ICORE  =        3    local potential                                                             
   LCOR   =        T    correct aug charges                                                         
   LPAW   =        T    paw PP                                                                      
   EAUG   =  499.732                                                                                
   DEXC   =    0.000                                                                                
   RMAX   =    2.047    core radius for proj-oper                                                   
   RAUG   =    1.300    factor for augmentation sphere                                              
   RDEP   =    2.059    radius for radial grids                                                     
   RDEPT  =    1.900    core radius for aug-charge                                                  
                                                                                                    
   Atomic configuration                                                                             
    7 entries                                                                                       
     n  l   j            E        occ.                                                              
     1  0  0.50     -2084.0982   2.0000                                                             
     2  0  0.50      -173.9859   2.0000                                                             
     2  1  1.50      -124.4865   6.0000                                                             
     3  0  0.50       -13.9692   2.0000                                                             
     3  1  0.50        -5.5067   3.0000                                                             
     3  2  1.50        -6.8029   0.0000                                                             
     4  3  2.50        -1.3606   0.0000                                                             
   Description                                                                                      
     l       E           TYP  RCUT    TYP  RCUT                                                     
     0    -13.9691528     23  1.900                                                                 
     0    102.0436950     23  1.900                                                                 
     1     -5.5066939     23  1.900                                                                 
     1    102.0436950     23  1.900                                                                 
     2     -8.1634956     23  2.000                                                                 
     2     81.6349560     23  2.000                                                                 
     3     27.2116520     23  2.000                                                                 
  local pseudopotential read in
  partial core-charges read in
  partial kinetic energy density read in
  kinetic energy density of atom read in
  atomic valenz-charges read in
  non local Contribution for L=           0  read in
    real space projection operators read in
  non local Contribution for L=           0  read in
    real space projection operators read in
  non local Contribution for L=           1  read in
    real space projection operators read in
  non local Contribution for L=           1  read in
    real space projection operators read in
  non local Contribution for L=           2  read in
    real space projection operators read in
  non local Contribution for L=           2  read in
    real space projection operators read in
    PAW grid and wavefunctions read in
 
   number of l-projection  operators is LMAX  =           6
   number of lm-projection operators is LMMAX =          18
 
 POTCAR:    PAW_PBE S_GW 19Mar2012                
   SHA256 =  357db9cfb0783579b2eebe03197c2d807131fea8ea663b1fcfb6ce2fa75af011 S_GW/POTCAR           
   COPYR  = (c) Copyright 19Mar2012 Georg Kresse                                                    
   COPYR  = This file is part of the software VASP. Any use, copying, and all other rights are regul
   COPYR  = If you do not have a valid VASP license, you may not use, copy or distribute this file. 
   VRHFIN =S : s2p4                                                                                 
   LEXCH  = PE                                                                                      
   EATOM  =   276.8230 eV,   20.3459 Ry                                                             
                                                                                                    
   TITEL  = PAW_PBE S_GW 19Mar2012                                                                  
   LULTRA =        F    use ultrasoft PP ?                                                          
   IUNSCR =        1    unscreen: 0-lin 1-nonlin 2-no                                               
   RPACOR =    1.400    partial core radius                                                         
   POMASS =   32.066; ZVAL   =    6.000    mass and valenz                                          
   RCORE  =    1.900    outmost cutoff radius                                                       
   RWIGS  =    1.900; RWIGS  =    1.005    wigner-seitz radius (au A)                               
   ENMAX  =  258.689; ENMIN  =  194.016 eV                                                          
   ICORE  =        3    local potential                                                             
   LCOR   =        T    correct aug charges                                                         
   LPAW   =        T    paw PP                                                                      
   EAUG   =  488.319                                                                                
   DEXC   =    0.000                                                                                
   RMAX   =    1.942    core radius for proj-oper                                                   
   RAUG   =    1.300    factor for augmentation sphere                                              
   RDEP   =    1.954    radius for radial grids                                                     
   RDEPT  =    1.900    core radius for aug-charge                                                  
                                                                                                    
   Atomic configuration                                                                             
    7 entries                                                                                       
     n  l   j            E        occ.                                                              
     1  0  0.50     -2405.8406   2.0000                                                             
     2  0  0.50      -211.7007   2.0000                                                             
     2  1  1.50      -156.4958   6.0000                                                             
     3  0  0.50       -17.2562   2.0000                                                             
     3  1  0.50        -7.0085   4.0000                                                             
     3  2  1.50        -8.1635   0.0000                                                             
     4  3  2.50        -1.3606   0.0000                                                             
   Description                                                                                      
     l       E           TYP  RCUT    TYP  RCUT                                                     
     0    -17.2561639     23  1.700                                                                 
     0     88.4378690     23  1.900                                                                 
     1     -7.0085399     23  1.900                                                                 
     1     88.4378690     23  1.900                                                                 
     2    -10.8846608     23  1.900                                                                 
     2     54.4233040     23  1.900                                                                 
     3     27.2116520     23  1.800                                                                 
  local pseudopotential read in
  partial core-charges read in
  partial kinetic energy density read in
  kinetic energy density of atom read in
  atomic valenz-charges read in
  non local Contribution for L=           0  read in
    real space projection operators read in
  non local Contribution for L=           0  read in
    real space projection operators read in
  non local Contribution for L=           1  read in
    real space projection operators read in
  non local Contribution for L=           1  read in
    real space projection operators read in
  non local Contribution for L=           2  read in
    real space projection operators read in
  non local Contribution for L=           2  read in
    real space projection operators read in
    PAW grid and wavefunctions read in
 
   number of l-projection  operators is LMAX  =           6
   number of lm-projection operators is LMMAX =          18
 
 POTCAR:    PAW_PBE Cl_GW 19Mar2012               
   SHA256 =  3ef3b3169d6a9a89979f58b4cf17d927a58518fc660d8883d88cacaee8175441 Cl_GW/POTCAR          
   COPYR  = (c) Copyright 19Mar2012 Georg Kresse                                                    
   COPYR  = This file is part of the software VASP. Any use, copying, and all other rights are regul
   COPYR  = If you do not have a valid VASP license, you may not use, copy or distribute this file. 
   VRHFIN =Cl: s2p5                                                                                 
   LEXCH  = PE                                                                                      
   EATOM  =   409.7259 eV,   30.1140 Ry                                                             
                                                                                                    
   TITEL  = PAW_PBE Cl_GW 19Mar2012                                                                 
   LULTRA =        F    use ultrasoft PP ?                                                          
   IUNSCR =        1    unscreen: 0-lin 1-nonlin 2-no                                               
   RPACOR =    1.400    partial core radius                                                         
   POMASS =   35.453; ZVAL   =    7.000    mass and valenz                                          
   RCORE  =    1.900    outmost cutoff radius                                                       
   RWIGS  =    1.900; RWIGS  =    1.005    wigner-seitz radius (au A)                               
   ENMAX  =  262.472; ENMIN  =  196.854 eV                                                          
   ICORE  =        3    local potential                                                             
   LCOR   =        T    correct aug charges                                                         
   LPAW   =        T    paw PP                                                                      
   EAUG   =  456.703                                                                                
   DEXC   =    0.000                                                                                
   RMAX   =    1.945    core radius for proj-oper                                                   
   RAUG   =    1.300    factor for augmentation sphere                                              
   RDEP   =    2.020    radius for radial grids                                                     
   RDEPT  =    1.900    core radius for aug-charge                                                  
                                                                                                    
   Atomic configuration                                                                             
    7 entries                                                                                       
     n  l   j            E        occ.                                                              
     1  0  0.50     -2751.1850   2.0000                                                             
     2  0  0.50      -252.6861   2.0000                                                             
     2  1  1.50      -191.6157   6.0000                                                             
     3  0  0.50       -20.6916   2.0000                                                             
     3  1  0.50        -8.5949   5.0000                                                             
     3  2  1.50        -9.5241   0.0000                                                             
     4  3  2.50        -9.5241   0.0000                                                             
   Description                                                                                      
     l       E           TYP  RCUT    TYP  RCUT                                                     
     0    -20.6915657     23  1.700                                                                 
     0     95.2407820     23  1.800                                                                 
     1     -8.5948577     23  1.900                                                                 
     1     95.2407820     23  1.900                                                                 
     2    -10.8846608     23  1.900                                                                 
     2     54.4233040     23  1.900                                                                 
     3     27.2116520     23  1.900                                                                 
  local pseudopotential read in
  partial core-charges read in
  partial kinetic energy density read in
  kinetic energy density of atom read in
  atomic valenz-charges read in
  non local Contribution for L=           0  read in
    real space projection operators read in
  non local Contribution for L=           0  read in
    real space projection operators read in
  non local Contribution for L=           1  read in
    real space projection operators read in
  non local Contribution for L=           1  read in
    real space projection operators read in
  non local Contribution for L=           2  read in
    real space projection operators read in
  non local Contribution for L=           2  read in
    real space projection operators read in
    PAW grid and wavefunctions read in
 
   number of l-projection  operators is LMAX  =           6
   number of lm-projection operators is LMMAX =          18
 
 Optimization of the real space projectors (new method)

 maximal supplied QI-value         = 25.13
 optimisation between [QCUT,QGAM] = [ 11.56, 23.12] = [ 37.43,149.72] Ry 
 Optimized for a Real-space Cutoff    1.28 Angstroem

   l    n(q)    QCUT    max X(q) W(low)/X(q) W(high)/X(q)  e(spline) 
   0      9    11.561    87.733    0.11E-03    0.32E-04    0.56E-06
   0      9    11.561    82.800    0.11E-03    0.35E-04    0.56E-06
   0      9    11.561     2.509    0.22E-03    0.42E-04    0.79E-06
   1      8    11.561    12.580    0.94E-04    0.26E-03    0.21E-06
   1      8    11.561     1.319    0.33E-04    0.15E-03    0.19E-06
   2      8    11.561     1.993    0.36E-04    0.89E-04    0.26E-06
 Optimization of the real space projectors (new method)

 maximal supplied QI-value         = 18.90
 optimisation between [QCUT,QGAM] = [ 11.53, 23.24] = [ 37.21,151.29] Ry 
 Optimized for a Real-space Cutoff    1.21 Angstroem

   l    n(q)    QCUT    max X(q) W(low)/X(q) W(high)/X(q)  e(spline) 
   0      8    11.527     8.355    0.73E-04    0.70E-04    0.26E-07
   0      8    11.527     1.401    0.17E-03    0.17E-03    0.63E-07
   1      8    11.527     4.747    0.13E-03    0.17E-03    0.11E-06
   1      8    11.527     2.025    0.16E-03    0.18E-03    0.12E-06
   2      7    11.527     3.169    0.51E-04    0.25E-03    0.60E-07
   2      7    11.527     3.441    0.82E-04    0.22E-03    0.14E-06
 Optimization of the real space projectors (new method)

 maximal supplied QI-value         = 19.84
 optimisation between [QCUT,QGAM] = [ 11.51, 23.22] = [ 37.09,150.92] Ry 
 Optimized for a Real-space Cutoff    1.49 Angstroem

   l    n(q)    QCUT    max X(q) W(low)/X(q) W(high)/X(q)  e(spline) 
   0     10    11.508     7.541    0.34E-04    0.13E-04    0.69E-07
   0     10    11.508     1.809    0.49E-04    0.27E-04    0.14E-06
   1     10    11.508     4.107    0.27E-05    0.41E-05    0.14E-06
   1     10    11.508     2.196    0.26E-05    0.25E-05    0.22E-06
   2      9    11.508     4.265    0.18E-03    0.11E-03    0.81E-06
   2      9    11.508     1.925    0.97E-04    0.76E-04    0.47E-06
 Optimization of the real space projectors (new method)

 maximal supplied QI-value         = 19.84
 optimisation between [QCUT,QGAM] = [ 11.51, 23.22] = [ 37.09,150.92] Ry 
 Optimized for a Real-space Cutoff    1.21 Angstroem

   l    n(q)    QCUT    max X(q) W(low)/X(q) W(high)/X(q)  e(spline) 
   0      8    11.508     6.761    0.57E-04    0.57E-04    0.35E-07
   0      8    11.508     1.642    0.14E-03    0.14E-03    0.91E-07
   1      8    11.508     3.519    0.20E-04    0.72E-04    0.47E-07
   1      8    11.508     2.150    0.27E-04    0.11E-03    0.89E-07
   2      7    11.508     2.976    0.19E-03    0.33E-03    0.16E-06
   2      7    11.508     1.494    0.14E-03    0.29E-03    0.14E-06
  PAW_PBE Li_sv_GW 25Mar2010            :
 energy of atom  1       EATOM= -200.9989
 kinetic energy error for atom=    0.0127 (will be added to EATOM!!)
  PAW_PBE P_GW 19Mar2012                :
 energy of atom  2       EATOM= -176.0430
 kinetic energy error for atom=    0.0011 (will be added to EATOM!!)
  PAW_PBE S_GW 19Mar2012                :
 energy of atom  3       EATOM= -276.8230
 kinetic energy error for atom=    0.0024 (will be added to EATOM!!)
  PAW_PBE Cl_GW 19Mar2012               :
 energy of atom  4       EATOM= -409.7259
 kinetic energy error for atom=    0.0030 (will be added to EATOM!!)
 
 
 POSCAR: Li24 P4 S20 Cl4
  positions in direct lattice
  No initial velocities read in
 exchange correlation table for  LEXCH =        8
   RHO(1)=    0.500       N(1)  =     2000
   RHO(2)=  100.500       N(2)  =     4000

 VTST: version 4.1, (05/19/21)

 CHAIN: initializing optimizer
 
 OPT: Using VASP QUASI-newton optimizer
 CHAIN: Read ICHAIN            0
 
 POSCAR: Li24 P4 S20 Cl4
  positions in direct lattice
  No initial velocities read in
 


--------------------------------------------------------------------------------------------------------


 ion  position               nearest neighbor table
   1  0.977  0.250  0.250-
   2  0.977  0.750  0.750-
   3  0.023  0.250  0.750-
   4  0.023  0.750  0.250-
   5  0.250  0.250  0.977-
   6  0.250  0.750  0.023-
   7  0.750  0.250  0.023-
   8  0.750  0.750  0.977-
   9  0.250  0.976  0.250-
  10  0.250  0.023  0.750-
  11  0.752  0.977  0.751-
  12  0.750  0.023  0.250-
  13  0.250  0.750  0.477-
  14  0.250  0.250  0.523-
  15  0.750  0.750  0.523-
  16  0.750  0.250  0.477-
  17  0.250  0.477  0.750-
  18  0.250  0.523  0.250-
  19  0.750  0.477  0.250-
  20  0.750  0.523  0.750-
  21  0.477  0.250  0.750-
  22  0.477  0.750  0.250-
  23  0.523  0.250  0.250-
  24  0.523  0.751  0.749-
  25  0.500  0.500  0.500-  43 2.05  44 2.05  42 2.05  41 2.05
  26  0.500  0.000  0.000-  39 2.05  40 2.05  37 2.05  38 2.05
  27  1.000  0.500  0.000-  33 2.05  34 2.05  36 2.05  35 2.05
  28  0.000  0.000  0.500-  32 2.05  31 2.05  30 2.05  29 2.05
  29  0.118  0.882  0.618-  28 2.05
  30  0.118  0.118  0.382-  28 2.05
  31  0.882  0.882  0.382-  28 2.05
  32  0.882  0.118  0.618-  28 2.05
  33  0.882  0.618  0.118-  27 2.05
  34  0.882  0.382  0.882-  27 2.05
  35  0.118  0.618  0.882-  27 2.05
  36  0.118  0.382  0.118-  27 2.05
  37  0.618  0.118  0.882-  26 2.05
  38  0.618  0.882  0.118-  26 2.05
  39  0.382  0.118  0.118-  26 2.05
  40  0.382  0.882  0.882-  26 2.05
  41  0.618  0.618  0.382-  25 2.05
  42  0.618  0.382  0.618-  25 2.05
  43  0.382  0.618  0.618-  25 2.05
  44  0.382  0.382  0.382-  25 2.05
  45  0.750  0.750  0.750-
  46  0.750  0.250  0.250-
  47  0.250  0.750  0.250-
  48  0.250  0.250  0.750-
  49  1.000  0.000  1.000-
  50  0.000  0.500  0.500-
  51  0.500  1.000  0.500-
  52  0.500  0.499  0.000-
 
  LATTYP: Found a simple cubic cell.
 ALAT       =    10.0233706847
  
  Lattice vectors:
  
 A1 = (  10.0233706847,   0.0000000000,   0.0000000000)
 A2 = (   0.0000000000,  10.0233706847,   0.0000000000)
 A3 = (   0.0000000000,   0.0000000000,  10.0233706847)


Analysis of symmetry for initial positions (statically):
=====================================================================
 Subroutine PRICEL returns:
 Original cell was already a primitive cell.
 

 Routine SETGRP: Setting up the symmetry group for a 
 simple cubic supercell.


 Subroutine GETGRP returns: Found  1 space group operations
 (whereof  1 operations were pure point group operations)
 out of a pool of 48 trial point group operations.


The static configuration has the point symmetry C_1 .


Analysis of symmetry for dynamics (positions and initial velocities):
=====================================================================
 Subroutine PRICEL returns:
 Original cell was already a primitive cell.
 

 Routine SETGRP: Setting up the symmetry group for a 
 simple cubic supercell.


 Subroutine GETGRP returns: Found  1 space group operations
 (whereof  1 operations were pure point group operations)
 out of a pool of 48 trial point group operations.


The dynamic configuration has the point symmetry C_1 .


Analysis of structural, dynamic, and magnetic symmetry:
=====================================================================
 Subroutine PRICEL returns:
 Original cell was already a primitive cell.
 

 Routine SETGRP: Setting up the symmetry group for a 
 simple cubic supercell.


 Subroutine GETGRP returns: Found  1 space group operations
 (whereof  1 operations were pure point group operations)
 out of a pool of 48 trial point group operations.


The overall configuration has the point symmetry C_1 .


 Subroutine INISYM returns: Found  1 space group operations
 (whereof  1 operations are pure point group operations),
 and found     1 'primitive' translations


----------------------------------------------------------------------------------------

                                     Primitive cell                                     

  volume of cell :    1007.0276

  direct lattice vectors                    reciprocal lattice vectors
    10.023370685  0.000000000  0.000000000     0.099766838  0.000000000  0.000000000
     0.000000000 10.023370685  0.000000000     0.000000000  0.099766838  0.000000000
     0.000000000  0.000000000 10.023370685     0.000000000  0.000000000  0.099766838

  length of vectors
    10.023370685 10.023370685 10.023370685     0.099766838  0.099766838  0.099766838

  position of ions in fractional coordinates (direct lattice)
     0.976666780  0.249583087  0.249871334
     0.976754681  0.749595384  0.749559523
     0.023226365  0.250214161  0.750095062
     0.023186793  0.749882584  0.249987693
     0.249822485  0.249789086  0.977113624
     0.249949776  0.749953339  0.023095543
     0.749549424  0.250473109  0.023150799
     0.749868329  0.749882953  0.976543938
     0.249962080  0.976499298  0.249988474
     0.249996118  0.023109256  0.750090284
     0.751651630  0.977042341  0.751392088
     0.750169241  0.023094422  0.249716466
     0.249814416  0.749789250  0.476708039
     0.249889114  0.249965289  0.523457204
     0.749692494  0.750448544  0.522924392
     0.749700117  0.249900489  0.476739515
     0.250114248  0.476721925  0.750205061
     0.249916903  0.522888317  0.250134452
     0.749790697  0.476695083  0.249790978
     0.750065290  0.523409812  0.749792789
     0.476723018  0.250094881  0.750086427
     0.476667405  0.749800589  0.249763419
     0.523169280  0.249870349  0.250273978
     0.523252990  0.750961866  0.749189669
     0.500019114  0.500131427  0.500209173
     0.500094302  0.000062954  0.000130027
     0.999918955  0.500159507  0.000128030
     0.000162840  0.000163342  0.500029657
     0.118195474  0.881871284  0.618144331
     0.118377724  0.118133081  0.381780678
     0.882152951  0.882047792  0.381824623
     0.882052441  0.118370132  0.617958403
     0.881750487  0.618272304  0.118109387
     0.881834519  0.382131214  0.881908365
     0.118099858  0.618153505  0.881865979
     0.117891406  0.381831723  0.118242768
     0.618108551  0.118171652  0.881831433
     0.618253043  0.881715113  0.118069937
     0.381955277  0.117969866  0.118321388
     0.382009809  0.881914872  0.882018668
     0.618090496  0.618106883  0.381818294
     0.618197800  0.381934022  0.618269203
     0.381910042  0.618219293  0.618275622
     0.381952941  0.381857836  0.382232814
     0.750014229  0.750204672  0.749762530
     0.749948835  0.249890540  0.249953228
     0.249918689  0.749719872  0.249874290
     0.249983199  0.249915789  0.750266233
     0.999719481  0.000115525  0.999703036
     0.000070899  0.499945182  0.499824035
     0.499823786  0.999912063  0.499598881
     0.499893175  0.499413138  0.000178233

  ion indices of the primitive-cell ions
   primitive index   ion index
                 1           1
                 2           2
                 3           3
                 4           4
                 5           5
                 6           6
                 7           7
                 8           8
                 9           9
                10          10
                11          11
                12          12
                13          13
                14          14
                15          15
                16          16
                17          17
                18          18
                19          19
                20          20
                21          21
                22          22
                23          23
                24          24
                25          25
                26          26
                27          27
                28          28
                29          29
                30          30
                31          31
                32          32
                33          33
                34          34
                35          35
                36          36
                37          37
                38          38
                39          39
                40          40
                41          41
                42          42
                43          43
                44          44
                45          45
                46          46
                47          47
                48          48
                49          49
                50          50
                51          51
                52          52

----------------------------------------------------------------------------------------

 
 
 KPOINTS: Automatic mesh                          

Automatic generation of k-mesh.
 Grid dimensions read from file:
 generate k-points for:    2    2    2

 Generating k-lattice:

  Cartesian coordinates                     Fractional coordinates (reciprocal lattice)
     0.049883419  0.000000000  0.000000000     0.500000000  0.000000000  0.000000000
     0.000000000  0.049883419  0.000000000     0.000000000  0.500000000  0.000000000
     0.000000000  0.000000000  0.049883419     0.000000000  0.000000000  0.500000000

  Length of vectors
     0.049883419  0.049883419  0.049883419

  Shift w.r.t. Gamma in fractional coordinates (k-lattice)
     0.500000000  0.500000000  0.500000000

 
 Subroutine IBZKPT returns following result:
 ===========================================
 
 Found      4 irreducible k-points:
 
 Following reciprocal coordinates:
            Coordinates               Weight
  0.250000  0.250000  0.250000      2.000000
 -0.250000  0.250000  0.250000      2.000000
 -0.250000 -0.250000  0.250000      2.000000
  0.250000 -0.250000  0.250000      2.000000
 
 Following cartesian coordinates:
            Coordinates               Weight
  0.024942  0.024942  0.024942      2.000000
 -0.024942  0.024942  0.024942      2.000000
 -0.024942 -0.024942  0.024942      2.000000
  0.024942 -0.024942  0.024942      2.000000
 


--------------------------------------------------------------------------------------------------------




 Dimension of arrays:
   k-points           NKPTS =      4   k-points in BZ     NKDIM =      4   number of bands    NBANDS=    176
   number of dos      NEDOS =    301   number of ions     NIONS =     52
   non local maximal  LDIM  =      6   non local SUM 2l+1 LMDIM =     18
   total plane-waves  NPLWV = 512000
   max r-space proj   IRMAX =   7082   max aug-charges    IRDMAX=  21655
   dimension x,y,z NGX =    80 NGY =   80 NGZ =   80
   dimension x,y,z NGXF=   160 NGYF=  160 NGZF=  160
   support grid    NGXF=   160 NGYF=  160 NGZF=  160
   ions per type =              24   4  20   4
   NGX,Y,Z   is equivalent  to a cutoff of  13.27, 13.27, 13.27 a.u.
   NGXF,Y,Z  is equivalent  to a cutoff of  26.54, 26.54, 26.54 a.u.

 SYSTEM =  unknown system                          
 POSCAR =  Li24 P4 S20 Cl4                         

 Startparameter for this run:
   NWRITE =      2    write-flag & timer
   PREC   = accu      normal or accurate (medium, high low for compatibility)
   ISTART =      0    job   : 0-new  1-cont  2-samecut
   ICHARG =      2    charge: 1-file 2-atom 10-const
   ISPIN  =      2    spin polarized calculation?
   LNONCOLLINEAR =      F non collinear calculations
   LSORBIT =      F    spin-orbit coupling
   INIWAV =      1    electr: 0-lowe 1-rand  2-diag
   LASPH  =      T    aspherical Exc in radial PAW
 Electronic Relaxation 1
   ENCUT  =  520.0 eV  38.22 Ry    6.18 a.u.  18.64 18.64 18.64*2*pi/ulx,y,z
   ENINI  =  520.0     initial cutoff
   ENAUG  = 1041.7 eV  augmentation charge cutoff
   NELM   =    100;   NELMIN=  2; NELMDL=-10     # of ELM steps 
   EDIFF  = 0.1E-04   stopping-criterion for ELM
   LREAL  =      T    real-space projection
   NLSPLINE    = F    spline interpolate recip. space projectors
   LCOMPAT=      F    compatible to vasp.4.4
   GGA_COMPAT  = T    GGA compatible to vasp.4.4-vasp.4.6
   LMAXPAW     = -100 max onsite density
   LMAXMIX     =    4 max onsite mixed and CHGCAR
   VOSKOWN=      0    Vosko Wilk Nusair interpolation
   ROPT   =   -0.00025  -0.00025  -0.00025  -0.00025
 Ionic relaxation
   EDIFFG = -.1E-01   stopping-criterion for IOM
   NSW    =   1000    number of steps for IOM
   NBLOCK =      1;   KBLOCK =   1000    inner block; outer block 
   IBRION =      1    ionic relax: 0-MD 1-quasi-New 2-CG
   NFREE  =      0    steps in history (QN), initial steepest desc. (CG)
   ISIF   =      2    stress and relaxation
   IWAVPR =     11    prediction:  0-non 1-charg 2-wave 3-comb
   ISYM   =      2    0-nonsym 1-usesym 2-fastsym
   LCORR  =      T    Harris-Foulkes like correction to forces

   POTIM  = 0.5000    time-step for ionic-motion
   TEIN   =    0.0    initial temperature
   TEBEG  =    0.0;   TEEND  =   0.0 temperature during run
   SMASS  =  -3.00    Nose mass-parameter (am)
   estimated Nose-frequenzy (Omega)   =  0.10E-29 period in steps = 0.13E+47 mass=  -0.230E-26a.u.
   SCALEE = 1.0000    scale energy and forces
   NPACO  =    256;   APACO  = 10.0  distance and # of slots for P.C.
   PSTRESS=    0.0 pullay stress

  Mass of Ions in am
   POMASS =   7.01 30.97 32.07 35.45
  Ionic Valenz
   ZVAL   =   3.00  5.00  6.00  7.00
  Atomic Wigner-Seitz radii
   RWIGS  =  -1.00 -1.00 -1.00 -1.00
  virtual crystal weights 
   VCA    =   1.00  1.00  1.00  1.00
   NELECT =     240.0000    total number of electrons
   NUPDOWN=      -1.0000    fix difference up-down

 DOS related values:
   EMIN   =  10.00;   EMAX   =-10.00  energy-range for DOS
   EFERMI =   0.00;   METHOD = LEGACY      
   ISMEAR =     0;   SIGMA  =   0.03  broadening in eV -4-tet -1-fermi 0-gaus

 Electronic relaxation 2 (details)
   IALGO  =     48    algorithm
   LDIAG  =      T    sub-space diagonalisation (order eigenvalues)
   LSUBROT=      F    optimize rotation matrix (better conditioning)
   TURBO    =      0    0=normal 1=particle mesh
   IRESTART =      0    0=no restart 2=restart with 2 vectors
   NREBOOT  =      0    no. of reboots
   NMIN     =      0    reboot dimension
   EREF     =   0.00    reference energy to select bands
   IMIX   =      4    mixing-type and parameters
     AMIX     =   0.40;   BMIX     =  1.00
     AMIX_MAG =   1.60;   BMIX_MAG =  1.00
     AMIN     =   0.10
     WC   =   100.;   INIMIX=   1;  MIXPRE=   1;  MAXMIX= -45

 Intra band minimization:
   WEIMIN = 0.0010     energy-eigenvalue tresh-hold
   EBREAK =  0.14E-07  absolut break condition
   DEPER  =   0.30     relativ break condition  

   TIME   =   0.40     timestep for ELM

  volume/ion in A,a.u.               =      19.37       130.69
  Fermi-wavevector in a.u.,A,eV,Ry     =   1.014997  1.918066 14.016981  1.030219
  Thomas-Fermi vector in A             =   2.148257
 
 Write flags
   LWAVE        =      F    write WAVECAR
   LDOWNSAMPLE  =      F    k-point downsampling of WAVECAR
   LCHARG       =      F    write CHGCAR
   LVTOT        =      F    write LOCPOT, total local potential
   LVHAR        =      F    write LOCPOT, Hartree potential only
   LELF         =      F    write electronic localiz. function (ELF)
   LORBIT       =      0    0 simple, 1 ext, 2 COOP (PROOUT), +10 PAW based schemes


 Dipole corrections
   LMONO  =      F    monopole corrections only (constant potential shift)
   LDIPOL =      F    correct potential (dipole corrections)
   IDIPOL =      0    1-x, 2-y, 3-z, 4-all directions 
   EPSILON=  1.0000000 bulk dielectric constant

 Exchange correlation treatment:
   GGA     =    PE    GGA type
   LEXCH   =     8    internal setting for exchange type
   LIBXC   =     F    Libxc                    
   VOSKOWN =     0    Vosko Wilk Nusair interpolation
   LHFCALC =     F    Hartree Fock is set to
   LHFONE  =     F    Hartree Fock one center treatment
   AEXX    =    0.0000 exact exchange contribution

 Linear response parameters
   LEPSILON=     F    determine dielectric tensor
   LRPA    =     F    only Hartree local field effects (RPA)
   LNABLA  =     F    use nabla operator in PAW spheres
   LVEL    =     F    velocity operator in full k-point grid
   CSHIFT  =0.1000    complex shift for real part using Kramers Kronig
   OMEGAMAX=  -1.0    maximum frequency
   DEG_THRESHOLD= 0.2000000E-02 threshold for treating states as degnerate
   RTIME   =   -0.100 relaxation time in fs
  (WPLASMAI=    0.000 imaginary part of plasma frequency in eV, 0.658/RTIME)
   DFIELD  = 0.0000000 0.0000000 0.0000000 field for delta impulse in time
 
  Optional k-point grid parameters
   LKPOINTS_OPT  =     F    use optional k-point grid
   KPOINTS_OPT_MODE=     1    mode for optional k-point grid
 
 Orbital magnetization related:
   ORBITALMAG=     F  switch on orbital magnetization
   LCHIMAG   =     F  perturbation theory with respect to B field
   DQ        =  0.001000  dq finite difference perturbation B field
   LLRAUG    =     F  two centre corrections for induced B field
   LBONE     =     F  B-component reconstruction in AE one-centre
   LVGVCALC  =     T  calculate vGv susceptibility
   LVGVAPPL  =     F  apply vGv susceptibility instead of pGv for G=0

 Random number generation:
   RANDOM_GENERATOR = DEFAULT
   PCG_SEED         = not used


--------------------------------------------------------------------------------------------------------


 quasi-Newton-method for relaxation of ions
 charge density and potential will be updated during run
 spin polarized calculation
 RMM-DIIS sequential band-by-band
 perform sub-space diagonalisation
    before iterative eigenvector-optimisation
 modified Broyden-mixing scheme, WC =      100.0
 initial mixing is a Kerker type mixing with AMIX =  0.4000 and BMIX =      1.0000
 Hartree-type preconditioning will be used
 using additional bands           56
 real space projection scheme for non local part
 use partial core corrections
 calculate Harris-corrections to forces 
   (improved forces if not selfconsistent)
 use gradient corrections 
 use of overlap-Matrix (Vanderbilt PP)
 Gauss-broadening in eV      SIGMA  =   0.03


--------------------------------------------------------------------------------------------------------


  energy-cutoff  :      520.00
  volume of cell :     1007.03
      direct lattice vectors                 reciprocal lattice vectors
    10.023370685  0.000000000  0.000000000     0.099766838  0.000000000  0.000000000
     0.000000000 10.023370685  0.000000000     0.000000000  0.099766838  0.000000000
     0.000000000  0.000000000 10.023370685     0.000000000  0.000000000  0.099766838

  length of vectors
    10.023370685 10.023370685 10.023370685     0.099766838  0.099766838  0.099766838


 
 k-points in units of 2pi/SCALE and weight: Automatic mesh                          
   0.02494171  0.02494171  0.02494171       0.250
  -0.02494171  0.02494171  0.02494171       0.250
  -0.02494171 -0.02494171  0.02494171       0.250
   0.02494171 -0.02494171  0.02494171       0.250
 
 k-points in reciprocal lattice and weights: Automatic mesh                          
   0.25000000  0.25000000  0.25000000       0.250
  -0.25000000  0.25000000  0.25000000       0.250
  -0.25000000 -0.25000000  0.25000000       0.250
   0.25000000 -0.25000000  0.25000000       0.250
 
 position of ions in fractional coordinates (direct lattice) 
   0.97666678  0.24958309  0.24987133
   0.97675468  0.74959538  0.74955952
   0.02322636  0.25021416  0.75009506
   0.02318679  0.74988258  0.24998769
   0.24982248  0.24978909  0.97711362
   0.24994978  0.74995334  0.02309554
   0.74954942  0.25047311  0.02315080
   0.74986833  0.74988295  0.97654394
   0.24996208  0.97649930  0.24998847
   0.24999612  0.02310926  0.75009028
   0.75165163  0.97704234  0.75139209
   0.75016924  0.02309442  0.24971647
   0.24981442  0.74978925  0.47670804
   0.24988911  0.24996529  0.52345720
   0.74969249  0.75044854  0.52292439
   0.74970012  0.24990049  0.47673952
   0.25011425  0.47672193  0.75020506
   0.24991690  0.52288832  0.25013445
   0.74979070  0.47669508  0.24979098
   0.75006529  0.52340981  0.74979279
   0.47672302  0.25009488  0.75008643
   0.47666740  0.74980059  0.24976342
   0.52316928  0.24987035  0.25027398
   0.52325299  0.75096187  0.74918967
   0.50001911  0.50013143  0.50020917
   0.50009430  0.00006295  0.00013003
   0.99991896  0.50015951  0.00012803
   0.00016284  0.00016334  0.50002966
   0.11819547  0.88187128  0.61814433
   0.11837772  0.11813308  0.38178068
   0.88215295  0.88204779  0.38182462
   0.88205244  0.11837013  0.61795840
   0.88175049  0.61827230  0.11810939
   0.88183452  0.38213121  0.88190837
   0.11809986  0.61815350  0.88186598
   0.11789141  0.38183172  0.11824277
   0.61810855  0.11817165  0.88183143
   0.61825304  0.88171511  0.11806994
   0.38195528  0.11796987  0.11832139
   0.38200981  0.88191487  0.88201867
   0.61809050  0.61810688  0.38181829
   0.61819780  0.38193402  0.61826920
   0.38191004  0.61821929  0.61827562
   0.38195294  0.38185784  0.38223281
   0.75001423  0.75020467  0.74976253
   0.74994883  0.24989054  0.24995323
   0.24991869  0.74971987  0.24987429
   0.24998320  0.24991579  0.75026623
   0.99971948  0.00011552  0.99970304
   0.00007090  0.49994518  0.49982404
   0.49982379  0.99991206  0.49959888
   0.49989318  0.49941314  0.00017823
 
 position of ions in cartesian coordinates  (Angst):
   9.78949317  2.50166380  2.50455301
   9.79037424  7.51347240  7.51311295
   0.23280646  2.50798928  7.51848086
   0.23240982  7.51635111  2.50571931
   2.50406337  2.50372860  9.79397206
   2.50533926  7.51706031  0.23149519
   7.51301173  2.51058482  0.23204904
   7.51620823  7.51635481  9.78826188
   2.50546259  9.78781444  2.50572715
   2.50580376  0.23163264  7.51843297
   7.53408292  9.79325756  7.53148143
   7.51922438  0.23148395  2.50300070
   2.50398250  7.51541559  4.77822138
   2.50473122  2.50549475  5.24680559
   7.51444577  7.52202393  5.24146502
   7.51452217  2.50484524  4.77853688
   2.50698782  4.77836057  7.51958342
   2.50500976  5.24110343  2.50719033
   7.51543009  4.77809152  2.50374757
   7.51818244  5.24633057  7.51545106
   4.77837153  2.50679370  7.51839431
   4.77781409  7.51552925  2.50347133
   5.24391962  2.50454314  2.50858885
   5.24475868  7.52716915  7.50940577
   5.01187693  5.01300268  5.01378196
   5.01263056  0.00063101  0.00130331
  10.02255834  5.01328414  0.00128329
   0.00163220  0.00163724  5.01198260
   1.18471705  8.83932277  6.19588977
   1.18654381  1.18409166  3.82672926
   8.84214603  8.84109198  3.82716973
   8.84113858  1.18646771  6.19402614
   8.83811198  6.19717249  1.18385417
   8.83895427  3.83024281  8.83969445
   1.18375866  6.19598172  8.83926960
   1.18166926  3.82724090  1.18519109
   6.19553113  1.18447827  8.83892333
   6.19697943  8.83775742  1.18345875
   3.82847933  1.18245570  1.18597913
   3.82902592  8.83975967  8.84080006
   6.19535016  6.19551441  3.82710629
   6.19642571  3.82826627  6.19714140
   3.82802592  6.19664114  6.19720575
   3.82845591  3.82750264  3.83126118
   7.51767063  7.51957952  7.51514776
   7.51701516  2.50474552  2.50537385
   2.50502766  7.51472019  2.50458263
   2.50567427  2.50499860  7.52019657
  10.02055894  0.00115795 10.02039411
   0.00071065  5.01113588  5.00992158
   5.00991908 10.02248926  5.00766478
   5.01061460  5.00580301  0.00178649
 


--------------------------------------------------------------------------------------------------------


 k-point   1 :   0.2500 0.2500 0.2500  plane waves:   27124
 k-point   2 :  -0.2500 0.2500 0.2500  plane waves:   27124
 k-point   3 :  -0.2500-0.2500 0.2500  plane waves:   27124
 k-point   4 :   0.2500-0.2500 0.2500  plane waves:   27124

 maximum and minimum number of plane-waves per node :       867      830

 maximum number of plane-waves:     27124
 maximum index in each direction: 
   IXMAX=   18   IYMAX=   18   IZMAX=   18
   IXMIN=  -18   IYMIN=  -18   IZMIN=  -18


 real space projection operators:
  total allocation   :      34908.19 KBytes
  max/ min on nodes  :       1345.06        816.45


 parallel 3D FFT for wavefunctions:
    minimum data exchange during FFTs selected (reduces bandwidth)
 parallel 3D FFT for charge:
    minimum data exchange during FFTs selected (reduces bandwidth)


 total amount of memory used by VASP MPI-rank0    51663. kBytes
=======================================================================

   base      :      30000. kBytes
   nonlr-proj:       7917. kBytes
   fftplans  :       2173. kBytes
   grid      :       6510. kBytes
   one-center:         62. kBytes
   wavefun   :       5001. kBytes
 
     INWAV:  cpu time      0.0000: real time      0.0001
 Broyden mixing: mesh for mixing (old mesh)
   NGX = 37   NGY = 37   NGZ = 37
  (NGX  =160   NGY  =160   NGZ  =160)
  gives a total of  50653 points

 initial charge density was supplied:
 charge density of overlapping atoms calculated
 number of electron     240.0000000 magnetization      52.0000000
 keeping initial charge density in first step


--------------------------------------------------------------------------------------------------------


 Maximum index for non-local projection operator          459
 Maximum index for augmentation-charges          919 (set IRDMAX)


--------------------------------------------------------------------------------------------------------


 First call to EWALD:  gamma=   0.177
 Maximum number of real-space cells 3x 3x 3
 Maximum number of reciprocal cells 3x 3x 3

    FEWALD:  cpu time      0.0024: real time      0.0029


--------------------------------------- Ionic step        1  -------------------------------------------




--------------------------------------- Iteration      1(   1)  ---------------------------------------


    POTLOK:  cpu time      0.1037: real time      0.1148
    SETDIJ:  cpu time      0.4089: real time      0.4439
    EDDIAG:  cpu time      0.4227: real time      0.5029
  RMM-DIIS:  cpu time      0.8512: real time      0.8602
    ORTHCH:  cpu time      0.0718: real time      0.0769
       DOS:  cpu time      0.0023: real time      0.0038
    --------------------------------------------
      LOOP:  cpu time      1.8606: real time      2.0025

 eigenvalue-minimisations  :  1408
 total energy-change (2. order) : 0.2379402E+04  (-0.8826863E+04)
 number of electron     240.0000000 magnetization      52.0000000
 augmentation part      240.0000000 magnetization      52.0000000

 Free energy of the ion-electron system (eV)
  ---------------------------------------------------
  alpha Z        PSCENC =       269.56312086
  Ewald energy   TEWEN  =     -8278.93202936
  -Hartree energ DENC   =     -2404.12407507
  -exchange      EXHF   =         0.00000000
  -V(xc)+E(xc)   XCENC  =       529.57504465
  PAW double counting   =      8141.38806575    -8271.61346273
  entropy T*S    EENTRO =        -0.00873246
  eigenvalues    EBANDS =      -309.58602250
  atomic energy  EATOM  =     12703.13999606
  Solvation  Ediel_sol  =         0.00000000
  ---------------------------------------------------
  free energy    TOTEN  =      2379.40190520 eV

  energy without entropy =     2379.41063766  energy(sigma->0) =     2379.40627143


--------------------------------------------------------------------------------------------------------




--------------------------------------- Iteration      1(   2)  ---------------------------------------


    EDDIAG:  cpu time      0.3904: real time      0.3961
  RMM-DIIS:  cpu time      0.8466: real time      0.8549
    ORTHCH:  cpu time      0.0736: real time      0.0771
       DOS:  cpu time      0.0012: real time      0.0012
    --------------------------------------------
      LOOP:  cpu time      1.3117: real time      1.3293

 eigenvalue-minimisations  :  1408
 total energy-change (2. order) :-0.2144330E+04  (-0.2654588E+04)
 number of electron     240.0000000 magnetization      52.0000000
 augmentation part      240.0000000 magnetization      52.0000000

 Free energy of the ion-electron system (eV)
  ---------------------------------------------------
  alpha Z        PSCENC =       269.56312086
  Ewald energy   TEWEN  =     -8278.93202936
  -Hartree energ DENC   =     -2404.12407507
  -exchange      EXHF   =         0.00000000
  -V(xc)+E(xc)   XCENC  =       529.57504465
  PAW double counting   =      8141.38806575    -8271.61346273
  entropy T*S    EENTRO =        -0.00761039
  eigenvalues    EBANDS =     -2453.91736725
  atomic energy  EATOM  =     12703.13999606
  Solvation  Ediel_sol  =         0.00000000
  ---------------------------------------------------
  free energy    TOTEN  =       235.07168252 eV

  energy without entropy =      235.07929290  energy(sigma->0) =      235.07548771


--------------------------------------------------------------------------------------------------------




--------------------------------------- Iteration      1(   3)  ---------------------------------------


    EDDIAG:  cpu time      0.3884: real time      0.3935
  RMM-DIIS:  cpu time      0.8462: real time      0.8660
    ORTHCH:  cpu time      0.0751: real time      0.0776
       DOS:  cpu time      0.0011: real time      0.0011
    --------------------------------------------
      LOOP:  cpu time      1.3109: real time      1.3382

 eigenvalue-minimisations  :  1408
 total energy-change (2. order) :-0.1118290E+03  (-0.6188410E+03)
 number of electron     240.0000000 magnetization      52.0000000
 augmentation part      240.0000000 magnetization      52.0000000

 Free energy of the ion-electron system (eV)
  ---------------------------------------------------
  alpha Z        PSCENC =       269.56312086
  Ewald energy   TEWEN  =     -8278.93202936
  -Hartree energ DENC   =     -2404.12407507
  -exchange      EXHF   =         0.00000000
  -V(xc)+E(xc)   XCENC  =       529.57504465
  PAW double counting   =      8141.38806575    -8271.61346273
  entropy T*S    EENTRO =        -0.00576569
  eigenvalues    EBANDS =     -2565.74817442
  atomic energy  EATOM  =     12703.13999606
  Solvation  Ediel_sol  =         0.00000000
  ---------------------------------------------------
  free energy    TOTEN  =       123.24272005 eV

  energy without entropy =      123.24848574  energy(sigma->0) =      123.24560289


--------------------------------------------------------------------------------------------------------




--------------------------------------- Iteration      1(   4)  ---------------------------------------


    EDDIAG:  cpu time      0.3911: real time      0.3942
  RMM-DIIS:  cpu time      0.8451: real time      0.9036
    ORTHCH:  cpu time      0.0754: real time      0.0771
       DOS:  cpu time      0.0011: real time      0.0011
    --------------------------------------------
      LOOP:  cpu time      1.3127: real time      1.3759

 eigenvalue-minimisations  :  1408
 total energy-change (2. order) :-0.2065643E+03  (-0.1761528E+03)
 number of electron     240.0000000 magnetization      52.0000000
 augmentation part      240.0000000 magnetization      52.0000000

 Free energy of the ion-electron system (eV)
  ---------------------------------------------------
  alpha Z        PSCENC =       269.56312086
  Ewald energy   TEWEN  =     -8278.93202936
  -Hartree energ DENC   =     -2404.12407507
  -exchange      EXHF   =         0.00000000
  -V(xc)+E(xc)   XCENC  =       529.57504465
  PAW double counting   =      8141.38806575    -8271.61346273
  entropy T*S    EENTRO =        -0.00330483
  eigenvalues    EBANDS =     -2772.31492741
  atomic energy  EATOM  =     12703.13999606
  Solvation  Ediel_sol  =         0.00000000
  ---------------------------------------------------
  free energy    TOTEN  =       -83.32157209 eV

  energy without entropy =      -83.31826726  energy(sigma->0) =      -83.31991967


--------------------------------------------------------------------------------------------------------




--------------------------------------- Iteration      1(   5)  ---------------------------------------


    EDDIAG:  cpu time      0.3925: real time      0.3956
  RMM-DIIS:  cpu time      0.9400: real time      0.9873
    ORTHCH:  cpu time      0.0722: real time      0.0726
       DOS:  cpu time      0.0004: real time      0.0004
    --------------------------------------------
      LOOP:  cpu time      1.4052: real time      1.4559

 eigenvalue-minimisations  :  1408
 total energy-change (2. order) :-0.7967450E+02  (-0.7366598E+02)
 number of electron     240.0000000 magnetization      52.0000000
 augmentation part      240.0000000 magnetization      52.0000000

 Free energy of the ion-electron system (eV)
  ---------------------------------------------------
  alpha Z        PSCENC =       269.56312086
  Ewald energy   TEWEN  =     -8278.93202936
  -Hartree energ DENC   =     -2404.12407507
  -exchange      EXHF   =         0.00000000
  -V(xc)+E(xc)   XCENC  =       529.57504465
  PAW double counting   =      8141.38806575    -8271.61346273
  entropy T*S    EENTRO =        -0.00000000
  eigenvalues    EBANDS =     -2851.99272911
  atomic energy  EATOM  =     12703.13999606
  Solvation  Ediel_sol  =         0.00000000
  ---------------------------------------------------
  free energy    TOTEN  =      -162.99606895 eV

  energy without entropy =     -162.99606895  energy(sigma->0) =     -162.99606895


--------------------------------------------------------------------------------------------------------




--------------------------------------- Iteration      1(   6)  ---------------------------------------


    EDDIAG:  cpu time      0.3899: real time      0.3946
  RMM-DIIS:  cpu time      0.8445: real time      0.8529
    ORTHCH:  cpu time      0.0737: real time      0.0742
       DOS:  cpu time      0.0004: real time      0.0004
    --------------------------------------------
      LOOP:  cpu time      1.3086: real time      1.3222

 eigenvalue-minimisations  :  1408
 total energy-change (2. order) :-0.3699958E+02  (-0.3526931E+02)
 number of electron     240.0000000 magnetization      52.0000000
 augmentation part      240.0000000 magnetization      52.0000000

 Free energy of the ion-electron system (eV)
  ---------------------------------------------------
  alpha Z        PSCENC =       269.56312086
  Ewald energy   TEWEN  =     -8278.93202936
  -Hartree energ DENC   =     -2404.12407507
  -exchange      EXHF   =         0.00000000
  -V(xc)+E(xc)   XCENC  =       529.57504465
  PAW double counting   =      8141.38806575    -8271.61346273
  entropy T*S    EENTRO =        -0.00000000
  eigenvalues    EBANDS =     -2888.99230864
  atomic energy  EATOM  =     12703.13999606
  Solvation  Ediel_sol  =         0.00000000
  ---------------------------------------------------
  free energy    TOTEN  =      -199.99564848 eV

  energy without entropy =     -199.99564848  energy(sigma->0) =     -199.99564848


--------------------------------------------------------------------------------------------------------




--------------------------------------- Iteration      1(   7)  ---------------------------------------


    EDDIAG:  cpu time      0.3901: real time      0.3934
  RMM-DIIS:  cpu time      0.8426: real time      0.8638
    ORTHCH:  cpu time      0.0750: real time      0.0754
       DOS:  cpu time      0.0005: real time      0.0005
    --------------------------------------------
      LOOP:  cpu time      1.3081: real time      1.3331

 eigenvalue-minimisations  :  1408
 total energy-change (2. order) :-0.1855959E+02  (-0.1782063E+02)
 number of electron     240.0000000 magnetization      52.0000000
 augmentation part      240.0000000 magnetization      52.0000000

 Free energy of the ion-electron system (eV)
  ---------------------------------------------------
  alpha Z        PSCENC =       269.56312086
  Ewald energy   TEWEN  =     -8278.93202936
  -Hartree energ DENC   =     -2404.12407507
  -exchange      EXHF   =         0.00000000
  -V(xc)+E(xc)   XCENC  =       529.57504465
  PAW double counting   =      8141.38806575    -8271.61346273
  entropy T*S    EENTRO =        -0.00000000
  eigenvalues    EBANDS =     -2907.55189961
  atomic energy  EATOM  =     12703.13999606
  Solvation  Ediel_sol  =         0.00000000
  ---------------------------------------------------
  free energy    TOTEN  =      -218.55523945 eV

  energy without entropy =     -218.55523945  energy(sigma->0) =     -218.55523945


--------------------------------------------------------------------------------------------------------




--------------------------------------- Iteration      1(   8)  ---------------------------------------


    EDDIAG:  cpu time      0.3904: real time      0.3934
  RMM-DIIS:  cpu time      1.9988: real time      2.0716
    ORTHCH:  cpu time      0.0693: real time      0.0712
       DOS:  cpu time      0.0005: real time      0.0005
    --------------------------------------------
      LOOP:  cpu time      2.4590: real time      2.5367

 eigenvalue-minimisations  :  3585
 total energy-change (2. order) :-0.1897199E+02  (-0.1864998E+02)
 number of electron     240.0000000 magnetization      52.0000000
 augmentation part      240.0000000 magnetization      52.0000000

 Free energy of the ion-electron system (eV)
  ---------------------------------------------------
  alpha Z        PSCENC =       269.56312086
  Ewald energy   TEWEN  =     -8278.93202936
  -Hartree energ DENC   =     -2404.12407507
  -exchange      EXHF   =         0.00000000
  -V(xc)+E(xc)   XCENC  =       529.57504465
  PAW double counting   =      8141.38806575    -8271.61346273
  entropy T*S    EENTRO =        -0.00000000
  eigenvalues    EBANDS =     -2926.52389366
  atomic energy  EATOM  =     12703.13999606
  Solvation  Ediel_sol  =         0.00000000
  ---------------------------------------------------
  free energy    TOTEN  =      -237.52723351 eV

  energy without entropy =     -237.52723351  energy(sigma->0) =     -237.52723351


--------------------------------------------------------------------------------------------------------




--------------------------------------- Iteration      1(   9)  ---------------------------------------


    EDDIAG:  cpu time      0.3897: real time      0.3929
  RMM-DIIS:  cpu time      2.2524: real time      2.2741
    ORTHCH:  cpu time      0.0694: real time      0.0698
       DOS:  cpu time      0.0005: real time      0.0005
    --------------------------------------------
      LOOP:  cpu time      2.7120: real time      2.7373

 eigenvalue-minimisations  :  3974
 total energy-change (2. order) :-0.2426925E+01  (-0.2527492E+01)
 number of electron     240.0000000 magnetization      52.0000000
 augmentation part      240.0000000 magnetization      52.0000000

 Free energy of the ion-electron system (eV)
  ---------------------------------------------------
  alpha Z        PSCENC =       269.56312086
  Ewald energy   TEWEN  =     -8278.93202936
  -Hartree energ DENC   =     -2404.12407507
  -exchange      EXHF   =         0.00000000
  -V(xc)+E(xc)   XCENC  =       529.57504465
  PAW double counting   =      8141.38806575    -8271.61346273
  entropy T*S    EENTRO =        -0.00000000
  eigenvalues    EBANDS =     -2928.95081834
  atomic energy  EATOM  =     12703.13999606
  Solvation  Ediel_sol  =         0.00000000
  ---------------------------------------------------
  free energy    TOTEN  =      -239.95415818 eV

  energy without entropy =     -239.95415818  energy(sigma->0) =     -239.95415818


--------------------------------------------------------------------------------------------------------




--------------------------------------- Iteration      1(  10)  ---------------------------------------


    EDDIAG:  cpu time      0.3895: real time      0.3925
  RMM-DIIS:  cpu time      2.5560: real time      2.5947
    ORTHCH:  cpu time      0.0692: real time      0.0696
       DOS:  cpu time      0.0005: real time      0.0006
    CHARGE:  cpu time      0.0803: real time      0.0925
    MIXING:  cpu time      0.0019: real time      0.0037
    --------------------------------------------
      LOOP:  cpu time      3.0974: real time      3.1535

 eigenvalue-minimisations  :  4497
 total energy-change (2. order) :-0.2788144E+00  (-0.2453487E+00)
 number of electron     240.0000124 magnetization      28.5295509
 augmentation part        1.5599375 magnetization      28.9582601

 Broyden mixing:
  rms(total) = 0.65529E+01    rms(broyden)= 0.65526E+01
  rms(prec ) = 0.67948E+01
  weight for this iteration     100.00

 Free energy of the ion-electron system (eV)
  ---------------------------------------------------
  alpha Z        PSCENC =       269.56312086
  Ewald energy   TEWEN  =     -8278.93202936
  -Hartree energ DENC   =     -2404.12407507
  -exchange      EXHF   =         0.00000000
  -V(xc)+E(xc)   XCENC  =       529.57504465
  PAW double counting   =      8141.38806575    -8271.61346273
  entropy T*S    EENTRO =        -0.00000000
  eigenvalues    EBANDS =     -2929.22963272
  atomic energy  EATOM  =     12703.13999606
  Solvation  Ediel_sol  =         0.00000000
  ---------------------------------------------------
  free energy    TOTEN  =      -240.23297257 eV

  energy without entropy =     -240.23297257  energy(sigma->0) =     -240.23297257


--------------------------------------------------------------------------------------------------------




--------------------------------------- Iteration      1(  11)  ---------------------------------------


    POTLOK:  cpu time      0.0713: real time      0.0831
    SETDIJ:  cpu time      0.4071: real time      0.4098
    EDDIAG:  cpu time      0.3912: real time      0.3934
  RMM-DIIS:  cpu time      1.9941: real time      2.0317
    ORTHCH:  cpu time      0.0688: real time      0.0697
       DOS:  cpu time      0.0005: real time      0.0006
    CHARGE:  cpu time      0.0779: real time      0.0806
    MIXING:  cpu time      0.0014: real time      0.0030
    --------------------------------------------
      LOOP:  cpu time      3.0124: real time      3.0720

 eigenvalue-minimisations  :  3555
 total energy-change (2. order) : 0.1741060E+02  (-0.7289661E+01)
 number of electron     240.0000125 magnetization      17.5336275
 augmentation part        1.7198563 magnetization      17.8085943

 Broyden mixing:
  rms(total) = 0.33010E+01    rms(broyden)= 0.33009E+01
  rms(prec ) = 0.34224E+01
  weight for this iteration     100.00

 eigenvalues of (default mixing * dielectric matrix)
  average eigenvalue GAMMA=   0.7278
  0.7278

 Free energy of the ion-electron system (eV)
  ---------------------------------------------------
  alpha Z        PSCENC =       269.56312086
  Ewald energy   TEWEN  =     -8278.93202936
  -Hartree energ DENC   =     -2464.63689007
  -exchange      EXHF   =         0.00000000
  -V(xc)+E(xc)   XCENC  =       542.39468970
  PAW double counting   =      8976.93632208    -9113.72856015
  entropy T*S    EENTRO =        -0.00000000
  eigenvalues    EBANDS =     -2857.55901832
  atomic energy  EATOM  =     12703.13999606
  Solvation  Ediel_sol  =         0.00000000
  ---------------------------------------------------
  free energy    TOTEN  =      -222.82236920 eV

  energy without entropy =     -222.82236920  energy(sigma->0) =     -222.82236920


--------------------------------------------------------------------------------------------------------




--------------------------------------- Iteration      1(  12)  ---------------------------------------


    POTLOK:  cpu time      0.0691: real time      0.0706
    SETDIJ:  cpu time      0.4087: real time      0.4108
    EDDIAG:  cpu time      0.3914: real time      0.3937
  RMM-DIIS:  cpu time      1.9574: real time      1.9746
    ORTHCH:  cpu time      0.0699: real time      0.0706
       DOS:  cpu time      0.0005: real time      0.0006
    CHARGE:  cpu time      0.0767: real time      0.0802
    MIXING:  cpu time      0.0013: real time      0.0013
    --------------------------------------------
      LOOP:  cpu time      2.9750: real time      3.0024

 eigenvalue-minimisations  :  3437
 total energy-change (2. order) :-0.3099113E+02  (-0.4140327E+01)
 number of electron     240.0000124 magnetization       4.1021246
 augmentation part        1.9326752 magnetization       4.4508543

 Broyden mixing:
  rms(total) = 0.22444E+01    rms(broyden)= 0.22444E+01
  rms(prec ) = 0.22926E+01
  weight for this iteration     100.00

 eigenvalues of (default mixing * dielectric matrix)
  average eigenvalue GAMMA=   0.9496
  1.2515  0.6477

 Free energy of the ion-electron system (eV)
  ---------------------------------------------------
  alpha Z        PSCENC =       269.56312086
  Ewald energy   TEWEN  =     -8278.93202936
  -Hartree energ DENC   =     -2501.67994594
  -exchange      EXHF   =         0.00000000
  -V(xc)+E(xc)   XCENC  =       534.90339705
  PAW double counting   =      9371.95635475    -9512.68316679
  entropy T*S    EENTRO =        -0.00000000
  eigenvalues    EBANDS =     -2840.08122628
  atomic energy  EATOM  =     12703.13999606
  Solvation  Ediel_sol  =         0.00000000
  ---------------------------------------------------
  free energy    TOTEN  =      -253.81349966 eV

  energy without entropy =     -253.81349966  energy(sigma->0) =     -253.81349966


--------------------------------------------------------------------------------------------------------




--------------------------------------- Iteration      1(  13)  ---------------------------------------


    POTLOK:  cpu time      0.0678: real time      0.0697
    SETDIJ:  cpu time      0.4079: real time      0.4097
    EDDIAG:  cpu time      0.3916: real time      0.3992
  RMM-DIIS:  cpu time      1.6639: real time      1.6786
    ORTHCH:  cpu time      0.0702: real time      0.0711
       DOS:  cpu time      0.0005: real time      0.0005
    CHARGE:  cpu time      0.0773: real time      0.0808
    MIXING:  cpu time      0.0013: real time      0.0013
    --------------------------------------------
      LOOP:  cpu time      2.6805: real time      2.7110

 eigenvalue-minimisations  :  2958
 total energy-change (2. order) :-0.1972605E+01  (-0.6326472E+00)
 number of electron     240.0000124 magnetization      -1.9276462
 augmentation part        1.9823851 magnetization      -1.7899776

 Broyden mixing:
  rms(total) = 0.96320E+00    rms(broyden)= 0.96320E+00
  rms(prec ) = 0.99082E+00
  weight for this iteration     100.00

 eigenvalues of (default mixing * dielectric matrix)
  average eigenvalue GAMMA=   1.3307
  2.6190  0.7294  0.6437

 Free energy of the ion-electron system (eV)
  ---------------------------------------------------
  alpha Z        PSCENC =       269.56312086
  Ewald energy   TEWEN  =     -8278.93202936
  -Hartree energ DENC   =     -2525.47047274
  -exchange      EXHF   =         0.00000000
  -V(xc)+E(xc)   XCENC  =       535.05890314
  PAW double counting   =      9765.29113604    -9909.43198439
  entropy T*S    EENTRO =        -0.00000000
  eigenvalues    EBANDS =     -2815.00477471
  atomic energy  EATOM  =     12703.13999606
  Solvation  Ediel_sol  =         0.00000000
  ---------------------------------------------------
  free energy    TOTEN  =      -255.78610510 eV

  energy without entropy =     -255.78610510  energy(sigma->0) =     -255.78610510


--------------------------------------------------------------------------------------------------------




--------------------------------------- Iteration      1(  14)  ---------------------------------------


    POTLOK:  cpu time      0.0676: real time      0.0715
    SETDIJ:  cpu time      0.4190: real time      0.4208
    EDDIAG:  cpu time      0.3912: real time      0.3943
  RMM-DIIS:  cpu time      1.9458: real time      1.9650
    ORTHCH:  cpu time      0.0693: real time      0.0698
       DOS:  cpu time      0.0005: real time      0.0005
    CHARGE:  cpu time      0.0770: real time      0.0794
    MIXING:  cpu time      0.0014: real time      0.0014
    --------------------------------------------
      LOOP:  cpu time      2.9717: real time      3.0027

 eigenvalue-minimisations  :  3414
 total energy-change (2. order) :-0.3171692E+00  (-0.2427949E+00)
 number of electron     240.0000124 magnetization      -1.1467028
 augmentation part        1.9553156 magnetization      -1.1181958

 Broyden mixing:
  rms(total) = 0.32366E+00    rms(broyden)= 0.32366E+00
  rms(prec ) = 0.35226E+00
  weight for this iteration     100.00

 eigenvalues of (default mixing * dielectric matrix)
  average eigenvalue GAMMA=   1.2803
  2.7132  1.1060  0.6947  0.6071

 Free energy of the ion-electron system (eV)
  ---------------------------------------------------
  alpha Z        PSCENC =       269.56312086
  Ewald energy   TEWEN  =     -8278.93202936
  -Hartree energ DENC   =     -2534.71618760
  -exchange      EXHF   =         0.00000000
  -V(xc)+E(xc)   XCENC  =       536.29581858
  PAW double counting   =      9934.01435996   -10079.68406082
  entropy T*S    EENTRO =        -0.00000000
  eigenvalues    EBANDS =     -2805.78429194
  atomic energy  EATOM  =     12703.13999606
  Solvation  Ediel_sol  =         0.00000000
  ---------------------------------------------------
  free energy    TOTEN  =      -256.10327427 eV

  energy without entropy =     -256.10327427  energy(sigma->0) =     -256.10327427


--------------------------------------------------------------------------------------------------------




--------------------------------------- Iteration      1(  15)  ---------------------------------------


    POTLOK:  cpu time      0.0674: real time      0.0689
    SETDIJ:  cpu time      0.4075: real time      0.4093
    EDDIAG:  cpu time      0.3896: real time      0.3917
  RMM-DIIS:  cpu time      1.8922: real time      1.9092
    ORTHCH:  cpu time      0.0681: real time      0.0685
       DOS:  cpu time      0.0005: real time      0.0005
    CHARGE:  cpu time      0.0768: real time      0.0789
    MIXING:  cpu time      0.0016: real time      0.0016
    --------------------------------------------
      LOOP:  cpu time      2.9038: real time      2.9287

 eigenvalue-minimisations  :  3369
 total energy-change (2. order) : 0.7249866E-03  (-0.4613336E-01)
 number of electron     240.0000124 magnetization      -0.2921526
 augmentation part        1.8979774 magnetization      -0.2699344

 Broyden mixing:
  rms(total) = 0.71858E-01    rms(broyden)= 0.71856E-01
  rms(prec ) = 0.86730E-01
  weight for this iteration     100.00

 eigenvalues of (default mixing * dielectric matrix)
  average eigenvalue GAMMA=   1.2961
  2.5735  1.6913  0.9067  0.6904  0.6185

 Free energy of the ion-electron system (eV)
  ---------------------------------------------------
  alpha Z        PSCENC =       269.56312086
  Ewald energy   TEWEN  =     -8278.93202936
  -Hartree energ DENC   =     -2530.47121172
  -exchange      EXHF   =         0.00000000
  -V(xc)+E(xc)   XCENC  =       535.88825759
  PAW double counting   =      9895.03772503   -10040.35280050
  entropy T*S    EENTRO =        -0.00000000
  eigenvalues    EBANDS =     -2809.97560723
  atomic energy  EATOM  =     12703.13999606
  Solvation  Ediel_sol  =         0.00000000
  ---------------------------------------------------
  free energy    TOTEN  =      -256.10254928 eV

  energy without entropy =     -256.10254928  energy(sigma->0) =     -256.10254928


--------------------------------------------------------------------------------------------------------




--------------------------------------- Iteration      1(  16)  ---------------------------------------


    POTLOK:  cpu time      0.0677: real time      0.0693
    SETDIJ:  cpu time      0.4077: real time      0.4103
    EDDIAG:  cpu time      0.3904: real time      0.3933
  RMM-DIIS:  cpu time      1.8856: real time      1.9021
    ORTHCH:  cpu time      0.0688: real time      0.0692
       DOS:  cpu time      0.0005: real time      0.0005
    CHARGE:  cpu time      0.0768: real time      0.0791
    MIXING:  cpu time      0.0015: real time      0.0015
    --------------------------------------------
      LOOP:  cpu time      2.8988: real time      2.9252

[...]
  0.000  -0.000  -0.000   0.003  -0.002  -0.000   0.000  -0.000  -0.000   0.000  -0.000  -0.000  -0.000  -0.000
  0.000  -0.000  -0.000  -0.002   0.003   0.000  -0.000   0.000   0.000  -0.000   0.000   0.000   0.000   0.000
 -0.002   0.002   0.000  -0.000   0.000   0.007  -0.000   0.000   0.000   0.000  -0.000   0.000   0.000  -0.000
 -0.000   0.000   0.000   0.006  -0.007   0.000   0.000  -0.000   0.000   0.000  -0.000   0.000  -0.000  -0.000
 -0.034   0.034   0.000  -0.000   0.000  -0.006  -0.000   0.000  -0.000  -0.000   0.000  -0.000  -0.000   0.000
 -0.019   0.019   0.000  -0.000   0.000   0.006  -0.000   0.000   0.000   0.000  -0.000   0.000   0.000  -0.000
  0.000  -0.000  -0.000  -0.007   0.006   0.000  -0.000   0.000   0.000  -0.000  -0.000   0.000   0.000   0.000
  0.033  -0.033  -0.000  -0.000   0.000  -0.011  -0.000   0.000  -0.000  -0.000   0.000  -0.000   0.000   0.000
 total augmentation occupancy for first ion, spin component:           2
 -0.000   0.000   0.000   0.000   0.000  -0.000   0.000  -0.000   0.000   0.000  -0.000   0.000  -0.000   0.000
  0.000  -0.000  -0.000   0.000  -0.000   0.000  -0.000  -0.000  -0.000   0.000   0.000  -0.000   0.000  -0.000
  0.000  -0.000  -0.000   0.000  -0.000  -0.000   0.000  -0.000  -0.000   0.000  -0.000  -0.000  -0.000   0.000
  0.000   0.000   0.000   0.000  -0.000   0.000  -0.000  -0.000  -0.000   0.000  -0.000  -0.000  -0.000  -0.000
  0.000  -0.000  -0.000  -0.000  -0.000  -0.000  -0.000  -0.000  -0.000  -0.000  -0.000   0.000  -0.000  -0.000
 -0.000   0.000  -0.000   0.000  -0.000   0.000  -0.000  -0.000  -0.000   0.000   0.000   0.000  -0.000  -0.000
  0.000  -0.000   0.000  -0.000  -0.000  -0.000  -0.000   0.000  -0.000  -0.000  -0.000  -0.000   0.000   0.000
 -0.000  -0.000  -0.000  -0.000  -0.000  -0.000   0.000  -0.000  -0.000   0.000  -0.000  -0.000   0.000   0.000
  0.000  -0.000  -0.000  -0.000  -0.000  -0.000  -0.000  -0.000  -0.000  -0.000  -0.000  -0.000   0.000   0.000
  0.000   0.000   0.000   0.000  -0.000   0.000  -0.000   0.000  -0.000   0.000   0.000   0.000  -0.000   0.000
 -0.000   0.000  -0.000  -0.000  -0.000   0.000  -0.000  -0.000  -0.000   0.000  -0.000  -0.000   0.000   0.000
  0.000  -0.000  -0.000  -0.000   0.000   0.000  -0.000  -0.000  -0.000   0.000  -0.000  -0.000   0.000   0.000
 -0.000   0.000  -0.000  -0.000  -0.000  -0.000   0.000   0.000   0.000  -0.000   0.000   0.000   0.000  -0.000
  0.000  -0.000   0.000  -0.000  -0.000  -0.000   0.000   0.000   0.000   0.000   0.000   0.000  -0.000   0.000


------------------------ aborting loop because EDIFF is reached ----------------------------------------


    CHARGE:  cpu time      0.0770: real time      0.0780
    FORLOC:  cpu time      0.0052: real time      0.0052
    FORNL :  cpu time      0.4642: real time      0.4674
    STRESS:  cpu time      1.4010: real time      1.4098
    FORCOR:  cpu time      0.0654: real time      0.0659
    FORHAR:  cpu time      0.0111: real time      0.0111
    MIXING:  cpu time      0.0010: real time      0.0010
    OFIELD:  cpu time      0.0000: real time      0.0000

 ---------------------------------------------------------------------------------------------

         DFTD3 V3.0 Rev 1        
 Edisp (eV)  -12.09676

 E6    (eV) :    -7.4490
 E8    (eV) :    -4.6477
 % E8        : 38.42
    FORVDW:  cpu time      0.2864: real time      0.2883

  FORCE on cell =-STRESS in cart. coord.  units (eV):
  Direction    XX          YY          ZZ          XY          YZ          ZX
  --------------------------------------------------------------------------------------
  Alpha Z   269.56312   269.56312   269.56312
  Ewald   -2759.43730 -2759.64211 -2759.61613     0.40435     0.48768     0.52713
  Hartree   844.03712   843.92170   843.93214     0.24053     0.26489     0.31589
  E(xc)    -946.88957  -946.88959  -946.88949    -0.00056    -0.00024    -0.00045
  Local   -1760.28615 -1759.94503 -1759.97834    -0.65847    -0.75889    -0.86148
  n-local  1481.14048  1481.12657  1481.12508     0.02564     0.02832     0.02968
  augment  -356.06630  -356.06227  -356.06197    -0.00437    -0.00368    -0.00474
  Kinetic  3240.61133  3240.56966  3240.56480     0.02880     0.01606     0.03156
  Fock        0.00000     0.00000     0.00000     0.00000     0.00000     0.00000
  vdW       -12.84950   -12.84956   -12.84954    -0.00005    -0.00002    -0.00002
  -------------------------------------------------------------------------------------
  Total      -0.17677    -0.20749    -0.21032     0.03586     0.03412     0.03756
  in kB      -0.28124    -0.33012    -0.33463     0.05705     0.05428     0.05976
  external pressure =       -0.32 kB  Pullay stress =        0.00 kB


 VOLUME and BASIS-vectors are now :
 -----------------------------------------------------------------------------
  energy-cutoff  :      520.00
  volume of cell :     1007.03
      direct lattice vectors                 reciprocal lattice vectors
    10.023370685  0.000000000  0.000000000     0.099766838  0.000000000  0.000000000
     0.000000000 10.023370685  0.000000000     0.000000000  0.099766838  0.000000000
     0.000000000  0.000000000 10.023370685     0.000000000  0.000000000  0.099766838

  length of vectors
    10.023370685 10.023370685 10.023370685     0.099766838  0.099766838  0.099766838


 FORCES acting on ions
    electron-ion (+dipol)            ewald-force                    non-local-force                 convergence-correction
 -----------------------------------------------------------------------------------------------
   -.679E+01 0.703E-01 0.456E-01   0.609E+01 -.586E-01 -.416E-01   0.693E+00 -.108E-01 -.486E-02   0.356E-03 0.402E-03 0.299E-03
   -.684E+01 0.266E+00 0.187E+00   0.614E+01 -.257E+00 -.181E+00   0.691E+00 -.138E-01 -.934E-02   0.571E-03 0.963E-03 0.113E-02
   0.678E+01 -.818E-01 0.774E-01   -.608E+01 0.783E-01 -.783E-01   -.693E+00 0.307E-02 0.838E-03   -.123E-03 0.456E-03 -.196E-03
   0.680E+01 -.226E-01 -.112E-01   -.610E+01 0.192E-01 0.108E-01   -.691E+00 0.185E-02 0.230E-02   0.147E-04 0.982E-03 -.604E-03
   0.771E-01 0.722E-01 -.680E+01   -.707E-01 -.661E-01 0.610E+01   -.513E-02 -.557E-02 0.692E+00   -.120E-03 -.500E-03 -.290E-03
   -.624E-01 -.384E-01 0.683E+01   0.610E-01 0.322E-01 -.613E+01   0.210E-02 0.557E-02 -.691E+00   0.507E-03 0.608E-03 0.598E-03
   0.103E+00 -.192E+00 0.679E+01   -.101E+00 0.181E+00 -.609E+01   -.525E-02 0.135E-01 -.690E+00   0.126E-02 -.298E-03 0.464E-03
   0.201E+00 0.226E+00 -.673E+01   -.198E+00 -.221E+00 0.603E+01   -.470E-02 -.639E-02 0.685E+00   0.990E-04 -.170E-03 0.322E-03
   0.874E-01 -.673E+01 0.100E+00   -.780E-01 0.603E+01 -.914E-01   -.520E-02 0.687E+00 -.517E-02   -.137E-02 0.407E-03 -.193E-02
   -.735E-01 0.679E+01 -.119E-01   0.723E-01 -.610E+01 0.130E-01   0.138E-02 -.691E+00 -.254E-03   0.667E-03 0.614E-03 0.458E-03
   -.352E+00 -.681E+01 -.364E+00   0.321E+00 0.612E+01 0.331E+00   0.361E-01 0.690E+00 0.379E-01   -.252E-02 0.399E-04 -.252E-02
   -.988E-01 0.680E+01 -.368E-01   0.923E-01 -.611E+01 0.382E-01   0.719E-02 -.691E+00 -.186E-02   0.353E-03 0.588E-03 0.100E-02
   0.528E-01 0.703E-01 -.680E+01   -.469E-01 -.676E-01 0.610E+01   -.606E-02 -.362E-02 0.688E+00   0.216E-03 0.505E-04 0.217E-03
   0.353E-02 -.491E-01 0.671E+01   -.110E-03 0.480E-01 -.602E+01   -.282E-02 0.220E-02 -.686E+00   0.633E-03 0.307E-03 0.177E-03
   0.160E+00 -.166E+00 0.678E+01   -.152E+00 0.164E+00 -.608E+01   -.110E-01 0.666E-02 -.690E+00   0.119E-02 -.161E-03 0.623E-03
   0.926E-01 0.117E+00 -.685E+01   -.852E-01 -.112E+00 0.616E+01   -.740E-02 -.576E-02 0.692E+00   0.560E-03 0.584E-04 0.321E-03
   -.121E+00 -.683E+01 -.491E-01   0.119E+00 0.614E+01 0.505E-01   0.405E-02 0.691E+00 -.409E-03   0.747E-03 0.379E-03 0.365E-03
   -.208E-01 0.679E+01 0.129E-01   0.189E-01 -.609E+01 -.152E-01   0.204E-02 -.691E+00 0.279E-02   0.162E-03 0.751E-03 0.218E-03
   -.154E-01 -.683E+01 -.647E-01   0.184E-01 0.613E+01 0.697E-01   -.303E-02 0.691E+00 -.515E-02   0.902E-03 0.505E-03 0.640E-03
   0.357E-01 0.669E+01 0.517E-01   -.405E-01 -.600E+01 -.519E-01   0.579E-02 -.685E+00 0.644E-03   -.830E-06 0.362E-03 0.383E-03
   -.682E+01 0.601E-01 0.122E+00   0.612E+01 -.606E-01 -.117E+00   0.691E+00 0.147E-02 -.367E-02   0.509E-03 -.337E-03 -.420E-03
   -.680E+01 0.802E-01 0.123E+00   0.610E+01 -.782E-01 -.115E+00   0.691E+00 -.175E-02 -.778E-02   0.597E-03 -.299E-03 -.749E-03
   0.682E+01 0.367E-01 -.137E+00   -.612E+01 -.381E-01 0.131E+00   -.693E+00 0.472E-03 0.621E-02   -.239E-03 -.481E-03 0.868E-03
   0.675E+01 -.279E+00 0.224E+00   -.605E+01 0.266E+00 -.211E+00   -.688E+00 0.216E-01 -.215E-01   0.252E-03 -.185E-02 0.283E-02
   -.910E-01 -.935E-01 -.130E+00   0.870E-01 0.883E-01 0.127E+00   0.415E-02 0.654E-02 0.354E-02   0.214E-03 -.182E-03 0.372E-03
   0.325E-01 0.459E-01 0.781E-01   -.339E-01 -.472E-01 -.775E-01   0.388E-02 0.292E-02 0.477E-03   -.399E-03 -.379E-03 -.135E-03
   -.119E+00 -.873E-01 -.685E-01   0.112E+00 0.826E-01 0.661E-01   0.793E-02 0.530E-02 0.273E-02   0.137E-03 0.179E-03 0.209E-03
   0.679E-01 -.393E-01 -.355E-01   -.659E-01 0.403E-01 0.302E-01   -.200E-04 -.792E-03 0.631E-02   -.243E-03 0.286E-03 -.261E-03
   -.451E+02 0.450E+02 -.451E+02   0.484E+02 -.483E+02 0.484E+02   -.330E+01 0.330E+01 -.330E+01   -.557E-04 0.171E-03 0.164E-03
   -.450E+02 -.451E+02 0.451E+02   0.483E+02 0.483E+02 -.484E+02   -.330E+01 -.329E+01 0.329E+01   -.490E-03 0.593E-04 -.356E-03
   0.451E+02 0.451E+02 0.450E+02   -.484E+02 -.484E+02 -.483E+02   0.329E+01 0.329E+01 0.330E+01   -.222E-03 0.217E-03 -.145E-03
   0.454E+02 -.452E+02 -.446E+02   -.487E+02 0.485E+02 0.479E+02   0.330E+01 -.331E+01 -.328E+01   -.742E-03 0.499E-04 -.821E-03
   0.450E+02 -.451E+02 -.451E+02   -.483E+02 0.484E+02 0.484E+02   0.330E+01 -.330E+01 -.329E+01   0.128E-03 -.252E-04 -.281E-04
   0.451E+02 0.450E+02 0.452E+02   -.484E+02 -.483E+02 -.485E+02   0.329E+01 0.329E+01 0.329E+01   0.553E-04 0.231E-04 -.171E-03
   -.452E+02 -.451E+02 0.450E+02   0.484E+02 0.484E+02 -.483E+02   -.329E+01 -.330E+01 0.330E+01   0.342E-03 0.170E-03 0.409E-03
   -.450E+02 0.450E+02 -.451E+02   0.483E+02 -.483E+02 0.484E+02   -.329E+01 0.330E+01 -.331E+01   -.120E-03 -.108E-03 -.254E-04
   -.447E+02 -.449E+02 0.455E+02   0.480E+02 0.482E+02 -.488E+02   -.329E+01 -.330E+01 0.331E+01   -.532E-03 -.424E-03 -.917E-03
   -.449E+02 0.452E+02 -.450E+02   0.482E+02 -.485E+02 0.483E+02   -.330E+01 0.330E+01 -.329E+01   -.357E-03 -.446E-03 -.195E-03
   0.452E+02 -.449E+02 -.450E+02   -.485E+02 0.482E+02 0.483E+02   0.329E+01 -.329E+01 -.331E+01   -.840E-03 -.536E-03 -.380E-03
   0.450E+02 0.453E+02 0.450E+02   -.483E+02 -.486E+02 -.483E+02   0.329E+01 0.330E+01 0.329E+01   -.200E-03 -.421E-03 0.498E-03
   -.452E+02 -.450E+02 0.450E+02   0.485E+02 0.483E+02 -.483E+02   -.330E+01 -.329E+01 0.330E+01   0.414E-03 -.299E-03 0.789E-05
   -.451E+02 0.451E+02 -.451E+02   0.484E+02 -.484E+02 0.483E+02   -.329E+01 0.329E+01 -.330E+01   -.121E-04 -.200E-03 -.239E-03
   0.449E+02 -.449E+02 -.453E+02   -.482E+02 0.482E+02 0.486E+02   0.329E+01 -.329E+01 -.330E+01   0.193E-03 -.645E-03 0.552E-03
   0.451E+02 0.451E+02 0.449E+02   -.484E+02 -.484E+02 -.482E+02   0.329E+01 0.330E+01 0.328E+01   -.179E-03 -.345E-03 0.165E-03
   0.368E+00 0.101E+00 0.170E+00   -.375E+00 -.999E-01 -.176E+00   0.776E-02 -.211E-02 0.801E-02   -.595E-03 -.420E-03 0.225E-03
   -.162E+00 -.927E-02 -.229E+00   0.164E+00 0.824E-02 0.228E+00   -.225E-02 0.211E-02 0.144E-02   0.638E-03 -.622E-04 0.782E-03
   -.152E-01 0.206E-01 0.149E+00   0.168E-01 -.251E-01 -.148E+00   -.128E-02 0.654E-02 -.101E-03   -.298E-03 0.420E-03 -.970E-03
   -.850E-01 0.244E-01 -.341E-02   0.853E-01 -.265E-01 0.852E-02   -.549E-03 0.311E-02 -.725E-02   0.222E-03 -.292E-04 -.253E-03
   -.541E+00 0.195E+00 -.450E+00   0.555E+00 -.200E+00 0.463E+00   -.190E-01 0.729E-02 -.192E-01   0.231E-02 -.568E-03 0.229E-02
   0.274E+00 0.919E-01 -.206E-01   -.284E+00 -.101E+00 0.128E-01   0.138E-01 0.132E-01 0.103E-01   -.957E-03 -.101E-02 -.358E-03
   -.411E+00 -.193E+00 -.565E+00   0.419E+00 0.201E+00 0.573E+00   -.121E-01 -.124E-01 -.111E-01   0.134E-02 0.199E-02 0.112E-02
   0.978E-01 -.786E+00 0.393E+00   -.103E+00 0.800E+00 -.406E+00   0.670E-02 -.211E-01 0.181E-01   -.465E-03 0.263E-02 -.103E-02
 -----------------------------------------------------------------------------------------------
   -.662E-02 -.123E-01 0.258E-02   0.389E-13 -.533E-14 0.107E-13   -.257E-02 0.527E-02 -.159E-01   0.451E-02 0.347E-02 0.472E-02
 
 
 POSITION                                       TOTAL-FORCE (eV/Angst)
 -----------------------------------------------------------------------------------
      9.78968      2.50187      2.50430         0.001449      0.001425     -0.000428
      9.79082      7.51244      7.51208         0.002258     -0.003082     -0.002819
      0.23269      2.50780      7.51842        -0.000483      0.000154     -0.000170
      0.23244      7.51583      2.50641         0.000217     -0.000444      0.001438
      2.50437      2.50402      9.79349         0.001146      0.000086     -0.001864
      2.50558      7.51699      0.23189         0.001218      0.000142      0.002340
      7.51190      2.51156      0.23218        -0.002096      0.002796      0.001262
      7.51600      7.51582      9.78850        -0.000762     -0.002240      0.001497
      2.50663      9.78815      2.50674         0.002805      0.001594      0.001730
      2.50569      0.23201      7.51866         0.000820      0.002381      0.001408
      7.53727      9.79304      7.53454         0.002406     -0.000203      0.002315
      7.51937      0.23183      2.50284         0.001071      0.002154      0.000552
      2.50398      7.51518      4.77840         0.000143     -0.000791      0.001303
      2.50478      2.50580      5.24661         0.001326      0.001525      0.000051
      7.51379      7.52334      5.24193        -0.001556      0.004663      0.002598
      7.51436      2.50444      4.77855         0.000706     -0.001177      0.000894
      2.50751      4.77854      7.51994         0.002675      0.001456      0.001474
      2.50508      5.24163      2.50735         0.000429      0.002680      0.000867
      7.51532      4.77827      2.50373         0.001063      0.001953      0.000756
      7.51842      5.24639      7.51544         0.001027      0.001222      0.001101
      4.77863      2.50721      7.51893         0.001954      0.000525      0.001230
      4.77824      7.51565      2.50379         0.002662     -0.000017      0.000009
      5.24383      2.50445      2.50860        -0.001051     -0.001353      0.001163
      5.24497      7.52942      7.50745         0.001223      0.006639     -0.004942
      5.01186      5.01220      5.01283         0.000390      0.001299      0.000704
      5.01229     -0.00006      0.00057         0.002323      0.001379      0.001169
     10.02266      5.01236      0.00047         0.000915      0.000796      0.000672
      0.00129      0.00090      5.01145         0.001871      0.000466      0.000962
      1.18436      8.83980      6.19570        -0.001419      0.001673     -0.000531
      1.18609      1.18387      3.82728        -0.003004     -0.001177      0.001779
      8.84157      8.84083      3.82703        -0.005350     -0.002962     -0.002282
      8.84107      1.18615      6.19412        -0.001991     -0.002791     -0.000330
      8.83834      6.19677      1.18369         0.001461     -0.003562     -0.001444
      8.83859      3.82980      8.83945        -0.002942     -0.004535     -0.002876
      1.18355      6.19570      8.83967         0.000230     -0.001457      0.001449
      1.18163      3.82765      1.18483         0.001255      0.000627     -0.001954
      6.19529      1.18402      8.83932        -0.001355     -0.003408      0.000178
      6.19653      8.83829      1.18322        -0.002452      0.001314     -0.001269
      3.82848      1.18249      1.18567        -0.001634     -0.000683     -0.003339
      3.82845      8.83944      8.84055        -0.005400     -0.004058     -0.002727
      6.19515      6.19538      3.82764         0.000424     -0.000742      0.002023
      6.19607      3.82859      6.19680        -0.000907     -0.000013     -0.001929
      3.82818      6.19640      6.19697         0.001440     -0.003115     -0.001897
      3.82800      3.82729      3.83080        -0.003892     -0.003049     -0.004562
      7.51788      7.51959      7.51542         0.000249     -0.001122      0.001975
      7.51691      2.50500      2.50544         0.000378      0.001067      0.001304
      2.50518      7.51503      2.50487         0.000154      0.002487      0.000243
      2.50565      2.50522      7.51994        -0.000066      0.001033     -0.002199
     10.01940      0.00168     10.01925        -0.003255      0.001740     -0.003258
      0.00160      5.01194      5.01052         0.002963      0.002566      0.002221
      5.00919     10.02178      5.00705        -0.002305     -0.001999     -0.002006
      5.01101      5.00450      0.00295         0.001272     -0.003863      0.004160
 -----------------------------------------------------------------------------------
    total drift:                               -0.004688     -0.003551     -0.008572


--------------------------------------------------------------------------------------------------------



  FREE ENERGIE OF THE ION-ELECTRON SYSTEM (eV)
  ---------------------------------------------------
  free  energy   TOTEN  =      -268.23215398 eV

  energy  without entropy=     -268.23215398  energy(sigma->0) =     -268.23215398
 
 d Force = 0.1423099E-04[ 0.642E-05, 0.220E-04]  d Energy = 0.1803114E-04-0.380E-05
 d Force = 0.8012565E-04[ 0.766E-04, 0.837E-04]  d Ewald  = 0.8012578E-04-0.129E-09


--------------------------------------------------------------------------------------------------------


    POTLOK:  cpu time      0.4685: real time      0.4702


--------------------------------------------------------------------------------------------------------


 stress matrix after NEB project (eV)
     -0.17677      0.03586      0.03756
      0.03586     -0.20749      0.03412
      0.03756      0.03412     -0.21032
  FORCES: max atom, RMS     0.008366    0.003630
  FORCE total and by dimension    0.026175    0.006639
  Stress total and by dimension    0.355328    0.210325
 Quasi-Newton relaxation of ions (Broydens 2nd method)
  g(Force)  = 0.331E-04   g(Stress)= 0.000E+00

 retain information from N=  2 steps
 eigenvalues of (default step * inverse Hessian matrix)
  average eigenvalue of G=   2.4863
 eigenvalue spectrum of G is  3.8542  1.1184


--------------------------------------------------------------------------------------------------------


  
 reached required accuracy - stopping structural energy minimisation
     LOOP+:  cpu time     10.2264: real time     10.3341
    4ORBIT:  cpu time      0.0000: real time      0.0000

 total amount of memory used by VASP MPI-rank0    51663. kBytes
=======================================================================

   base      :      30000. kBytes
   nonlr-proj:       7917. kBytes
   fftplans  :       2173. kBytes
   grid      :       6510. kBytes
   one-center:         62. kBytes
   wavefun   :       5001. kBytes
 
  
  
 General timing and accounting informations for this job:
 ========================================================
  
                  Total CPU time used (sec):      160.780
                            User time (sec):      159.433
                          System time (sec):        1.347
                         Elapsed time (sec):      165.665
  
                   Maximum memory used (kb):      423268.
                   Average memory used (kb):          N/A
  
                          Minor page faults:        65865
                          Major page faults:          120
                 Voluntary context switches:         4692
