<?xml version="1.0" encoding="ISO-8859-1"?>
<modeling>
 <generator>
  <i name="program" type="string">vasp </i>
  <i name="version" type="string">6.4.1  </i>
  <i name="subversion" type="string">05Apr23 (build Jun 07 2023 15:38:11) complex                          parallel </i>
  <i name="platform" type="string">LinuxIFC </i>
  <i name="date" type="string">2023 10 16 </i>
  <i name="time" type="string">22:39:38 </i>
 </generator>
 <incar>
  <i type="string" name="PREC">Accu</i>
  <i type="string" name="ALGO">F</i>
  <i type="logical" name="LDIAG"> T  </i>
  <i type="int" name="ISPIN">     2</i>
  <i type="int" name="NELM">   100</i>
  <i type="int" name="NELMDL">   -10</i>
  <i type="int" name="IBRION">     2</i>
  <i name="EDIFF">      0.00000100</i>
  <i name="EDIFFG">     -0.00100000</i>
  <i type="int" name="NSW">  1000</i>
  <i type="int" name="ISIF">     2</i>
  <i name="ENCUT">    520.00000000</i>
  <i name="POTIM">      0.20000000</i>
  <i type="string" name="LREAL">Auto</i>
  <i type="logical" name="LPLANE"> T  </i>
  <i type="int" name="ISMEAR">     0</i>
  <i name="SIGMA">      0.03000000</i>
  <i type="int" name="LMAXMIX">     4</i>
  <i type="logical" name="LWAVE"> F  </i>
  <i type="logical" name="LCHARG"> F  </i>
  <i type="logical" name="LASPH"> T  </i>
  <i type="string" name="GGA">PE</i>
  <i type="int" name="IVDW">    12</i>
 </incar>
 <primitive_cell>
  <structure name="primitive_cell" >
   <crystal>
    <varray name="basis" >
     <v>       9.67703940       0.00000000       0.00000000 </v>
     <v>       0.00000000       9.67703940       0.00000000 </v>
     <v>       0.00000000       0.00000000       9.67703940 </v>
    </varray>
    <i name="volume">    906.20724153 </i>
    <varray name="rec_basis" >
     <v>       0.10333739       0.00000000       0.00000000 </v>
     <v>       0.00000000       0.10333739       0.00000000 </v>
     <v>       0.00000000       0.00000000       0.10333739 </v>
    </varray>
   </crystal>
   <varray name="positions" >
    <v>       0.98217370       0.20006953       0.17915108 </v>
    <v>       0.98314798       0.72770012       0.71354003 </v>
    <v>       0.03270869       0.17657186       0.81045678 </v>
    <v>       0.02652575       0.68745919       0.29182324 </v>
    <v>       0.27414224       0.27942506       0.98455731 </v>
    <v>       0.17274996       0.85409053       0.04605961 </v>
    <v>       0.71203605       0.29839533       0.01540055 </v>
    <v>       0.66560184       0.65529031       0.96381335 </v>
    <v>       0.29751652       0.98441851       0.33621875 </v>
    <v>       0.33048336       0.04668517       0.68309578 </v>
    <v>       0.80392015       0.95793378       0.83013170 </v>
    <v>       0.79712643       0.00257302       0.17728147 </v>
    <v>       0.22343145       0.69878688       0.48619729 </v>
    <v>       0.17197144       0.31991430       0.52361956 </v>
    <v>       0.71337115       0.79905591       0.52147844 </v>
    <v>       0.68057485       0.15133471       0.46248225 </v>
    <v>       0.20541360       0.49164180       0.73859351 </v>
    <v>       0.32245255       0.54742991       0.17449728 </v>
    <v>       0.81406838       0.44704597       0.31809277 </v>
    <v>       0.80406229       0.51277514       0.67496381 </v>
    <v>       0.47861552       0.32289784       0.79212598 </v>
    <v>       0.48588352       0.79070577       0.29910088 </v>
    <v>       0.52231361       0.29278812       0.21491700 </v>
    <v>       0.52298649       0.80668701       0.71434470 </v>
    <v>       0.50271635       0.49262461       0.49995759 </v>
    <v>       0.49127114       0.99660468       0.99827884 </v>
    <v>       0.99559614       0.50832213       0.00441959 </v>
    <v>       0.99991019       0.00239389       0.49947714 </v>
    <v>       0.13627793       0.89282529       0.61993532 </v>
    <v>       0.11245200       0.13493806       0.37860658 </v>
    <v>       0.88680485       0.87463381       0.37299040 </v>
    <v>       0.86981174       0.10886331       0.62750865 </v>
    <v>       0.85699290       0.61023906       0.12682100 </v>
    <v>       0.89271161       0.38036393       0.86968205 </v>
    <v>       0.11951279       0.64582531       0.90162450 </v>
    <v>       0.12047428       0.39659235       0.13567414 </v>
    <v>       0.61110847       0.11711662       0.87080847 </v>
    <v>       0.61587370       0.86087676       0.10367782 </v>
    <v>       0.37489900       0.11252470       0.13300571 </v>
    <v>       0.35877813       0.88625062       0.87649122 </v>
    <v>       0.63026423       0.61058380       0.37809616 </v>
    <v>       0.62817621       0.35636165       0.60291500 </v>
    <v>       0.39491925       0.61229419       0.63892588 </v>
    <v>       0.36542892       0.38954702       0.37707875 </v>
    <v>       0.74885415       0.73691051       0.74935276 </v>
    <v>       0.75063147       0.22994997       0.24267166 </v>
    <v>       0.25232707       0.76081936       0.25792699 </v>
    <v>       0.24901809       0.26129489       0.74845801 </v>
    <v>       0.98410087       0.01807185       0.00260753 </v>
    <v>       0.02012074       0.53197817       0.52185038 </v>
    <v>       0.50578312       0.96439964       0.49953446 </v>
    <v>       0.50190714       0.45511805       0.00968027 </v>
   </varray>
  </structure>
  <varray name="primitive_index" >
   <v type="int" >        1 </v>
   <v type="int" >        2 </v>
   <v type="int" >        3 </v>
   <v type="int" >        4 </v>
   <v type="int" >        5 </v>
   <v type="int" >        6 </v>
   <v type="int" >        7 </v>
   <v type="int" >        8 </v>
   <v type="int" >        9 </v>
   <v type="int" >       10 </v>
   <v type="int" >       11 </v>
   <v type="int" >       12 </v>
   <v type="int" >       13 </v>
   <v type="int" >       14 </v>
   <v type="int" >       15 </v>
   <v type="int" >       16 </v>
   <v type="int" >       17 </v>
   <v type="int" >       18 </v>
   <v type="int" >       19 </v>
   <v type="int" >       20 </v>
   <v type="int" >       21 </v>
   <v type="int" >       22 </v>
   <v type="int" >       23 </v>
   <v type="int" >       24 </v>
   <v type="int" >       25 </v>
   <v type="int" >       26 </v>
   <v type="int" >       27 </v>
   <v type="int" >       28 </v>
   <v type="int" >       29 </v>
   <v type="int" >       30 </v>
   <v type="int" >       31 </v>
   <v type="int" >       32 </v>
   <v type="int" >       33 </v>
   <v type="int" >       34 </v>
   <v type="int" >       35 </v>
   <v type="int" >       36 </v>
   <v type="int" >       37 </v>
   <v type="int" >       38 </v>
   <v type="int" >       39 </v>
   <v type="int" >       40 </v>
   <v type="int" >       41 </v>
   <v type="int" >       42 </v>
   <v type="int" >       43 </v>
   <v type="int" >       44 </v>
   <v type="int" >       45 </v>
   <v type="int" >       46 </v>
   <v type="int" >       47 </v>
   <v type="int" >       48 </v>
   <v type="int" >       49 </v>
   <v type="int" >       50 </v>
   <v type="int" >       51 </v>
   <v type="int" >       52 </v>
  </varray>
 </primitive_cell>
 <kpoints>
  <generation param="Monkhorst-Pack">
   <v type="int" name="divisions">       2        2        2 </v>
   <v name="usershift">      0.00000000       0.00000000       0.00000000 </v>
   <v name="genvec1">      0.50000000       0.00000000       0.00000000 </v>
   <v name="genvec2">      0.00000000       0.50000000       0.00000000 </v>
   <v name="genvec3">      0.00000000       0.00000000       0.50000000 </v>
   <v name="shift">      0.50000000       0.50000000       0.50000000 </v>
  </generation>
  <varray name="kpointlist" >
   <v>       0.25000000       0.25000000       0.25000000 </v>
   <v>      -0.25000000       0.25000000       0.25000000 </v>
   <v>      -0.25000000      -0.25000000       0.25000000 </v>
   <v>       0.25000000      -0.25000000       0.25000000 </v>
  </varray>
  <varray name="weights" >
   <v>       0.25000000 </v>
   <v>       0.25000000 </v>
   <v>       0.25000000 </v>
   <v>       0.25000000 </v>
  </varray>
 </kpoints>
 <parameters>
  <separator name="general" >
   <i type="string" name="SYSTEM">unknown system</i>
   <i type="logical" name="LCOMPAT"> F  </i>
  </separator>
  <separator name="electronic" >
   <i type="string" name="PREC">accu</i>
   <i name="ENMAX">    520.00000000</i>
   <i name="ENAUG">   1041.69900000</i>
   <i name="EDIFF">      0.00000100</i>
   <i type="int" name="IALGO">    68</i>
   <i type="int" name="IWAVPR">    11</i>
   <i type="int" name="NBANDS">   176</i>
   <i type="int" name="NBANDSLOW">    -1</i>
   <i type="int" name="NBANDSHIGH">    -1</i>
   <i name="NELECT">    240.00000000</i>
   <i type="int" name="TURBO">     0</i>
   <i type="int" name="IRESTART">     0</i>
   <i type="int" name="NREBOOT">     0</i>
   <i type="int" name="NMIN">     0</i>
   <i name="EREF">      0.00000000</i>
   <separator name="electronic smearing" >
    <i type="int" name="ISMEAR">     0</i>
    <i name="SIGMA">      0.03000000</i>
    <i name="KSPACING">      0.50000000</i>
    <i type="logical" name="KGAMMA"> T  </i>
    <i type="logical" name="KBLOWUP"> T  </i>
   </separator>
   <separator name="electronic projectors" >
    <i type="logical" name="LREAL"> T  </i>
    <v name="ROPT">     -0.00025000     -0.00025000     -0.00025000     -0.00025000</v>
    <i type="int" name="LMAXPAW">  -100</i>
    <i type="int" name="LMAXMIX">     4</i>
    <i type="logical" name="NLSPLINE"> F  </i>
   </separator>
   <separator name="electronic startup" >
    <i type="int" name="ISTART">     0</i>
    <i type="int" name="ICHARG">     2</i>
    <i type="int" name="INIWAV">     1</i>
   </separator>
   <separator name="electronic spin" >
    <i type="int" name="ISPIN">     2</i>
    <i type="logical" name="LNONCOLLINEAR"> F  </i>
    <v name="MAGMOM">      1.00000000      1.00000000      1.00000000      1.00000000      1.00000000      1.00000000      1.00000000      1.00000000      1.00000000      1.00000000      1.00000000      1.00000000      1.00000000      1.00000000      1.00000000      1.00000000      1.00000000      1.00000000      1.00000000      1.00000000
      1.00000000      1.00000000      1.00000000      1.00000000      1.00000000      1.00000000      1.00000000      1.00000000      1.00000000      1.00000000      1.00000000      1.00000000      1.00000000      1.00000000      1.00000000      1.00000000      1.00000000      1.00000000      1.00000000      1.00000000
      1.00000000      1.00000000      1.00000000      1.00000000      1.00000000      1.00000000      1.00000000      1.00000000      1.00000000      1.00000000      1.00000000      1.00000000</v>
    <i name="NUPDOWN">     -1.00000000</i>
    <i type="logical" name="LSORBIT"> F  </i>
    <v name="SAXIS">      0.00000000      0.00000000      1.00000000</v>
    <i type="logical" name="LSPIRAL"> F  </i>
    <v name="QSPIRAL">      0.00000000      0.00000000      0.00000000</v>
    <i type="logical" name="LZEROZ"> F  </i>
   </separator>
   <separator name="electronic exchange-correlation" >
    <i type="logical" name="LASPH"> T  </i>
    <i type="logical" name="LMETAGGA"> F  </i>
   </separator>
   <separator name="electronic convergence" >
    <i type="int" name="NELM">   100</i>
    <i type="int" name="NELMDL">   -10</i>
    <i type="int" name="NELMIN">     2</i>
    <i name="ENINI">    520.00000000</i>
    <separator name="electronic convergence detail" >
     <i type="logical" name="LDIAG"> T  </i>
     <i type="logical" name="LSUBROT"> F  </i>
     <i name="WEIMIN">      0.00100000</i>
     <i name="EBREAK">      0.00000000</i>
     <i name="DEPER">      0.30000000</i>
     <i type="int" name="NRMM">     4</i>
     <i name="TIME">      0.40000000</i>
    </separator>
   </separator>
   <separator name="electronic mixer" >
    <i name="AMIX">      0.40000000</i>
    <i name="BMIX">      1.00000000</i>
    <i name="AMIN">      0.10000000</i>
    <i name="AMIX_MAG">      1.60000000</i>
    <i name="BMIX_MAG">      1.00000000</i>
    <separator name="electronic mixer details" >
     <i type="int" name="IMIX">     4</i>
     <i type="logical" name="MIXFIRST"> F  </i>
     <i type="int" name="MAXMIX">   -45</i>
     <i name="WC">    100.00000000</i>
     <i type="int" name="INIMIX">     1</i>
     <i type="int" name="MIXPRE">     1</i>
     <i type="int" name="MREMOVE">     5</i>
    </separator>
   </separator>
   <separator name="electronic dipolcorrection" >
    <i type="logical" name="LDIPOL"> F  </i>
    <i type="logical" name="LMONO"> F  </i>
    <i type="int" name="IDIPOL">     0</i>
    <i name="EPSILON">      1.00000000</i>
    <v name="DIPOL">   -100.00000000   -100.00000000   -100.00000000</v>
    <i name="EFIELD">      0.00000000</i>
   </separator>
  </separator>
  <separator name="grids" >
   <i type="int" name="NGX">    72</i>
   <i type="int" name="NGY">    72</i>
   <i type="int" name="NGZ">    72</i>
   <i type="int" name="NGXF">   144</i>
   <i type="int" name="NGYF">   144</i>
   <i type="int" name="NGZF">   144</i>
   <i type="logical" name="ADDGRID"> F  </i>
  </separator>
  <separator name="ionic" >
   <i type="int" name="NSW">  1000</i>
   <i type="int" name="IBRION">     2</i>
   <i type="int" name="MDALGO">     0</i>
   <i type="int" name="ISIF">     2</i>
   <i name="PSTRESS">      0.00000000</i>
   <i name="EDIFFG">     -0.00100000</i>
   <i type="int" name="NFREE">     1</i>
   <i name="POTIM">      0.20000000</i>
   <i name="SMASS">     -3.00000000</i>
   <i name="SCALEE">      1.00000000</i>
  </separator>
  <separator name="ionic md" >
   <i name="TEBEG">      0.00010000</i>
   <i name="TEEND">      0.00010000</i>
   <i type="int" name="NBLOCK">     1</i>
   <i type="int" name="KBLOCK">  1000</i>
   <i type="int" name="NPACO">   256</i>
   <i name="APACO">     10.00000000</i>
  </separator>
  <separator name="symmetry" >
   <i type="int" name="ISYM">     2</i>
   <i name="SYMPREC">      0.00001000</i>
  </separator>
  <separator name="dos" >
   <i type="int" name="LORBIT">     0</i>
   <v name="RWIGS">     -1.00000000     -1.00000000     -1.00000000     -1.00000000</v>
   <i type="int" name="NEDOS">   301</i>
   <i name="EMIN">     10.00000000</i>
   <i name="EMAX">    -10.00000000</i>
   <i name="EFERMI">      0.00000000</i>
  </separator>
  <separator name="writing" >
   <i type="int" name="NWRITE">     2</i>
   <i type="logical" name="LWAVE"> F  </i>
   <i type="logical" name="LDOWNSAMPLE"> F  </i>
   <i type="logical" name="LCHARG"> F  </i>
   <i type="logical" name="LPARD"> F  </i>
   <i type="logical" name="LVTOT"> F  </i>
   <i type="logical" name="LVHAR"> F  </i>
   <i type="logical" name="LELF"> F  </i>
   <i type="logical" name="LOPTICS"> F  </i>
   <v name="STM">      0.00000000      0.00000000      0.00000000      0.00000000      0.00000000      0.00000000      0.00000000</v>
  </separator>
  <separator name="performance" >
   <i type="int" name="NPAR">     4</i>
   <i type="int" name="NSIM">     4</i>
   <i type="int" name="NBLK">    -1</i>
   <i type="logical" name="LPLANE"> T  </i>
   <i type="logical" name="LSCALAPACK"> T  </i>
   <i type="logical" name="LSCAAWARE"> F  </i>
   <i type="logical" name="LSCALU"> F  </i>
   <i type="logical" name="LASYNC"> F  </i>
   <i type="logical" name="LORBITALREAL"> F  </i>
  </separator>
  <separator name="miscellaneous" >
   <i type="int" name="IDIOT">     3</i>
   <i type="int" name="PHON_NSTRUCT">    -1</i>
   <i type="logical" name="LMUSIC"> F  </i>
   <v name="POMASS">      7.01000000     30.97400000     32.06600000     35.45300000</v>
   <v name="DARWINR">      0.00000000      0.00000000      0.00000000      0.00000000</v>
   <v name="DARWINV">      1.00000000      1.00000000      1.00000000      1.00000000</v>
   <i type="logical" name="LCORR"> T  </i>
  </separator>
  <i type="logical" name="GGA_COMPAT"> T  </i>
  <i type="logical" name="LBERRY"> F  </i>
  <i type="int" name="ICORELEVEL">     0</i>
  <i type="logical" name="LDAU"> F  </i>
  <i type="int" name="I_CONSTRAINED_M">     0</i>
  <separator name="electronic exchange-correlation" >
   <i type="string" name="GGA">PE</i>
   <i type="int" name="VOSKOWN">     0</i>
   <i type="logical" name="LHFCALC"> F  </i>
   <i type="string" name="PRECFOCK"></i>
   <i type="logical" name="LSYMGRAD"> F  </i>
   <i type="logical" name="LHFONE"> F  </i>
   <i type="logical" name="LRHFCALC"> F  </i>
   <i type="logical" name="LTHOMAS"> F  </i>
   <i type="logical" name="LMODELHF"> F  </i>
   <i type="logical" name="LFOCKACE"> F  </i>
   <i name="ENCUT4O">     -1.00000000</i>
   <i type="int" name="EXXOEP">     0</i>
   <i type="int" name="FOURORBIT">     0</i>
   <i name="AEXX">      0.00000000</i>
   <i name="HFALPHA">      0.00000000</i>
   <i name="MCALPHA">      0.00000000</i>
   <i name="ALDAX">      1.00000000</i>
   <i name="AGGAX">      1.00000000</i>
   <i name="ALDAC">      1.00000000</i>
   <i name="AGGAC">      1.00000000</i>
   <i type="int" name="NKREDX">     1</i>
   <i type="int" name="NKREDY">     1</i>
   <i type="int" name="NKREDZ">     1</i>
   <i type="logical" name="SHIFTRED"> F  </i>
   <i type="logical" name="ODDONLY"> F  </i>
   <i type="logical" name="EVENONLY"> F  </i>
   <i type="int" name="LMAXFOCK">     0</i>
   <i type="int" name="NMAXFOCKAE">     0</i>
   <i type="logical" name="LFOCKAEDFT"> F  </i>
   <i name="HFSCREEN">      0.00000000</i>
   <i name="HFSCREENC">      0.00000000</i>
   <i type="int" name="NBANDSGWLOW">     0</i>
  </separator>
  <separator name="vdW DFT" >
   <i type="logical" name="LUSE_VDW"> F  </i>
   <i type="int" name="IVDW_NL">     1</i>
   <i type="logical" name="LSPIN_VDW"> F  </i>
   <i name="Zab_VDW">     -0.84910000</i>
   <i name="PARAM1">      0.12340000</i>
   <i name="PARAM2">      1.00000000</i>
   <i name="PARAM3">      0.00000000</i>
  </separator>
  <separator name="model GW" >
   <i type="int" name="MODEL_GW">     0</i>
   <i name="MODEL_EPS0">     10.45623740</i>
   <i name="MODEL_ALPHA">      1.00000000</i>
  </separator>
  <separator name="linear response parameters" >
   <i type="logical" name="LEPSILON"> F  </i>
   <i type="logical" name="LRPA"> F  </i>
   <i type="logical" name="LNABLA"> F  </i>
   <i type="logical" name="LVEL"> F  </i>
   <i name="CSHIFT">      0.10000000</i>
   <i name="OMEGAMAX">     -1.00000000</i>
   <i name="DEG_THRESHOLD">      0.00200000</i>
   <i name="RTIME">     -0.10000000</i>
   <i name="WPLASMAI">      0.00000000</i>
   <v name="DFIELD">      0.00000000      0.00000000      0.00000000</v>
   <v name="WPLASMA">      0.00000000      0.00000000      0.00000000      0.00000000      0.00000000      0.00000000      0.00000000      0.00000000      0.00000000</v>
  </separator>
  <separator name="orbital magnetization" >
   <i type="logical" name="NUCIND"> F  </i>
   <v name="MAGPOS">      0.00000000      0.00000000      0.00000000</v>
   <i type="logical" name="LNICSALL"> T  </i>
   <i type="logical" name="ORBITALMAG"> F  </i>
   <i type="logical" name="LMAGBLOCH"> F  </i>
   <i type="logical" name="LCHIMAG"> F  </i>
   <i type="logical" name="LGAUGE"> T  </i>
   <i type="int" name="MAGATOM">     0</i>
   <v name="MAGDIPOL">      0.00000000      0.00000000      0.00000000</v>
   <v name="AVECCONST">      0.00000000      0.00000000      0.00000000</v>
  </separator>
  <separator name="response functions" >
   <i type="logical" name="LALL_IN_ONE"> F  </i>
   <i type="int" name="IALL_IN_ONE">    -1</i>
   <i type="int" name="NBANDS_WAVE">    -1</i>
   <i type="logical" name="LFINITE_TEMPERATURE"> F  </i>
   <i type="logical" name="LADDER"> F  </i>
   <i type="logical" name="LRPAFORCE"> F  </i>
   <i type="logical" name="LFXC"> F  </i>
   <i type="logical" name="LHARTREE"> T  </i>
   <i type="int" name="IBSE">     0</i>
   <v type="int" name="KPOINT">    -1     0     0     0</v>
   <i type="logical" name="LTCTC"> F  </i>
   <i type="logical" name="LTCTE"> F  </i>
   <i type="logical" name="LTETE"> F  </i>
   <i type="logical" name="LTRIPLET"> F  </i>
   <i type="logical" name="LFXCEPS"> F  </i>
   <i type="logical" name="LFXHEG"> F  </i>
   <i type="int" name="NATURALO">     2</i>
   <i type="logical" name="LHOLEGF"> F  </i>
   <i type="logical" name="L2ORDER"> F  </i>
   <i type="logical" name="LDMP1"> F  </i>
   <i type="logical" name="LMP2LT"> F  </i>
   <i type="logical" name="LSMP2LT"> F  </i>
   <i type="logical" name="LGWLF"> F  </i>
   <i name="ENCUTGW">     -1.60000002</i>
   <i name="ENCUTGWSOFT">     -1.60000002</i>
   <i name="ENCUTLF">     -1.00000000</i>
   <i type="logical" name="LESF_SPLINES"> F  </i>
   <i type="int" name="LMAXMP2">    -1</i>
   <i name="SCISSOR">      0.00000000</i>
   <i type="int" name="NOMEGA">     0</i>
   <i type="int" name="NOMEGAR">     0</i>
   <i type="int" name="NBANDSGW">    -1</i>
   <i type="int" name="NBANDSO">    -1</i>
   <i type="int" name="NBANDSV">    -1</i>
   <i type="int" name="NELMGW">     1</i>
   <i type="int" name="NELMHF">     1</i>
   <i type="int" name="DIM">     3</i>
   <i type="int" name="IESPILON">     4</i>
   <i type="int" name="ANTIRES">     0</i>
   <i name="OMEGAMAX">    -30.00000000</i>
   <i name="OMEGAMIN">    -30.00000000</i>
   <i name="OMEGATL">   -200.00000000</i>
   <i type="int" name="OMEGAGRID">     0</i>
   <i name="CSHIFT">     -0.10000000</i>
   <i type="logical" name="LSELFENERGY"> F  </i>
   <i type="logical" name="LSPECTRAL"> F  </i>
   <i type="logical" name="LSPECTRALGW"> F  </i>
   <i type="logical" name="LSINGLES"> F  </i>
   <i type="logical" name="LFERMIGW"> F  </i>
   <i type="logical" name="ODDONLYGW"> F  </i>
   <i type="logical" name="EVENONLYGW"> F  </i>
   <i type="int" name="NKREDLFX">     1</i>
   <i type="int" name="NKREDLFY">     1</i>
   <i type="int" name="NKREDLFZ">     1</i>
   <i type="int" name="MAXMEM">  2800</i>
   <i type="int" name="TELESCOPE">     0</i>
   <i type="int" name="NTAUPAR">    -1</i>
   <i type="int" name="NOMEGAPAR">    -1</i>
   <i name="DAMP_NEWTON">      0.80000001</i>
   <i name="LAMBDA">      1.00000000</i>
  </separator>
  <separator name="External order field" >
   <i name="OFIELD_KAPPA">      0.00000000</i>
   <v name="OFIELD_K">      0.00000000      0.00000000      0.00000000</v>
   <i name="OFIELD_Q6_NEAR">      0.00000000</i>
   <i name="OFIELD_Q6_FAR">      0.00000000</i>
   <i name="OFIELD_A">      0.00000000</i>
  </separator>
  <separator name="optional k-points parameters" >
   <i type="int" name="KPOINTS_OPT_MODE">     1</i>
   <i type="logical" name="LKPOINTS_OPT"> F  </i>
  </separator>
 </parameters>
 <atominfo>
  <atoms>      52 </atoms>
  <types>       4 </types>
  <array name="atoms" >
   <dimension dim="1">ion</dimension>
   <field type="string">element</field>
   <field type="int">atomtype</field>
   <set>
    <rc><c>Li</c><c>   1</c></rc>
    <rc><c>Li</c><c>   1</c></rc>
    <rc><c>Li</c><c>   1</c></rc>
    <rc><c>Li</c><c>   1</c></rc>
    <rc><c>Li</c><c>   1</c></rc>
    <rc><c>Li</c><c>   1</c></rc>
    <rc><c>Li</c><c>   1</c></rc>
    <rc><c>Li</c><c>   1</c></rc>
    <rc><c>Li</c><c>   1</c></rc>
    <rc><c>Li</c><c>   1</c></rc>
    <rc><c>Li</c><c>   1</c></rc>
    <rc><c>Li</c><c>   1</c></rc>
    <rc><c>Li</c><c>   1</c></rc>
    <rc><c>Li</c><c>   1</c></rc>
    <rc><c>Li</c><c>   1</c></rc>
    <rc><c>Li</c><c>   1</c></rc>
    <rc><c>Li</c><c>   1</c></rc>
    <rc><c>Li</c><c>   1</c></rc>
    <rc><c>Li</c><c>   1</c></rc>
    <rc><c>Li</c><c>   1</c></rc>
    <rc><c>Li</c><c>   1</c></rc>
    <rc><c>Li</c><c>   1</c></rc>
    <rc><c>Li</c><c>   1</c></rc>
    <rc><c>Li</c><c>   1</c></rc>
    <rc><c>P </c><c>   2</c></rc>
    <rc><c>P </c><c>   2</c></rc>
    <rc><c>P </c><c>   2</c></rc>
    <rc><c>P </c><c>   2</c></rc>
    <rc><c>S </c><c>   3</c></rc>
    <rc><c>S </c><c>   3</c></rc>
    <rc><c>S </c><c>   3</c></rc>
    <rc><c>S </c><c>   3</c></rc>
    <rc><c>S </c><c>   3</c></rc>
    <rc><c>S </c><c>   3</c></rc>
    <rc><c>S </c><c>   3</c></rc>
    <rc><c>S </c><c>   3</c></rc>
    <rc><c>S </c><c>   3</c></rc>
    <rc><c>S </c><c>   3</c></rc>
    <rc><c>S </c><c>   3</c></rc>
    <rc><c>S </c><c>   3</c></rc>
    <rc><c>S </c><c>   3</c></rc>
    <rc><c>S </c><c>   3</c></rc>
    <rc><c>S </c><c>   3</c></rc>
    <rc><c>S </c><c>   3</c></rc>
    <rc><c>S </c><c>   3</c></rc>
    <rc><c>S </c><c>   3</c></rc>
    <rc><c>S </c><c>   3</c></rc>
    <rc><c>S </c><c>   3</c></rc>
    <rc><c>Cl</c><c>   4</c></rc>
    <rc><c>Cl</c><c>   4</c></rc>
    <rc><c>Cl</c><c>   4</c></rc>
    <rc><c>Cl</c><c>   4</c></rc>
   </set>
  </array>
  <array name="atomtypes" >
   <dimension dim="1">type</dimension>
   <field type="int">atomspertype</field>
   <field type="string">element</field>
   <field>mass</field>
   <field>valence</field>
   <field type="string">pseudopotential</field>
   <set>
    <rc><c>  24</c><c>Li</c><c>      7.01000000</c><c>      3.00000000</c><c>  PAW_PBE Li_sv_GW 25Mar2010            </c></rc>
    <rc><c>   4</c><c>P </c><c>     30.97400000</c><c>      5.00000000</c><c>  PAW_PBE P_GW 19Mar2012                </c></rc>
    <rc><c>  20</c><c>S </c><c>     32.06600000</c><c>      6.00000000</c><c>  PAW_PBE S_GW 19Mar2012                </c></rc>
    <rc><c>   4</c><c>Cl</c><c>     35.45300000</c><c>      7.00000000</c><c>  PAW_PBE Cl_GW 19Mar2012               </c></rc>
   </set>
  </array>
 </atominfo>
 <structure name="initialpos" >
  <crystal>
   <varray name="basis" >
    <v>       9.67703940       0.00000000       0.00000000 </v>
    <v>       0.00000000       9.67703940       0.00000000 </v>
    <v>       0.00000000       0.00000000       9.67703940 </v>
   </varray>
   <i name="volume">    906.20724153 </i>
   <varray name="rec_basis" >
    <v>       0.10333739       0.00000000       0.00000000 </v>
    <v>       0.00000000       0.10333739       0.00000000 </v>
    <v>       0.00000000       0.00000000       0.10333739 </v>
   </varray>
  </crystal>
  <varray name="positions" >
   <v>       0.98217370       0.20006953       0.17915108 </v>
   <v>       0.98314798       0.72770012       0.71354003 </v>
   <v>       0.03270869       0.17657186       0.81045678 </v>
   <v>       0.02652575       0.68745919       0.29182324 </v>
   <v>       0.27414224       0.27942506       0.98455731 </v>
   <v>       0.17274996       0.85409053       0.04605961 </v>
   <v>       0.71203605       0.29839533       0.01540055 </v>
   <v>       0.66560184       0.65529031       0.96381335 </v>
   <v>       0.29751652       0.98441851       0.33621875 </v>
   <v>       0.33048336       0.04668517       0.68309578 </v>
   <v>       0.80392015       0.95793378       0.83013170 </v>
   <v>       0.79712643       0.00257302       0.17728147 </v>
   <v>       0.22343145       0.69878688       0.48619729 </v>
   <v>       0.17197144       0.31991430       0.52361956 </v>
   <v>       0.71337115       0.79905591       0.52147844 </v>
   <v>       0.68057485       0.15133471       0.46248225 </v>
   <v>       0.20541360       0.49164180       0.73859351 </v>
   <v>       0.32245255       0.54742991       0.17449728 </v>
   <v>       0.81406838       0.44704597       0.31809277 </v>
   <v>       0.80406229       0.51277514       0.67496381 </v>
   <v>       0.47861552       0.32289784       0.79212598 </v>
   <v>       0.48588352       0.79070577       0.29910088 </v>
   <v>       0.52231361       0.29278812       0.21491700 </v>
   <v>       0.52298649       0.80668701       0.71434470 </v>
   <v>       0.50271635       0.49262461       0.49995759 </v>
   <v>       0.49127114       0.99660468       0.99827884 </v>
   <v>       0.99559614       0.50832213       0.00441959 </v>
   <v>       0.99991019       0.00239389       0.49947714 </v>
   <v>       0.13627793       0.89282529       0.61993532 </v>
   <v>       0.11245200       0.13493806       0.37860658 </v>
   <v>       0.88680485       0.87463381       0.37299040 </v>
   <v>       0.86981174       0.10886331       0.62750865 </v>
   <v>       0.85699290       0.61023906       0.12682100 </v>
   <v>       0.89271161       0.38036393       0.86968205 </v>
   <v>       0.11951279       0.64582531       0.90162450 </v>
   <v>       0.12047428       0.39659235       0.13567414 </v>
   <v>       0.61110847       0.11711662       0.87080847 </v>
   <v>       0.61587370       0.86087676       0.10367782 </v>
   <v>       0.37489900       0.11252470       0.13300571 </v>
   <v>       0.35877813       0.88625062       0.87649122 </v>
   <v>       0.63026423       0.61058380       0.37809616 </v>
   <v>       0.62817621       0.35636165       0.60291500 </v>
   <v>       0.39491925       0.61229419       0.63892588 </v>
   <v>       0.36542892       0.38954702       0.37707875 </v>
   <v>       0.74885415       0.73691051       0.74935276 </v>
   <v>       0.75063147       0.22994997       0.24267166 </v>
   <v>       0.25232707       0.76081936       0.25792699 </v>
   <v>       0.24901809       0.26129489       0.74845801 </v>
   <v>       0.98410087       0.01807185       0.00260753 </v>
   <v>       0.02012074       0.53197817       0.52185038 </v>
   <v>       0.50578312       0.96439964       0.49953446 </v>
   <v>       0.50190714       0.45511805       0.00968027 </v>
  </varray>
 </structure>
 <calculation>
  <scstep>
   <time name="dav">    2.33    2.56</time>
   <time name="total">    2.81    3.05</time>
   <energy>
    <i name="alphaZ">    299.55344786 </i>
    <i name="ewald">  -8788.88475889 </i>
    <i name="hartreedc">  -2126.88836886 </i>
    <i name="XCdc">    534.06098371 </i>
    <i name="pawpsdc">   8141.38806575 </i>
    <i name="pawaedc">  -8271.61346273 </i>
    <i name="eentropy">     -0.00771770 </i>
    <i name="bandstr">   -904.60017352 </i>
    <i name="atom">  12703.13999606 </i>
    <i name="e_fr_energy">   1586.14801167 </i>
    <i name="e_wo_entrp">   1586.15572937 </i>
    <i name="e_0_energy">   1586.15187052 </i>
   </energy>
  </scstep>
  <scstep>
   <time name="dav">    2.64    2.68</time>
   <time name="total">    2.64    2.68</time>
   <energy>
    <i name="e_fr_energy">    -58.86658969 </i>
    <i name="e_wo_entrp">    -58.86658969 </i>
    <i name="e_0_energy">    -58.86658969 </i>
   </energy>
  </scstep>
  <scstep>
   <time name="dav">    2.55    2.63</time>
   <time name="total">    2.55    2.63</time>
   <energy>
    <i name="e_fr_energy">   -228.93941330 </i>
    <i name="e_wo_entrp">   -228.93941330 </i>
    <i name="e_0_energy">   -228.93941330 </i>
   </energy>
  </scstep>
  <scstep>
   <time name="dav">    3.10    3.17</time>
   <time name="total">    3.10    3.17</time>
   <energy>
    <i name="e_fr_energy">   -242.19445254 </i>
    <i name="e_wo_entrp">   -242.19445254 </i>
    <i name="e_0_energy">   -242.19445254 </i>
   </energy>
  </scstep>
  <scstep>
   <time name="dav">    3.03    3.06</time>
   <time name="total">    3.03    3.06</time>
   <energy>
    <i name="e_fr_energy">   -242.41590898 </i>
    <i name="e_wo_entrp">   -242.41590898 </i>
    <i name="e_0_energy">   -242.41590898 </i>
   </energy>
  </scstep>
  <scstep>
   <time name="dav">    3.05    3.08</time>
   <time name="total">    3.05    3.08</time>
   <energy>
    <i name="e_fr_energy">   -242.42758971 </i>
    <i name="e_wo_entrp">   -242.42758971 </i>
    <i name="e_0_energy">   -242.42758971 </i>
   </energy>
  </scstep>
  <scstep>
   <time name="dav">    3.01    3.04</time>
   <time name="total">    3.01    3.04</time>
   <energy>
    <i name="e_fr_energy">   -242.42803619 </i>
    <i name="e_wo_entrp">   -242.42803619 </i>
    <i name="e_0_energy">   -242.42803619 </i>
   </energy>
  </scstep>
  <scstep>
   <time name="dav">    3.00    3.05</time>
   <time name="total">    3.00    3.05</time>
   <energy>
    <i name="e_fr_energy">   -242.42806418 </i>
    <i name="e_wo_entrp">   -242.42806418 </i>
    <i name="e_0_energy">   -242.42806418 </i>
   </energy>
  </scstep>
  <scstep>
   <time name="dav">    2.92    2.96</time>
   <time name="total">    2.92    2.96</time>
   <energy>
    <i name="e_fr_energy">   -242.42806611 </i>
    <i name="e_wo_entrp">   -242.42806611 </i>
    <i name="e_0_energy">   -242.42806611 </i>
   </energy>
  </scstep>
  <scstep>
   <time name="dav">    1.97    1.99</time>
   <time name="total">    2.04    2.06</time>
   <energy>
    <i name="e_fr_energy">   -242.42806621 </i>
    <i name="e_wo_entrp">   -242.42806621 </i>
    <i name="e_0_energy">   -242.42806621 </i>
   </energy>
  </scstep>
  <scstep>
   <time name="diag">    0.37    0.37</time>
   <time name="diis">    1.17    1.19</time>
   <time name="orth">    0.06    0.07</time>
   <time name="total">    2.12    2.15</time>
   <energy>
    <i name="e_fr_energy">   -236.24094899 </i>
    <i name="e_wo_entrp">   -236.24094899 </i>
    <i name="e_0_energy">   -236.24094899 </i>
   </energy>
  </scstep>
  <scstep>
   <time name="diag">    0.36    0.36</time>
   <time name="diis">    1.23    1.24</time>
   <time name="orth">    0.07    0.07</time>
   <time name="total">    2.18    2.20</time>
   <energy>
    <i name="e_fr_energy">   -256.22731884 </i>
    <i name="e_wo_entrp">   -256.22731884 </i>
    <i name="e_0_energy">   -256.22731884 </i>
   </energy>
  </scstep>
  <scstep>
   <time name="diag">    0.36    0.36</time>
   <time name="diis">    1.22    1.23</time>
   <time name="orth">    0.06    0.07</time>
   <time name="total">    2.17    2.19</time>
   <energy>
    <i name="e_fr_energy">   -258.70991257 </i>
    <i name="e_wo_entrp">   -258.70991257 </i>
    <i name="e_0_energy">   -258.70991257 </i>
   </energy>
  </scstep>
  <scstep>
   <time name="diag">    0.36    0.36</time>
   <time name="diis">    1.57    1.59</time>
   <time name="orth">    0.06    0.06</time>
   <time name="total">    2.52    2.55</time>
   <energy>
    <i name="e_fr_energy">   -258.91301684 </i>
    <i name="e_wo_entrp">   -258.91301684 </i>
    <i name="e_0_energy">   -258.91301684 </i>
   </energy>
  </scstep>
  <scstep>
   <time name="diag">    0.36    0.36</time>
   <time name="diis">    1.28    1.30</time>
   <time name="orth">    0.06    0.06</time>
   <time name="total">    2.23    2.25</time>
   <energy>
    <i name="e_fr_energy">   -258.88548160 </i>
    <i name="e_wo_entrp">   -258.88548160 </i>
    <i name="e_0_energy">   -258.88548160 </i>
   </energy>
  </scstep>
  <scstep>
   <time name="diag">    0.36    0.36</time>
   <time name="diis">    1.29    1.30</time>
   <time name="orth">    0.06    0.06</time>
   <time name="total">    2.24    2.26</time>
   <energy>
    <i name="e_fr_energy">   -258.90520641 </i>
    <i name="e_wo_entrp">   -258.90520641 </i>
    <i name="e_0_energy">   -258.90520641 </i>
   </energy>
  </scstep>
  <scstep>
   <time name="diag">    0.36    0.36</time>
   <time name="diis">    1.47    1.48</time>
   <time name="orth">    0.06    0.07</time>
   <time name="total">    2.42    2.44</time>
   <energy>
    <i name="e_fr_energy">   -258.91156672 </i>
    <i name="e_wo_entrp">   -258.91156672 </i>
    <i name="e_0_energy">   -258.91156672 </i>
   </energy>
  </scstep>
  <scstep>
   <time name="diag">    0.36    0.36</time>
   <time name="diis">    1.41    1.42</time>
   <time name="orth">    0.06    0.07</time>
   <time name="total">    2.36    2.38</time>
   <energy>
    <i name="e_fr_energy">   -258.91281839 </i>
    <i name="e_wo_entrp">   -258.91281839 </i>
    <i name="e_0_energy">   -258.91281839 </i>
   </energy>
  </scstep>
  <scstep>
   <time name="diag">    0.36    0.36</time>
   <time name="diis">    1.62    1.63</time>
   <time name="orth">    0.06    0.07</time>
   <time name="total">    2.57    2.59</time>
   <energy>
    <i name="e_fr_energy">   -258.91334421 </i>
    <i name="e_wo_entrp">   -258.91334421 </i>
    <i name="e_0_energy">   -258.91334421 </i>
   </energy>
  </scstep>
  <scstep>
   <time name="diag">    0.36    0.36</time>
   <time name="diis">    1.59    1.61</time>
   <time name="orth">    0.06    0.06</time>
   <time name="total">    2.54    2.57</time>
   <energy>
    <i name="e_fr_energy">   -258.91344899 </i>
    <i name="e_wo_entrp">   -258.91344899 </i>
    <i name="e_0_energy">   -258.91344899 </i>
   </energy>
  </scstep>
  <scstep>
   <time name="diag">    0.36    0.36</time>
   <time name="diis">    1.45    1.47</time>
   <time name="orth">    0.06    0.07</time>
   <time name="total">    2.40    2.42</time>
   <energy>
    <i name="e_fr_energy">   -258.91346840 </i>
    <i name="e_wo_entrp">   -258.91346840 </i>
    <i name="e_0_energy">   -258.91346840 </i>
   </energy>
  </scstep>
  <scstep>
   <time name="diag">    0.36    0.36</time>
   <time name="diis">    1.59    1.61</time>
   <time name="orth">    0.06    0.06</time>
   <time name="total">    2.55    2.57</time>
   <energy>
    <i name="e_fr_energy">   -258.91347485 </i>
    <i name="e_wo_entrp">   -258.91347485 </i>
    <i name="e_0_energy">   -258.91347485 </i>
   </energy>
  </scstep>
  <scstep>
   <time name="diag">    0.36    0.36</time>
   <time name="diis">    1.27    1.28</time>
   <time name="orth">    0.06    0.06</time>
   <time name="total">    2.22    2.24</time>
   <energy>
    <i name="e_fr_energy">   -258.91347479 </i>
    <i name="e_wo_entrp">   -258.91347479 </i>
    <i name="e_0_energy">   -258.91347479 </i>
   </energy>
  </scstep>
  <scstep>
   <time name="diag">    0.36    0.36</time>
   <time name="diis">    0.95    0.97</time>
   <time name="orth">    0.06    0.06</time>
   <time name="total">    1.84    1.85</time>
   <energy>
    <i name="alphaZ">    299.55344786 </i>
    <i name="ewald">  -8788.88475889 </i>
    <i name="hartreedc">  -2228.71181848 </i>
    <i name="XCdc">    537.82281264 </i>
    <i name="pawpsdc">   9822.67643909 </i>
    <i name="pawaedc">  -9966.71841377 </i>
    <i name="eentropy">     -0.00000000 </i>
    <i name="bandstr">  -2637.79117875 </i>
    <i name="atom">  12703.13999606 </i>
    <i name="e_fr_energy">   -258.91347424 </i>
    <i name="e_wo_entrp">   -258.91347424 </i>
    <i name="e_0_energy">   -258.91347424 </i>
   </energy>
  </scstep>
  <structure>
   <crystal>
    <varray name="basis" >
     <v>       9.67703940       0.00000000       0.00000000 </v>
     <v>       0.00000000       9.67703940       0.00000000 </v>
     <v>       0.00000000       0.00000000       9.67703940 </v>
    </varray>
    <i name="volume">    906.20724153 </i>
    <varray name="rec_basis" >
     <v>       0.10333739       0.00000000       0.00000000 </v>
     <v>       0.00000000       0.10333739       0.00000000 </v>
     <v>       0.00000000       0.00000000       0.10333739 </v>
    </varray>
   </crystal>
   <varray name="positions" >
    <v>       0.98217370       0.20006953       0.17915108 </v>
    <v>       0.98314798       0.72770012       0.71354003 </v>
    <v>       0.03270869       0.17657186       0.81045678 </v>
    <v>       0.02652575       0.68745919       0.29182324 </v>
    <v>       0.27414224       0.27942506       0.98455731 </v>
    <v>       0.17274996       0.85409053       0.04605961 </v>
    <v>       0.71203605       0.29839533       0.01540055 </v>
    <v>       0.66560184       0.65529031       0.96381335 </v>
    <v>       0.29751652       0.98441851       0.33621875 </v>
    <v>       0.33048336       0.04668517       0.68309578 </v>
    <v>       0.80392015       0.95793378       0.83013170 </v>
    <v>       0.79712643       0.00257302       0.17728147 </v>
    <v>       0.22343145       0.69878688       0.48619729 </v>
    <v>       0.17197144       0.31991430       0.52361956 </v>
    <v>       0.71337115       0.79905591       0.52147844 </v>
    <v>       0.68057485       0.15133471       0.46248225 </v>
    <v>       0.20541360       0.49164180       0.73859351 </v>
    <v>       0.32245255       0.54742991       0.17449728 </v>
    <v>       0.81406838       0.44704597       0.31809277 </v>
    <v>       0.80406229       0.51277514       0.67496381 </v>
    <v>       0.47861552       0.32289784       0.79212598 </v>
    <v>       0.48588352       0.79070577       0.29910088 </v>
    <v>       0.52231361       0.29278812       0.21491700 </v>
    <v>       0.52298649       0.80668701       0.71434470 </v>
    <v>       0.50271635       0.49262461       0.49995759 </v>
    <v>       0.49127114       0.99660468       0.99827884 </v>
    <v>       0.99559614       0.50832213       0.00441959 </v>
    <v>       0.99991019       0.00239389       0.49947714 </v>
    <v>       0.13627793       0.89282529       0.61993532 </v>
    <v>       0.11245200       0.13493806       0.37860658 </v>
    <v>       0.88680485       0.87463381       0.37299040 </v>
    <v>       0.86981174       0.10886331       0.62750865 </v>
    <v>       0.85699290       0.61023906       0.12682100 </v>
    <v>       0.89271161       0.38036393       0.86968205 </v>
    <v>       0.11951279       0.64582531       0.90162450 </v>
    <v>       0.12047428       0.39659235       0.13567414 </v>
    <v>       0.61110847       0.11711662       0.87080847 </v>
    <v>       0.61587370       0.86087676       0.10367782 </v>
    <v>       0.37489900       0.11252470       0.13300571 </v>
    <v>       0.35877813       0.88625062       0.87649122 </v>
    <v>       0.63026423       0.61058380       0.37809616 </v>
    <v>       0.62817621       0.35636165       0.60291500 </v>
    <v>       0.39491925       0.61229419       0.63892588 </v>
    <v>       0.36542892       0.38954702       0.37707875 </v>
    <v>       0.74885415       0.73691051       0.74935276 </v>
    <v>       0.75063147       0.22994997       0.24267166 </v>
    <v>       0.25232707       0.76081936       0.25792699 </v>
    <v>       0.24901809       0.26129489       0.74845801 </v>
    <v>       0.98410087       0.01807185       0.00260753 </v>
    <v>       0.02012074       0.53197817       0.52185038 </v>
    <v>       0.50578312       0.96439964       0.49953446 </v>
    <v>       0.50190714       0.45511805       0.00968027 </v>
   </varray>
  </structure>
  <varray name="forces" >
   <v>       0.00142068      -0.00081367      -0.00308926 </v>
   <v>       0.00103345      -0.00012315      -0.00136145 </v>
   <v>      -0.00199315      -0.00345207       0.00058444 </v>
   <v>      -0.00108270      -0.00429466       0.00035385 </v>
   <v>       0.00072640       0.00060608       0.00121283 </v>
   <v>      -0.00146566       0.00250851      -0.00119313 </v>
   <v>      -0.00109399       0.00218156      -0.00081118 </v>
   <v>      -0.00251976      -0.00214765       0.00199996 </v>
   <v>       0.00335539       0.00191942       0.00292643 </v>
   <v>       0.00362949      -0.00178364      -0.00211473 </v>
   <v>       0.00079163       0.00131296       0.00192914 </v>
   <v>       0.00196199      -0.00088395      -0.00092667 </v>
   <v>      -0.00156967      -0.00176654       0.00111851 </v>
   <v>      -0.00217961       0.00179507      -0.00052042 </v>
   <v>      -0.00209564       0.00060364      -0.00021044 </v>
   <v>      -0.00123383      -0.00229382       0.00178348 </v>
   <v>      -0.00070072       0.00239668       0.00074939 </v>
   <v>       0.00196966      -0.00172854      -0.00216754 </v>
   <v>       0.00618357       0.00128001       0.00654451 </v>
   <v>       0.00151463      -0.00199163      -0.00160392 </v>
   <v>       0.00125241       0.00176113       0.00227619 </v>
   <v>       0.00211756       0.00143060       0.00153392 </v>
   <v>      -0.00127803       0.00294968      -0.00027635 </v>
   <v>      -0.00140299       0.00283260      -0.00143423 </v>
   <v>      -0.00181615       0.00092963      -0.00030476 </v>
   <v>       0.00460484       0.00160862       0.00030278 </v>
   <v>      -0.00342234      -0.00002361       0.00214467 </v>
   <v>       0.00274217       0.00103435      -0.00095480 </v>
   <v>       0.01824554      -0.01292973       0.01612526 </v>
   <v>       0.01368078       0.01785067      -0.01696273 </v>
   <v>      -0.01469088      -0.01936891      -0.01846935 </v>
   <v>      -0.01999596       0.01457149       0.01652608 </v>
   <v>      -0.02344496       0.01520668       0.01541903 </v>
   <v>      -0.01172391      -0.01701879      -0.01939337 </v>
   <v>       0.01727494       0.02151621      -0.01186278 </v>
   <v>       0.01412077      -0.01291306       0.01958493 </v>
   <v>       0.01508129       0.01749568      -0.01935779 </v>
   <v>       0.01643396      -0.01716748       0.01280241 </v>
   <v>      -0.01427749       0.01399883       0.01897618 </v>
   <v>      -0.02070310      -0.01716020      -0.01550872 </v>
   <v>       0.01611696       0.01337998      -0.01832230 </v>
   <v>       0.01887067      -0.02335762       0.01399045 </v>
   <v>      -0.01091519       0.01442114       0.01941088 </v>
   <v>      -0.02093499      -0.01380778      -0.01563152 </v>
   <v>      -0.00019876      -0.00063320       0.00146423 </v>
   <v>       0.00035619      -0.00013204       0.00139531 </v>
   <v>       0.00036032       0.00022721      -0.00180805 </v>
   <v>      -0.00048846      -0.00134575      -0.00097395 </v>
   <v>       0.00185680      -0.00249187      -0.00097737 </v>
   <v>      -0.00390568      -0.00271457      -0.00422144 </v>
   <v>       0.00053504       0.00206637      -0.00019142 </v>
   <v>      -0.00110352       0.00445911      -0.00050521 </v>
  </varray>
  <varray name="stress" >
   <v>       1.26734595       1.30061997      -1.44758495 </v>
   <v>       1.30061943       1.69034599       0.64705281 </v>
   <v>      -1.44758431       0.64705280      -3.14078105 </v>
  </varray>
  <energy>
   <i name="e_fr_energy">   -272.41657340 </i>
   <i name="e_wo_entrp">   -272.41657340 </i>
   <i name="e_0_energy">   -272.41657340 </i>
  </energy>
  <time name="totalsc">   63.59   64.59</time>
 </calculation>
 <calculation>
  <scstep>
   <time name="dav">    2.13    2.15</time>
   <time name="total">    2.65    2.68</time>
   <energy>
    <i name="alphaZ">    299.55344786 </i>
    <i name="ewald">  -8789.59546073 </i>
    <i name="hartreedc">  -2228.16413117 </i>
    <i name="XCdc">    537.80679355 </i>
    <i name="pawpsdc">   9822.66994063 </i>
    <i name="pawaedc">  -9966.71186848 </i>
    <i name="eentropy">     -0.00000000 </i>
    <i name="bandstr">  -2637.61233108 </i>
    <i name="atom">  12703.13999606 </i>
    <i name="e_fr_energy">   -258.91361336 </i>
    <i name="e_wo_entrp">   -258.91361336 </i>
    <i name="e_0_energy">   -258.91361336 </i>
   </energy>
  </scstep>
  <scstep>
   <time name="diag">    0.36    0.37</time>
   <time name="diis">    1.21    1.22</time>
   <time name="orth">    0.06    0.07</time>
   <time name="total">    2.16    2.18</time>
   <energy>
    <i name="e_fr_energy">   -258.91363051 </i>
    <i name="e_wo_entrp">   -258.91363051 </i>
    <i name="e_0_energy">   -258.91363051 </i>
   </energy>
  </scstep>
  <scstep>
   <time name="diag">    0.36    0.36</time>
   <time name="diis">    1.34    1.35</time>
   <time name="orth">    0.06    0.07</time>
   <time name="total">    2.29    2.31</time>
   <energy>
    <i name="e_fr_energy">   -258.91363996 </i>
    <i name="e_wo_entrp">   -258.91363996 </i>
    <i name="e_0_energy">   -258.91363996 </i>
   </energy>
  </scstep>
  <scstep>
   <time name="diag">    0.36    0.36</time>
   <time name="diis">    1.37    1.38</time>
   <time name="orth">    0.06    0.07</time>
   <time name="total">    2.32    2.34</time>
   <energy>
    <i name="e_fr_energy">   -258.91364262 </i>
    <i name="e_wo_entrp">   -258.91364262 </i>
    <i name="e_0_energy">   -258.91364262 </i>
   </energy>
  </scstep>
  <scstep>
   <time name="diag">    0.36    0.36</time>
   <time name="diis">    0.91    0.92</time>
   <time name="orth">    0.06    0.07</time>
   <time name="total">    1.79    1.81</time>
   <energy>
    <i name="alphaZ">    299.55344786 </i>
    <i name="ewald">  -8789.59546073 </i>
    <i name="hartreedc">  -2228.09943284 </i>
    <i name="XCdc">    537.80328459 </i>
    <i name="pawpsdc">   9821.54731849 </i>
    <i name="pawaedc">  -9965.58448777 </i>
    <i name="eentropy">     -0.00000000 </i>
    <i name="bandstr">  -2637.67830844 </i>
    <i name="atom">  12703.13999606 </i>
    <i name="e_fr_energy">   -258.91364279 </i>
    <i name="e_wo_entrp">   -258.91364279 </i>
    <i name="e_0_energy">   -258.91364279 </i>
   </energy>
  </scstep>
  <structure>
   <crystal>
    <varray name="basis" >
     <v>       9.67703940       0.00000000       0.00000000 </v>
     <v>       0.00000000       9.67703940       0.00000000 </v>
     <v>       0.00000000       0.00000000       9.67703940 </v>
    </varray>
    <i name="volume">    906.20724153 </i>
    <varray name="rec_basis" >
     <v>       0.10333739       0.00000000       0.00000000 </v>
     <v>       0.00000000       0.10333739       0.00000000 </v>
     <v>       0.00000000       0.00000000       0.10333739 </v>
    </varray>
   </crystal>
   <varray name="positions" >
    <v>       0.98217653       0.20006791       0.17914492 </v>
    <v>       0.98315004       0.72769988       0.71353731 </v>
    <v>       0.03270471       0.17656497       0.81045795 </v>
    <v>       0.02652359       0.68745063       0.29182394 </v>
    <v>       0.27414369       0.27942627       0.98455972 </v>
    <v>       0.17274704       0.85409553       0.04605723 </v>
    <v>       0.71203387       0.29839968       0.01539893 </v>
    <v>       0.66559681       0.65528603       0.96381734 </v>
    <v>       0.29752321       0.98442234       0.33622459 </v>
    <v>       0.33049060       0.04668161       0.68309156 </v>
    <v>       0.80392173       0.95793640       0.83013555 </v>
    <v>       0.79713034       0.00257125       0.17727962 </v>
    <v>       0.22342832       0.69878335       0.48619952 </v>
    <v>       0.17196709       0.31991787       0.52361852 </v>
    <v>       0.71336697       0.79905711       0.52147802 </v>
    <v>       0.68057239       0.15133014       0.46248581 </v>
    <v>       0.20541220       0.49164658       0.73859500 </v>
    <v>       0.32245648       0.54742647       0.17449296 </v>
    <v>       0.81408071       0.44704852       0.31810582 </v>
    <v>       0.80406531       0.51277117       0.67496061 </v>
    <v>       0.47861802       0.32290136       0.79213052 </v>
    <v>       0.48588775       0.79070862       0.29910394 </v>
    <v>       0.52231106       0.29279400       0.21491645 </v>
    <v>       0.52298370       0.80669266       0.71434184 </v>
    <v>       0.50271273       0.49262647       0.49995699 </v>
    <v>       0.49128032       0.99660789       0.99827944 </v>
    <v>       0.99558932       0.50832208       0.00442387 </v>
    <v>       0.99991566       0.00239595       0.49947523 </v>
    <v>       0.13631431       0.89279951       0.61996748 </v>
    <v>       0.11247928       0.13497366       0.37857276 </v>
    <v>       0.88677555       0.87459519       0.37295357 </v>
    <v>       0.86977187       0.10889237       0.62754160 </v>
    <v>       0.85694614       0.61026938       0.12685175 </v>
    <v>       0.89268823       0.38033000       0.86964337 </v>
    <v>       0.11954723       0.64586821       0.90160084 </v>
    <v>       0.12050244       0.39656660       0.13571319 </v>
    <v>       0.61113855       0.11715151       0.87076986 </v>
    <v>       0.61590647       0.86084253       0.10370335 </v>
    <v>       0.37487053       0.11255262       0.13304355 </v>
    <v>       0.35873685       0.88621640       0.87646029 </v>
    <v>       0.63029637       0.61061048       0.37805963 </v>
    <v>       0.62821384       0.35631507       0.60294289 </v>
    <v>       0.39489749       0.61232295       0.63896459 </v>
    <v>       0.36538717       0.38951949       0.37704758 </v>
    <v>       0.74885375       0.73690924       0.74935568 </v>
    <v>       0.75063218       0.22994970       0.24267444 </v>
    <v>       0.25232779       0.76081981       0.25792338 </v>
    <v>       0.24901712       0.26129221       0.74845607 </v>
    <v>       0.98410457       0.01806688       0.00260558 </v>
    <v>       0.02011295       0.53197276       0.52184197 </v>
    <v>       0.50578418       0.96440376       0.49953408 </v>
    <v>       0.50190494       0.45512695       0.00967926 </v>
   </varray>
  </structure>
  <varray name="forces" >
   <v>       0.00088587      -0.00092489      -0.00311156 </v>
   <v>       0.00060918      -0.00016503      -0.00120606 </v>
   <v>      -0.00150634      -0.00325672       0.00058787 </v>
   <v>      -0.00066084      -0.00410280       0.00027718 </v>
   <v>       0.00060250       0.00056464       0.00076651 </v>
   <v>      -0.00141077       0.00241488      -0.00082558 </v>
   <v>      -0.00099117       0.00214735      -0.00053262 </v>
   <v>      -0.00254159      -0.00208850       0.00136297 </v>
   <v>       0.00314878       0.00143169       0.00288648 </v>
   <v>       0.00348529      -0.00137456      -0.00192701 </v>
   <v>       0.00089286       0.00098546       0.00177107 </v>
   <v>       0.00197320      -0.00047888      -0.00090715 </v>
   <v>      -0.00140729      -0.00170549       0.00073699 </v>
   <v>      -0.00215431       0.00180653      -0.00009598 </v>
   <v>      -0.00192524       0.00063769      -0.00002462 </v>
   <v>      -0.00123211      -0.00218839       0.00122170 </v>
   <v>      -0.00085231       0.00170702       0.00078844 </v>
   <v>       0.00185418      -0.00122065      -0.00204849 </v>
   <v>       0.00606733       0.00085375       0.00643238 </v>
   <v>       0.00130251      -0.00153489      -0.00163178 </v>
   <v>       0.00092361       0.00187264       0.00194978 </v>
   <v>       0.00151360       0.00148690       0.00149925 </v>
   <v>      -0.00087232       0.00281655      -0.00025258 </v>
   <v>      -0.00089961       0.00283098      -0.00119680 </v>
   <v>      -0.00022024      -0.00125738      -0.00029317 </v>
   <v>       0.00159889       0.00014474      -0.00096364 </v>
   <v>      -0.00237726       0.00147998       0.00157519 </v>
   <v>       0.00083785       0.00076499      -0.00087574 </v>
   <v>       0.01111870      -0.00699461       0.00967193 </v>
   <v>       0.00813843       0.01078260      -0.01050364 </v>
   <v>      -0.00825702      -0.01179260      -0.01113347 </v>
   <v>      -0.01190551       0.00798545       0.00918071 </v>
   <v>      -0.01499157       0.00876818       0.00875653 </v>
   <v>      -0.00663558      -0.01045248      -0.01211436 </v>
   <v>       0.01007548       0.01293303      -0.00565945 </v>
   <v>       0.00738473      -0.00664964       0.01272077 </v>
   <v>       0.00881758       0.01081668      -0.01269708 </v>
   <v>       0.01043003      -0.01033702       0.00724443 </v>
   <v>      -0.00820603       0.00807985       0.01155193 </v>
   <v>      -0.01142484      -0.00956105      -0.00800335 </v>
   <v>       0.00924945       0.00679230      -0.01133976 </v>
   <v>       0.01117696      -0.01424122       0.00740415 </v>
   <v>      -0.00597165       0.00852693       0.01265192 </v>
   <v>      -0.01296410      -0.00778578      -0.00879050 </v>
   <v>      -0.00018796      -0.00053445       0.00113700 </v>
   <v>       0.00033359       0.00003480       0.00098610 </v>
   <v>       0.00042585       0.00020113      -0.00121790 </v>
   <v>      -0.00039261      -0.00100721      -0.00079381 </v>
   <v>       0.00117831      -0.00166585      -0.00080128 </v>
   <v>      -0.00345937      -0.00210861      -0.00378922 </v>
   <v>       0.00044680       0.00130500      -0.00024249 </v>
   <v>      -0.00102392       0.00325697      -0.00018220 </v>
  </varray>
  <varray name="stress" >
   <v>       1.08168084       1.29787346      -1.45032445 </v>
   <v>       1.29787313       1.51172127       0.64333191 </v>
   <v>      -1.45032422       0.64333166      -3.32437535 </v>
  </varray>
  <energy>
   <i name="e_fr_energy">   -272.41678926 </i>
   <i name="e_wo_entrp">   -272.41678926 </i>
   <i name="e_0_energy">   -272.41678926 </i>
  </energy>
  <time name="totalsc">   14.28   14.43</time>
 </calculation>
 <calculation>
  <scstep>
   <time name="dav">    2.36    2.38</time>
   <time name="total">    2.88    2.91</time>
   <energy>
    <i name="alphaZ">    299.55344786 </i>
    <i name="ewald">  -8790.66136410 </i>
    <i name="hartreedc">  -2227.27411469 </i>
    <i name="XCdc">    537.77902377 </i>
    <i name="pawpsdc">   9821.45061171 </i>
    <i name="pawaedc">  -9965.48666236 </i>
    <i name="eentropy">     -0.00000000 </i>
    <i name="bandstr">  -2637.41456543 </i>
    <i name="atom">  12703.13999606 </i>
    <i name="e_fr_energy">   -258.91362718 </i>
    <i name="e_wo_entrp">   -258.91362718 </i>
    <i name="e_0_energy">   -258.91362718 </i>
   </energy>
  </scstep>
  <scstep>
   <time name="diag">    0.37    0.37</time>
   <time name="diis">    1.20    1.22</time>
   <time name="orth">    0.06    0.06</time>
   <time name="total">    2.15    2.18</time>
   <energy>
    <i name="e_fr_energy">   -258.91367030 </i>
    <i name="e_wo_entrp">   -258.91367030 </i>
    <i name="e_0_energy">   -258.91367030 </i>
   </energy>
  </scstep>
  <scstep>
   <time name="diag">    0.36    0.36</time>
   <time name="diis">    1.37    1.39</time>
   <time name="orth">    0.06    0.07</time>
   <time name="total">    2.32    2.34</time>
   <energy>
    <i name="e_fr_energy">   -258.91369139 </i>
    <i name="e_wo_entrp">   -258.91369139 </i>
    <i name="e_0_energy">   -258.91369139 </i>
   </energy>
  </scstep>
  <scstep>
   <time name="diag">    0.36    0.36</time>
   <time name="diis">    1.45    1.46</time>
   <time name="orth">    0.06    0.06</time>
   <time name="total">    2.40    2.42</time>
   <energy>
    <i name="e_fr_energy">   -258.91369680 </i>
    <i name="e_wo_entrp">   -258.91369680 </i>
    <i name="e_0_energy">   -258.91369680 </i>
   </energy>
  </scstep>
  <scstep>
   <time name="diag">    0.36    0.36</time>
   <time name="diis">    1.11    1.12</time>
   <time name="orth">    0.06    0.06</time>
   <time name="total">    1.99    2.01</time>
   <energy>
    <i name="alphaZ">    299.55344786 </i>
    <i name="ewald">  -8790.66136410 </i>
    <i name="hartreedc">  -2227.17335229 </i>
    <i name="XCdc">    537.77412539 </i>
    <i name="pawpsdc">   9819.76327436 </i>
    <i name="pawaedc">  -9963.79284774 </i>
    <i name="eentropy">     -0.00000000 </i>
    <i name="bandstr">  -2637.51697667 </i>
    <i name="atom">  12703.13999606 </i>
    <i name="e_fr_energy">   -258.91369712 </i>
    <i name="e_wo_entrp">   -258.91369712 </i>
    <i name="e_0_energy">   -258.91369712 </i>
   </energy>
  </scstep>
  <structure>
   <crystal>
    <varray name="basis" >
     <v>       9.67703940       0.00000000       0.00000000 </v>
     <v>       0.00000000       9.67703940       0.00000000 </v>
     <v>       0.00000000       0.00000000       9.67703940 </v>
    </varray>
    <i name="volume">    906.20724153 </i>
    <varray name="rec_basis" >
     <v>       0.10333739       0.00000000       0.00000000 </v>
     <v>       0.00000000       0.10333739       0.00000000 </v>
     <v>       0.00000000       0.00000000       0.10333739 </v>
    </varray>
   </crystal>
   <varray name="positions" >
    <v>       0.98218079       0.20006547       0.17913566 </v>
    <v>       0.98315314       0.72769951       0.71353323 </v>
    <v>       0.03269874       0.17655462       0.81045970 </v>
    <v>       0.02652034       0.68743775       0.29182500 </v>
    <v>       0.27414587       0.27942809       0.98456336 </v>
    <v>       0.17274265       0.85410305       0.04605365 </v>
    <v>       0.71203059       0.29840622       0.01539650 </v>
    <v>       0.66558926       0.65527959       0.96382334 </v>
    <v>       0.29753327       0.98442809       0.33623336 </v>
    <v>       0.33050148       0.04667626       0.68308522 </v>
    <v>       0.80392410       0.95794033       0.83014133 </v>
    <v>       0.79713622       0.00256860       0.17727685 </v>
    <v>       0.22342361       0.69877806       0.48620287 </v>
    <v>       0.17196056       0.31992326       0.52361696 </v>
    <v>       0.71336069       0.79905892       0.52147739 </v>
    <v>       0.68056869       0.15132326       0.46249116 </v>
    <v>       0.20541010       0.49165377       0.73859725 </v>
    <v>       0.32246239       0.54742128       0.17448646 </v>
    <v>       0.81409925       0.44705236       0.31812544 </v>
    <v>       0.80406985       0.51276520       0.67495580 </v>
    <v>       0.47862177       0.32290664       0.79213735 </v>
    <v>       0.48589410       0.79071291       0.29910854 </v>
    <v>       0.52230723       0.29280285       0.21491562 </v>
    <v>       0.52297949       0.80670115       0.71433754 </v>
    <v>       0.50270728       0.49262926       0.49995607 </v>
    <v>       0.49129413       0.99661272       0.99828035 </v>
    <v>       0.99557906       0.50832201       0.00443030 </v>
    <v>       0.99992388       0.00239905       0.49947237 </v>
    <v>       0.13636902       0.89276074       0.62001583 </v>
    <v>       0.11252030       0.13502718       0.37852189 </v>
    <v>       0.88673150       0.87453711       0.37289819 </v>
    <v>       0.86971191       0.10893606       0.62759115 </v>
    <v>       0.85687585       0.61031498       0.12689798 </v>
    <v>       0.89265307       0.38027897       0.86958522 </v>
    <v>       0.11959903       0.64593273       0.90156527 </v>
    <v>       0.12054478       0.39652789       0.13577192 </v>
    <v>       0.61118377       0.11720397       0.87071182 </v>
    <v>       0.61595574       0.86079105       0.10374174 </v>
    <v>       0.37482772       0.11259459       0.13310045 </v>
    <v>       0.35867477       0.88616494       0.87641379 </v>
    <v>       0.63034470       0.61065060       0.37800469 </v>
    <v>       0.62827042       0.35624503       0.60298485 </v>
    <v>       0.39486476       0.61236619       0.63902279 </v>
    <v>       0.36532440       0.38947809       0.37700070 </v>
    <v>       0.74885316       0.73690735       0.74936007 </v>
    <v>       0.75063325       0.22994931       0.24267863 </v>
    <v>       0.25232887       0.76082049       0.25791796 </v>
    <v>       0.24901565       0.26128817       0.74845315 </v>
    <v>       0.98411014       0.01805941       0.00260265 </v>
    <v>       0.02010124       0.53196462       0.52182931 </v>
    <v>       0.50578579       0.96440996       0.49953350 </v>
    <v>       0.50190163       0.45514032       0.00967775 </v>
   </varray>
  </structure>
  <varray name="forces" >
   <v>       0.00015323      -0.00122367      -0.00347892 </v>
   <v>       0.00013621      -0.00027994      -0.00127251 </v>
   <v>      -0.00101801      -0.00340696       0.00064910 </v>
   <v>      -0.00010758      -0.00415869       0.00017655 </v>
   <v>       0.00053052       0.00057147       0.00030698 </v>
   <v>      -0.00148858       0.00250558      -0.00034632 </v>
   <v>      -0.00091226       0.00216944      -0.00011290 </v>
   <v>      -0.00279609      -0.00225015       0.00062722 </v>
   <v>       0.00300259       0.00075736       0.00302976 </v>
   <v>       0.00354041      -0.00096364      -0.00177768 </v>
   <v>       0.00105668       0.00053418       0.00164936 </v>
   <v>       0.00208656       0.00006481      -0.00093207 </v>
   <v>      -0.00130565      -0.00180448       0.00021479 </v>
   <v>      -0.00233078       0.00195905       0.00052797 </v>
   <v>      -0.00187455       0.00069419       0.00032057 </v>
   <v>      -0.00137102      -0.00238692       0.00062119 </v>
   <v>      -0.00114347       0.00082786       0.00091803 </v>
   <v>       0.00195838      -0.00075840      -0.00216381 </v>
   <v>       0.00618893       0.00028244       0.00659316 </v>
   <v>       0.00116208      -0.00110430      -0.00185470 </v>
   <v>       0.00053690       0.00218655       0.00173366 </v>
   <v>       0.00069998       0.00163317       0.00160641 </v>
   <v>      -0.00035163       0.00288795      -0.00025882 </v>
   <v>      -0.00031214       0.00322281      -0.00104319 </v>
   <v>       0.00217972      -0.00468110      -0.00024845 </v>
   <v>      -0.00298337      -0.00219304      -0.00283364 </v>
   <v>      -0.00083024       0.00379525       0.00074798 </v>
   <v>      -0.00170839       0.00176164      -0.00027877 </v>
   <v>       0.00075514       0.00183915       0.00034288 </v>
   <v>      -0.00007006       0.00044544      -0.00110736 </v>
   <v>       0.00131335      -0.00063679      -0.00037806 </v>
   <v>      -0.00001701      -0.00173601      -0.00165696 </v>
   <v>      -0.00275169      -0.00062985      -0.00101691 </v>
   <v>       0.00095291      -0.00075815      -0.00148851 </v>
   <v>      -0.00061674       0.00044534       0.00375796 </v>
   <v>      -0.00254954       0.00263423       0.00284395 </v>
   <v>      -0.00042821       0.00095873      -0.00310912 </v>
   <v>       0.00162860      -0.00047888      -0.00099776 </v>
   <v>       0.00063331      -0.00084371       0.00073067 </v>
   <v>       0.00209694       0.00156175       0.00322150 </v>
   <v>      -0.00077035      -0.00300427      -0.00123351 </v>
   <v>      -0.00017794      -0.00098157      -0.00245191 </v>
   <v>       0.00135403      -0.00014901       0.00287386 </v>
   <v>      -0.00137913       0.00102001       0.00132873 </v>
   <v>      -0.00024875      -0.00051469       0.00090986 </v>
   <v>       0.00037186       0.00022578       0.00061997 </v>
   <v>       0.00049797       0.00019901      -0.00065488 </v>
   <v>      -0.00030806      -0.00068170      -0.00062656 </v>
   <v>       0.00095360      -0.00145481      -0.00065207 </v>
   <v>      -0.00339404      -0.00203797      -0.00376884 </v>
   <v>       0.00044523       0.00096439      -0.00040364 </v>
   <v>      -0.00098988       0.00297110      -0.00020423 </v>
  </varray>
  <varray name="stress" >
   <v>       0.81366102       1.29402305      -1.45438704 </v>
   <v>       1.29402244       1.25688581       0.63817607 </v>
   <v>      -1.45438650       0.63817608      -3.58823814 </v>
  </varray>
  <energy>
   <i name="e_fr_energy">   -272.41691411 </i>
   <i name="e_wo_entrp">   -272.41691411 </i>
   <i name="e_0_energy">   -272.41691411 </i>
  </energy>
  <time name="totalsc">   14.81   14.97</time>
 </calculation>
 <calculation>
  <scstep>
   <time name="dav">    2.42    2.44</time>
   <time name="total">    2.95    2.97</time>
   <energy>
    <i name="alphaZ">    299.55344786 </i>
    <i name="ewald">  -8790.69473587 </i>
    <i name="hartreedc">  -2227.14817132 </i>
    <i name="XCdc">    537.77322454 </i>
    <i name="pawpsdc">   9819.67622855 </i>
    <i name="pawaedc">  -9963.70485009 </i>
    <i name="eentropy">     -0.00000000 </i>
    <i name="bandstr">  -2637.50883517 </i>
    <i name="atom">  12703.13999606 </i>
    <i name="e_fr_energy">   -258.91369544 </i>
    <i name="e_wo_entrp">   -258.91369544 </i>
    <i name="e_0_energy">   -258.91369544 </i>
   </energy>
  </scstep>
  <scstep>
   <time name="diag">    3.99    4.01</time>
   <time name="diis">    0.81    0.82</time>
   <time name="orth">    0.06    0.06</time>
   <time name="total">    5.59    5.63</time>
   <energy>
    <i name="alphaZ">    299.55344786 </i>
    <i name="ewald">  -8790.69473587 </i>
    <i name="hartreedc">  -2227.14509651 </i>
    <i name="XCdc">    537.77288357 </i>
    <i name="pawpsdc">   9819.61323716 </i>
    <i name="pawaedc">  -9963.64150781 </i>
    <i name="eentropy">     -0.00000000 </i>
    <i name="bandstr">  -2637.51191970 </i>
    <i name="atom">  12703.13999606 </i>
    <i name="e_fr_energy">   -258.91369524 </i>
    <i name="e_wo_entrp">   -258.91369524 </i>
    <i name="e_0_energy">   -258.91369524 </i>
   </energy>
  </scstep>
  <structure>
   <crystal>
    <varray name="basis" >
     <v>       9.67703940       0.00000000       0.00000000 </v>
     <v>       0.00000000       9.67703940       0.00000000 </v>
     <v>       0.00000000       0.00000000       9.67703940 </v>
    </varray>
    <i name="volume">    906.20724153 </i>
    <varray name="rec_basis" >
     <v>       0.10333739       0.00000000       0.00000000 </v>
     <v>       0.00000000       0.10333739       0.00000000 </v>
     <v>       0.00000000       0.00000000       0.10333739 </v>
    </varray>
   </crystal>
   <varray name="positions" >
    <v>       0.98218092       0.20006539       0.17913537 </v>
    <v>       0.98315324       0.72769950       0.71353310 </v>
    <v>       0.03269855       0.17655430       0.81045976 </v>
    <v>       0.02652024       0.68743734       0.29182504 </v>
    <v>       0.27414594       0.27942814       0.98456348 </v>
    <v>       0.17274251       0.85410329       0.04605354 </v>
    <v>       0.71203049       0.29840642       0.01539643 </v>
    <v>       0.66558902       0.65527939       0.96382353 </v>
    <v>       0.29753359       0.98442827       0.33623364 </v>
    <v>       0.33050183       0.04667610       0.68308502 </v>
    <v>       0.80392418       0.95794046       0.83014151 </v>
    <v>       0.79713641       0.00256852       0.17727676 </v>
    <v>       0.22342346       0.69877789       0.48620298 </v>
    <v>       0.17196035       0.31992343       0.52361691 </v>
    <v>       0.71336049       0.79905898       0.52147737 </v>
    <v>       0.68056858       0.15132304       0.46249133 </v>
    <v>       0.20541003       0.49165399       0.73859732 </v>
    <v>       0.32246257       0.54742112       0.17448626 </v>
    <v>       0.81409983       0.44705248       0.31812606 </v>
    <v>       0.80407000       0.51276501       0.67495565 </v>
    <v>       0.47862189       0.32290680       0.79213756 </v>
    <v>       0.48589430       0.79071304       0.29910868 </v>
    <v>       0.52230711       0.29280312       0.21491559 </v>
    <v>       0.52297936       0.80670142       0.71433741 </v>
    <v>       0.50270711       0.49262934       0.49995604 </v>
    <v>       0.49129456       0.99661287       0.99828038 </v>
    <v>       0.99557874       0.50832201       0.00443050 </v>
    <v>       0.99992414       0.00239915       0.49947228 </v>
    <v>       0.13637074       0.89275952       0.62001735 </v>
    <v>       0.11252159       0.13502886       0.37852030 </v>
    <v>       0.88673012       0.87453529       0.37289646 </v>
    <v>       0.86971003       0.10893743       0.62759271 </v>
    <v>       0.85687364       0.61031641       0.12689943 </v>
    <v>       0.89265197       0.38027737       0.86958340 </v>
    <v>       0.11960066       0.64593475       0.90156416 </v>
    <v>       0.12054611       0.39652667       0.13577376 </v>
    <v>       0.61118519       0.11720561       0.87071000 </v>
    <v>       0.61595729       0.86078944       0.10374294 </v>
    <v>       0.37482638       0.11259591       0.13310224 </v>
    <v>       0.35867282       0.88616333       0.87641233 </v>
    <v>       0.63034621       0.61065186       0.37800296 </v>
    <v>       0.62827220       0.35624283       0.60298616 </v>
    <v>       0.39486373       0.61236755       0.63902462 </v>
    <v>       0.36532243       0.38947679       0.37699924 </v>
    <v>       0.74885314       0.73690729       0.74936021 </v>
    <v>       0.75063328       0.22994930       0.24267876 </v>
    <v>       0.25232890       0.76082051       0.25791779 </v>
    <v>       0.24901560       0.26128805       0.74845306 </v>
    <v>       0.98411031       0.01805918       0.00260256 </v>
    <v>       0.02010087       0.53196436       0.52182891 </v>
    <v>       0.50578584       0.96441015       0.49953349 </v>
    <v>       0.50190153       0.45514074       0.00967770 </v>
   </varray>
  </structure>
  <varray name="forces" >
   <v>       0.00023870      -0.00128396      -0.00372735 </v>
   <v>       0.00020143      -0.00029667      -0.00138855 </v>
   <v>      -0.00117917      -0.00373098       0.00068004 </v>
   <v>      -0.00017845      -0.00457065       0.00015572 </v>
   <v>       0.00060304       0.00063982       0.00042032 </v>
   <v>      -0.00159568       0.00272548      -0.00042129 </v>
   <v>      -0.00103040       0.00240559      -0.00017896 </v>
   <v>      -0.00303365      -0.00245069       0.00079207 </v>
   <v>       0.00323189       0.00088365       0.00327342 </v>
   <v>       0.00385572      -0.00110074      -0.00194883 </v>
   <v>       0.00113471       0.00067423       0.00188736 </v>
   <v>       0.00234791      -0.00000634      -0.00107887 </v>
   <v>      -0.00141542      -0.00195584       0.00028873 </v>
   <v>      -0.00253986       0.00212012       0.00050826 </v>
   <v>      -0.00203975       0.00073270       0.00031939 </v>
   <v>      -0.00146562      -0.00262903       0.00074767 </v>
   <v>      -0.00126797       0.00109318       0.00102321 </v>
   <v>       0.00207833      -0.00087651      -0.00229513 </v>
   <v>       0.00621087       0.00026098       0.00660733 </v>
   <v>       0.00129578      -0.00128399      -0.00202183 </v>
   <v>       0.00062779       0.00235023       0.00193536 </v>
   <v>       0.00085911       0.00174797       0.00173776 </v>
   <v>      -0.00043315       0.00307942      -0.00026973 </v>
   <v>      -0.00040416       0.00344396      -0.00113873 </v>
   <v>       0.00226190      -0.00480229      -0.00023965 </v>
   <v>      -0.00317022      -0.00228098      -0.00290510 </v>
   <v>      -0.00076892       0.00387226       0.00069066 </v>
   <v>      -0.00182040       0.00173345      -0.00028117 </v>
   <v>       0.00048540       0.00207957       0.00010594 </v>
   <v>      -0.00028015       0.00018108      -0.00089532 </v>
   <v>       0.00159987      -0.00032899      -0.00007045 </v>
   <v>       0.00029983      -0.00201085      -0.00197145 </v>
   <v>      -0.00250227      -0.00084333      -0.00126130 </v>
   <v>       0.00116721      -0.00052319      -0.00122983 </v>
   <v>      -0.00091621       0.00007510       0.00404196 </v>
   <v>      -0.00282955       0.00289149       0.00258980 </v>
   <v>      -0.00064134       0.00075157      -0.00291357 </v>
   <v>       0.00143303      -0.00023154      -0.00119383 </v>
   <v>       0.00089175      -0.00109434       0.00043257 </v>
   <v>       0.00251351       0.00189676       0.00360378 </v>
   <v>      -0.00104726      -0.00328326      -0.00099100 </v>
   <v>      -0.00051836      -0.00060191      -0.00274652 </v>
   <v>       0.00156085      -0.00037526       0.00262595 </v>
   <v>      -0.00109001       0.00125462       0.00160377 </v>
   <v>      -0.00024857      -0.00051202       0.00090493 </v>
   <v>       0.00036476       0.00022732       0.00058690 </v>
   <v>       0.00051016       0.00019728      -0.00062368 </v>
   <v>      -0.00030956      -0.00068177      -0.00062543 </v>
   <v>       0.00096429      -0.00148705      -0.00067825 </v>
   <v>      -0.00346578      -0.00209654      -0.00386578 </v>
   <v>       0.00046111       0.00098583      -0.00039690 </v>
   <v>      -0.00100707       0.00303504      -0.00020441 </v>
  </varray>
  <varray name="stress" >
   <v>       0.80277793       1.29385036      -1.45461415 </v>
   <v>       1.29384988       1.24661900       0.63782109 </v>
   <v>      -1.45461369       0.63782097      -3.59885107 </v>
  </varray>
  <energy>
   <i name="e_fr_energy">   -272.41691442 </i>
   <i name="e_wo_entrp">   -272.41691442 </i>
   <i name="e_0_energy">   -272.41691442 </i>
  </energy>
  <time name="totalsc">   11.61   11.71</time>
 </calculation>
 <calculation>
  <scstep>
   <time name="dav">    2.39    2.41</time>
   <time name="total">    2.92    2.94</time>
   <energy>
    <i name="alphaZ">    299.55344786 </i>
    <i name="ewald">  -8790.74671374 </i>
    <i name="hartreedc">  -2227.09701608 </i>
    <i name="XCdc">    537.77215933 </i>
    <i name="pawpsdc">   9819.57212467 </i>
    <i name="pawaedc">  -9963.60008382 </i>
    <i name="eentropy">     -0.00000000 </i>
    <i name="bandstr">  -2637.50762491 </i>
    <i name="atom">  12703.13999606 </i>
    <i name="e_fr_energy">   -258.91371062 </i>
    <i name="e_wo_entrp">   -258.91371062 </i>
    <i name="e_0_energy">   -258.91371062 </i>
   </energy>
  </scstep>
  <scstep>
   <time name="diag">    0.36    0.37</time>
   <time name="diis">    1.48    1.50</time>
   <time name="orth">    0.06    0.07</time>
   <time name="total">    2.43    2.45</time>
   <energy>
    <i name="e_fr_energy">   -258.91371353 </i>
    <i name="e_wo_entrp">   -258.91371353 </i>
    <i name="e_0_energy">   -258.91371353 </i>
   </energy>
  </scstep>
  <scstep>
   <time name="diag">    0.39    0.40</time>
   <time name="diis">    1.05    1.07</time>
   <time name="orth">    0.06    0.06</time>
   <time name="total">    1.97    2.00</time>
   <energy>
    <i name="alphaZ">    299.55344786 </i>
    <i name="ewald">  -8790.74671374 </i>
    <i name="hartreedc">  -2227.09416421 </i>
    <i name="XCdc">    537.77185621 </i>
    <i name="pawpsdc">   9819.49342768 </i>
    <i name="pawaedc">  -9963.52088135 </i>
    <i name="eentropy">     -0.00000000 </i>
    <i name="bandstr">  -2637.51068262 </i>
    <i name="atom">  12703.13999606 </i>
    <i name="e_fr_energy">   -258.91371410 </i>
    <i name="e_wo_entrp">   -258.91371410 </i>
    <i name="e_0_energy">   -258.91371410 </i>
   </energy>
  </scstep>
  <structure>
   <crystal>
    <varray name="basis" >
     <v>       9.67703940       0.00000000       0.00000000 </v>
     <v>       0.00000000       9.67703940       0.00000000 </v>
     <v>       0.00000000       0.00000000       9.67703940 </v>
    </varray>
    <i name="volume">    906.20724153 </i>
    <varray name="rec_basis" >
     <v>       0.10333739       0.00000000       0.00000000 </v>
     <v>       0.00000000       0.10333739       0.00000000 </v>
     <v>       0.00000000       0.00000000       0.10333739 </v>
    </varray>
   </crystal>
   <varray name="positions" >
    <v>       0.98218169       0.20006196       0.17912533 </v>
    <v>       0.98315386       0.72769871       0.71352934 </v>
    <v>       0.03269528       0.17654422       0.81046159 </v>
    <v>       0.02651967       0.68742499       0.29182548 </v>
    <v>       0.27414759       0.27942987       0.98456469 </v>
    <v>       0.17273820       0.85411065       0.04605232 </v>
    <v>       0.71202769       0.29841292       0.01539588 </v>
    <v>       0.66558085       0.65527278       0.96382579 </v>
    <v>       0.29754235       0.98443077       0.33624247 </v>
    <v>       0.33051225       0.04667305       0.68307973 </v>
    <v>       0.80392722       0.95794235       0.83014663 </v>
    <v>       0.79714273       0.00256842       0.17727385 </v>
    <v>       0.22341961       0.69877261       0.48620384 </v>
    <v>       0.17195351       0.31992914       0.52361819 </v>
    <v>       0.71335496       0.79906095       0.52147819 </v>
    <v>       0.68056463       0.15131595       0.46249345 </v>
    <v>       0.20540665       0.49165708       0.73860007 </v>
    <v>       0.32246819       0.54741866       0.17448005 </v>
    <v>       0.81411666       0.44705329       0.31814395 </v>
    <v>       0.80407353       0.51276146       0.67495021 </v>
    <v>       0.47862365       0.32291311       0.79214284 </v>
    <v>       0.48589674       0.79071775       0.29911337 </v>
    <v>       0.52230585       0.29281145       0.21491486 </v>
    <v>       0.52297816       0.80671069       0.71433429 </v>
    <v>       0.50271284       0.49261689       0.49995539 </v>
    <v>       0.49128672       0.99660706       0.99827282 </v>
    <v>       0.99557640       0.50833212       0.00443251 </v>
    <v>       0.99991965       0.00240378       0.49947145 </v>
    <v>       0.13637377       0.89276370       0.62001918 </v>
    <v>       0.11252218       0.13503106       0.37851632 </v>
    <v>       0.88673288       0.87453255       0.37289448 </v>
    <v>       0.86970888       0.10893359       0.62758916 </v>
[...]
   <v>      -0.00035636       0.00045735      -0.00093773 </v>
   <v>      -0.00005331       0.00119885      -0.00048904 </v>
   <v>       0.00053614      -0.00045894       0.00086302 </v>
   <v>      -0.00019039       0.00059996       0.00108584 </v>
   <v>      -0.00025085       0.00005364      -0.00047388 </v>
   <v>      -0.00108889      -0.00008028      -0.00073112 </v>
   <v>       0.00027053      -0.00027059      -0.00016728 </v>
   <v>      -0.00037229       0.00032343       0.00027325 </v>
  </varray>
  <varray name="stress" >
   <v>       0.63374197       1.27076608      -1.45998991 </v>
   <v>       1.27076562       1.04203384       0.58773976 </v>
   <v>      -1.45998938       0.58773980      -3.79317350 </v>
  </varray>
  <energy>
   <i name="e_fr_energy">   -272.41718574 </i>
   <i name="e_wo_entrp">   -272.41718574 </i>
   <i name="e_0_energy">   -272.41718574 </i>
  </energy>
  <time name="totalsc">    6.22    6.28</time>
 </calculation>
 <calculation>
  <scstep>
   <time name="dav">    1.39    1.40</time>
   <time name="total">    1.91    1.93</time>
   <energy>
    <i name="alphaZ">    299.55344786 </i>
    <i name="ewald">  -8792.12589066 </i>
    <i name="hartreedc">  -2225.80470690 </i>
    <i name="XCdc">    537.75247732 </i>
    <i name="pawpsdc">   9817.60514342 </i>
    <i name="pawaedc">  -9961.62379599 </i>
    <i name="eentropy">     -0.00000000 </i>
    <i name="bandstr">  -2637.41068566 </i>
    <i name="atom">  12703.13999606 </i>
    <i name="e_fr_energy">   -258.91401455 </i>
    <i name="e_wo_entrp">   -258.91401455 </i>
    <i name="e_0_energy">   -258.91401455 </i>
   </energy>
  </scstep>
  <scstep>
   <time name="diag">    0.36    0.37</time>
   <time name="diis">    0.36    0.36</time>
   <time name="orth">    0.07    0.07</time>
   <time name="total">    1.25    1.26</time>
   <energy>
    <i name="alphaZ">    299.55344786 </i>
    <i name="ewald">  -8792.12589066 </i>
    <i name="hartreedc">  -2225.80470693 </i>
    <i name="XCdc">    537.75247734 </i>
    <i name="pawpsdc">   9817.60514679 </i>
    <i name="pawaedc">  -9961.62379941 </i>
    <i name="eentropy">     -0.00000000 </i>
    <i name="bandstr">  -2637.41068560 </i>
    <i name="atom">  12703.13999606 </i>
    <i name="e_fr_energy">   -258.91401455 </i>
    <i name="e_wo_entrp">   -258.91401455 </i>
    <i name="e_0_energy">   -258.91401455 </i>
   </energy>
  </scstep>
  <structure>
   <crystal>
    <varray name="basis" >
     <v>       9.67703940       0.00000000       0.00000000 </v>
     <v>       0.00000000       9.67703940       0.00000000 </v>
     <v>       0.00000000       0.00000000       9.67703940 </v>
    </varray>
    <i name="volume">    906.20724153 </i>
    <varray name="rec_basis" >
     <v>       0.10333739       0.00000000       0.00000000 </v>
     <v>       0.00000000       0.10333739       0.00000000 </v>
     <v>       0.00000000       0.00000000       0.10333739 </v>
    </varray>
   </crystal>
   <varray name="positions" >
    <v>       0.98222419       0.20012660       0.17874276 </v>
    <v>       0.98310103       0.72790998       0.71346171 </v>
    <v>       0.03268800       0.17615907       0.81032366 </v>
    <v>       0.02662504       0.68696343       0.29163887 </v>
    <v>       0.27400288       0.27948498       0.98472275 </v>
    <v>       0.17278574       0.85438187       0.04622791 </v>
    <v>       0.71200484       0.29868190       0.01535915 </v>
    <v>       0.66518929       0.65524082       0.96376232 </v>
    <v>       0.29772366       0.98454986       0.33654093 </v>
    <v>       0.33088585       0.04679775       0.68309481 </v>
    <v>       0.80377983       0.95788985       0.83029660 </v>
    <v>       0.79725108       0.00261226       0.17732933 </v>
    <v>       0.22346500       0.69859462       0.48623106 </v>
    <v>       0.17160039       0.31993163       0.52369494 </v>
    <v>       0.71336423       0.79890323       0.52137398 </v>
    <v>       0.68057721       0.15110140       0.46231146 </v>
    <v>       0.20555955       0.49172359       0.73906353 </v>
    <v>       0.32256079       0.54757391       0.17440584 </v>
    <v>       0.81511863       0.44686131       0.31915553 </v>
    <v>       0.80404615       0.51263303       0.67486905 </v>
    <v>       0.47854024       0.32323735       0.79218885 </v>
    <v>       0.48606332       0.79072004       0.29909725 </v>
    <v>       0.52238589       0.29317762       0.21497906 </v>
    <v>       0.52292876       0.80688774       0.71424639 </v>
    <v>       0.50273396       0.49246754       0.49999240 </v>
    <v>       0.49131086       0.99674599       0.99829002 </v>
    <v>       0.99538046       0.50843103       0.00443867 </v>
    <v>       0.99995509       0.00222440       0.49928093 </v>
    <v>       0.13653554       0.89281177       0.61991120 </v>
    <v>       0.11239111       0.13501480       0.37833615 </v>
    <v>       0.88685116       0.87425276       0.37273630 </v>
    <v>       0.86966630       0.10866926       0.62743794 </v>
    <v>       0.85643653       0.61006579       0.12688224 </v>
    <v>       0.89283239       0.38017989       0.86946454 </v>
    <v>       0.11938208       0.64618056       0.90169463 </v>
    <v>       0.12041312       0.39688107       0.13597562 </v>
    <v>       0.61108437       0.11736439       0.87059220 </v>
    <v>       0.61607943       0.86088578       0.10361019 </v>
    <v>       0.37492051       0.11269101       0.13322540 </v>
    <v>       0.35866979       0.88627157       0.87650650 </v>
    <v>       0.63037105       0.61036611       0.37793515 </v>
    <v>       0.62827141       0.35598767       0.60289873 </v>
    <v>       0.39498462       0.61224174       0.63920582 </v>
    <v>       0.36512447       0.38953158       0.37710785 </v>
    <v>       0.74877852       0.73681468       0.74934153 </v>
    <v>       0.75073328       0.23007735       0.24264980 </v>
    <v>       0.25241780       0.76093227       0.25799370 </v>
    <v>       0.24894917       0.26129265       0.74849846 </v>
    <v>       0.98411980       0.01798091       0.00253265 </v>
    <v>       0.01955824       0.53167611       0.52119838 </v>
    <v>       0.50587409       0.96441477       0.49952115 </v>
    <v>       0.50170326       0.45540270       0.00962410 </v>
   </varray>
  </structure>
  <varray name="forces" >
   <v>      -0.00072367       0.00010361      -0.00096021 </v>
   <v>      -0.00114671      -0.00005513       0.00056039 </v>
   <v>       0.00053746      -0.00053214      -0.00046734 </v>
   <v>       0.00014574      -0.00133816      -0.00209207 </v>
   <v>      -0.00120241      -0.00005013      -0.00016539 </v>
   <v>      -0.00040639       0.00092057       0.00008958 </v>
   <v>       0.00072065       0.00110567       0.00073051 </v>
   <v>      -0.00034229       0.00010627      -0.00037193 </v>
   <v>       0.00067068      -0.00040387       0.00065852 </v>
   <v>       0.00020093       0.00106094      -0.00015973 </v>
   <v>      -0.00075359      -0.00070902       0.00016535 </v>
   <v>       0.00057920       0.00089531       0.00013428 </v>
   <v>       0.00013951      -0.00099855      -0.00086580 </v>
   <v>      -0.00065923      -0.00005760       0.00002185 </v>
   <v>      -0.00001121      -0.00053588       0.00066462 </v>
   <v>       0.00001654      -0.00009767       0.00004490 </v>
   <v>       0.00091739      -0.00105149       0.00191686 </v>
   <v>       0.00000403       0.00053106       0.00026603 </v>
   <v>       0.00156119      -0.00113977       0.00143105 </v>
   <v>      -0.00028936       0.00047338       0.00037137 </v>
   <v>      -0.00015936       0.00020570      -0.00061175 </v>
   <v>       0.00012203       0.00015859      -0.00025689 </v>
   <v>      -0.00034725       0.00084547       0.00058347 </v>
   <v>       0.00095967       0.00070878       0.00001757 </v>
   <v>       0.00048556      -0.00125598       0.00041511 </v>
   <v>      -0.00114728      -0.00116687       0.00007378 </v>
   <v>       0.00214349       0.00079588       0.00025515 </v>
   <v>       0.00011073       0.00252947      -0.00085681 </v>
   <v>       0.00037603      -0.00194715      -0.00102202 </v>
   <v>       0.00106555      -0.00061326       0.00035407 </v>
   <v>       0.00143045      -0.00016207       0.00183321 </v>
   <v>      -0.00018923      -0.00182100      -0.00017235 </v>
   <v>       0.00003653      -0.00077676       0.00097346 </v>
   <v>       0.00023872       0.00052680       0.00068644 </v>
   <v>      -0.00162639      -0.00032323      -0.00181131 </v>
   <v>      -0.00007685      -0.00097012      -0.00059515 </v>
   <v>      -0.00092690       0.00050868       0.00151750 </v>
   <v>       0.00045553       0.00230318       0.00087913 </v>
   <v>       0.00248407       0.00155158      -0.00041565 </v>
   <v>      -0.00115408      -0.00143369      -0.00197809 </v>
   <v>      -0.00158521       0.00074355       0.00002924 </v>
   <v>      -0.00077366       0.00008009       0.00091854 </v>
   <v>      -0.00007628      -0.00027116      -0.00171370 </v>
   <v>      -0.00029288      -0.00027030      -0.00049221 </v>
   <v>      -0.00035863       0.00045672      -0.00093752 </v>
   <v>      -0.00005150       0.00120206      -0.00048902 </v>
   <v>       0.00053827      -0.00045749       0.00086409 </v>
   <v>      -0.00019192       0.00060079       0.00108685 </v>
   <v>      -0.00025086       0.00005440      -0.00047424 </v>
   <v>      -0.00109628      -0.00008436      -0.00074050 </v>
   <v>       0.00027391      -0.00027225      -0.00016635 </v>
   <v>      -0.00037443       0.00032654       0.00027312 </v>
  </varray>
  <varray name="stress" >
   <v>       0.63373991       1.27076757      -1.45998980 </v>
   <v>       1.27076708       1.04203276       0.58774095 </v>
   <v>      -1.45998936       0.58774113      -3.79317603 </v>
  </varray>
  <energy>
   <i name="e_fr_energy">   -272.41718574 </i>
   <i name="e_wo_entrp">   -272.41718574 </i>
   <i name="e_0_energy">   -272.41718574 </i>
  </energy>
  <time name="totalsc">    6.23    6.30</time>
 </calculation>
 <calculation>
  <scstep>
   <time name="dav">    2.09    2.11</time>
   <time name="total">    2.62    2.64</time>
   <energy>
    <i name="alphaZ">    299.55344786 </i>
    <i name="ewald">  -8792.12574173 </i>
    <i name="hartreedc">  -2225.80437188 </i>
    <i name="XCdc">    537.75221683 </i>
    <i name="pawpsdc">   9817.60514978 </i>
    <i name="pawaedc">  -9961.62380244 </i>
    <i name="eentropy">     -0.00000000 </i>
    <i name="bandstr">  -2637.41088763 </i>
    <i name="atom">  12703.13999606 </i>
    <i name="e_fr_energy">   -258.91399315 </i>
    <i name="e_wo_entrp">   -258.91399315 </i>
    <i name="e_0_energy">   -258.91399315 </i>
   </energy>
  </scstep>
  <scstep>
   <time name="diag">    0.36    0.37</time>
   <time name="diis">    1.44    1.45</time>
   <time name="orth">    0.06    0.06</time>
   <time name="total">    2.38    2.40</time>
   <energy>
    <i name="e_fr_energy">   -258.91400861 </i>
    <i name="e_wo_entrp">   -258.91400861 </i>
    <i name="e_0_energy">   -258.91400861 </i>
   </energy>
  </scstep>
  <scstep>
   <time name="diag">    0.36    0.36</time>
   <time name="diis">    1.57    1.59</time>
   <time name="orth">    0.06    0.06</time>
   <time name="total">    2.52    2.54</time>
   <energy>
    <i name="e_fr_energy">   -258.91401300 </i>
    <i name="e_wo_entrp">   -258.91401300 </i>
    <i name="e_0_energy">   -258.91401300 </i>
   </energy>
  </scstep>
  <scstep>
   <time name="diag">    0.36    0.36</time>
   <time name="diis">    1.03    1.04</time>
   <time name="orth">    0.06    0.06</time>
   <time name="total">    1.91    1.93</time>
   <energy>
    <i name="alphaZ">    299.55344786 </i>
    <i name="ewald">  -8792.12574173 </i>
    <i name="hartreedc">  -2225.80519082 </i>
    <i name="XCdc">    537.75223749 </i>
    <i name="pawpsdc">   9817.59830698 </i>
    <i name="pawaedc">  -9961.61692772 </i>
    <i name="eentropy">     -0.00000000 </i>
    <i name="bandstr">  -2637.41014144 </i>
    <i name="atom">  12703.13999606 </i>
    <i name="e_fr_energy">   -258.91401331 </i>
    <i name="e_wo_entrp">   -258.91401331 </i>
    <i name="e_0_energy">   -258.91401331 </i>
   </energy>
  </scstep>
  <structure>
   <crystal>
    <varray name="basis" >
     <v>       9.67703940       0.00000000       0.00000000 </v>
     <v>       0.00000000       9.67703940       0.00000000 </v>
     <v>       0.00000000       0.00000000       9.67703940 </v>
    </varray>
    <i name="volume">    906.20724153 </i>
    <varray name="rec_basis" >
     <v>       0.10333739       0.00000000       0.00000000 </v>
     <v>       0.00000000       0.10333739       0.00000000 </v>
     <v>       0.00000000       0.00000000       0.10333739 </v>
    </varray>
   </crystal>
   <varray name="positions" >
    <v>       0.98221776       0.20011340       0.17875644 </v>
    <v>       0.98310750       0.72788848       0.71346242 </v>
    <v>       0.03270004       0.17617300       0.81033369 </v>
    <v>       0.02661984       0.68697235       0.29165646 </v>
    <v>       0.27400520       0.27949551       0.98472003 </v>
    <v>       0.17277623       0.85437125       0.04622800 </v>
    <v>       0.71200275       0.29866920       0.01536002 </v>
    <v>       0.66519257       0.65522957       0.96375728 </v>
    <v>       0.29771542       0.98454294       0.33653670 </v>
    <v>       0.33087683       0.04680184       0.68308375 </v>
    <v>       0.80380164       0.95788415       0.83029316 </v>
    <v>       0.79725333       0.00260700       0.17732348 </v>
    <v>       0.22346382       0.69860107       0.48623623 </v>
    <v>       0.17161060       0.31993855       0.52369241 </v>
    <v>       0.71335752       0.79892099       0.52138077 </v>
    <v>       0.68056653       0.15110139       0.46231053 </v>
    <v>       0.20553388       0.49171159       0.73902323 </v>
    <v>       0.32256250       0.54757369       0.17439732 </v>
    <v>       0.81507653       0.44686453       0.31910839 </v>
    <v>       0.80405233       0.51264211       0.67485857 </v>
    <v>       0.47854101       0.32323206       0.79218362 </v>
    <v>       0.48605438       0.79072830       0.29910113 </v>
    <v>       0.52238086       0.29316199       0.21497791 </v>
    <v>       0.52294147       0.80688834       0.71425262 </v>
    <v>       0.50273087       0.49247979       0.50000541 </v>
    <v>       0.49131253       0.99673581       0.99829409 </v>
    <v>       0.99540183       0.50843630       0.00444284 </v>
    <v>       0.99994449       0.00225241       0.49928152 </v>
    <v>       0.13652578       0.89281968       0.61992284 </v>
    <v>       0.11239574       0.13501783       0.37835022 </v>
    <v>       0.88684394       0.87428055       0.37274894 </v>
    <v>       0.86966396       0.10871241       0.62745753 </v>
    <v>       0.85646346       0.61008860       0.12688683 </v>
    <v>       0.89281657       0.38017987       0.86946606 </v>
    <v>       0.11940047       0.64615602       0.90169690 </v>
    <v>       0.12041420       0.39686866       0.13597286 </v>
    <v>       0.61109589       0.11734951       0.87058378 </v>
    <v>       0.61606885       0.86087174       0.10361410 </v>
    <v>       0.37491478       0.11267531       0.13321186 </v>
    <v>       0.35866890       0.88625613       0.87650619 </v>
    <v>       0.63037454       0.61037590       0.37793961 </v>
    <v>       0.62827925       0.35599601       0.60289799 </v>
    <v>       0.39498053       0.61224130       0.63920059 </v>
    <v>       0.36513458       0.38951810       0.37710089 </v>
    <v>       0.74878808       0.73681641       0.74934168 </v>
    <v>       0.75072619       0.23006434       0.24265036 </v>
    <v>       0.25241048       0.76092723       0.25799041 </v>
    <v>       0.24895475       0.26128845       0.74849522 </v>
    <v>       0.98412023       0.01797830       0.00253404 </v>
    <v>       0.01958389       0.53168733       0.52122854 </v>
    <v>       0.50586528       0.96441901       0.49951942 </v>
    <v>       0.50170942       0.45539371       0.00962515 </v>
   </varray>
  </structure>
  <varray name="forces" >
   <v>      -0.00039148       0.00061677      -0.00139077 </v>
   <v>      -0.00097438       0.00063277       0.00043590 </v>
   <v>      -0.00016504      -0.00082465      -0.00069033 </v>
   <v>       0.00027513      -0.00126980      -0.00228053 </v>
   <v>      -0.00107215      -0.00081753      -0.00018308 </v>
   <v>       0.00028712       0.00162717      -0.00013441 </v>
   <v>       0.00083012       0.00168990       0.00040437 </v>
   <v>      -0.00032646       0.00074106       0.00006151 </v>
   <v>       0.00112411       0.00000824       0.00093381 </v>
   <v>       0.00077094       0.00024268       0.00068907 </v>
   <v>      -0.00127863      -0.00023267       0.00012862 </v>
   <v>       0.00004946       0.00091270       0.00021324 </v>
   <v>       0.00002263      -0.00105805      -0.00126405 </v>
   <v>      -0.00077760      -0.00035340      -0.00003261 </v>
   <v>       0.00020216      -0.00100245       0.00036968 </v>
   <v>       0.00071662      -0.00002488       0.00039275 </v>
   <v>       0.00148871      -0.00048425       0.00329225 </v>
   <v>      -0.00008854       0.00034463       0.00092710 </v>
   <v>       0.00279735      -0.00116477       0.00292484 </v>
   <v>      -0.00062415      -0.00038446       0.00112338 </v>
   <v>       0.00014106       0.00034222      -0.00028276 </v>
   <v>       0.00074921      -0.00057637      -0.00039443 </v>
   <v>      -0.00028800       0.00102141       0.00050446 </v>
   <v>      -0.00016167       0.00076002      -0.00019412 </v>
   <v>       0.00155595      -0.00431038      -0.00353941 </v>
   <v>      -0.00103887      -0.00117024      -0.00291326 </v>
   <v>      -0.00266599      -0.00257622      -0.00074616 </v>
   <v>       0.00067384       0.00012893       0.00370940 </v>
   <v>      -0.00074863      -0.00119353      -0.00248624 </v>
   <v>       0.00164207       0.00066386      -0.00150756 </v>
   <v>       0.00111895      -0.00169940       0.00083435 </v>
   <v>       0.00106629      -0.00454636      -0.00251934 </v>
   <v>      -0.00087860      -0.00171530       0.00025862 </v>
   <v>       0.00245061       0.00246360       0.00239044 </v>
   <v>      -0.00086269       0.00229005      -0.00311850 </v>
   <v>       0.00033342      -0.00092701       0.00013937 </v>
   <v>      -0.00238591       0.00036907       0.00291442 </v>
   <v>       0.00161844       0.00271296       0.00115226 </v>
   <v>       0.00219619       0.00317158       0.00096794 </v>
   <v>      -0.00053363      -0.00019574      -0.00186190 </v>
   <v>      -0.00247549       0.00038898       0.00033360 </v>
   <v>      -0.00158753       0.00014105       0.00096375 </v>
   <v>      -0.00065591       0.00092231      -0.00010896 </v>
   <v>       0.00024319       0.00151789       0.00114912 </v>
   <v>      -0.00070850       0.00042693      -0.00099170 </v>
   <v>       0.00009208       0.00167587      -0.00073036 </v>
   <v>       0.00075693      -0.00027694       0.00129222 </v>
   <v>      -0.00041246       0.00114294       0.00114009 </v>
   <v>      -0.00018876       0.00009281      -0.00038504 </v>
   <v>      -0.00192739      -0.00039293      -0.00196748 </v>
   <v>       0.00068099      -0.00048804      -0.00011468 </v>
   <v>      -0.00066512       0.00063698       0.00019111 </v>
  </varray>
  <varray name="stress" >
   <v>       0.63002915       1.27135111      -1.46648671 </v>
   <v>       1.27135047       1.04172310       0.58581348 </v>
   <v>      -1.46648632       0.58581331      -3.79357468 </v>
  </varray>
  <energy>
   <i name="e_fr_energy">   -272.41717741 </i>
   <i name="e_wo_entrp">   -272.41717741 </i>
   <i name="e_0_energy">   -272.41717741 </i>
  </energy>
