unknown system                          
           1
     9.677039    0.000000    0.000000
     0.000000    9.677039    0.000000
     0.000000    0.000000    9.677039
   Li   P    S    Cl
    24     4    20     4
Direct configuration=     1
   0.98217370  0.20006953  0.17915108
   0.98314798  0.72770012  0.71354003
   0.03270869  0.17657186  0.81045678
   0.02652575  0.68745919  0.29182324
   0.27414224  0.27942506  0.98455731
   0.17274996  0.85409053  0.04605961
   0.71203605  0.29839533  0.01540055
   0.66560184  0.65529031  0.96381335
   0.29751652  0.98441851  0.33621875
   0.33048336  0.04668517  0.68309578
   0.80392015  0.95793378  0.83013170
   0.79712643  0.00257302  0.17728147
   0.22343145  0.69878688  0.48619729
   0.17197144  0.31991430  0.52361956
   0.71337115  0.79905591  0.52147844
   0.68057485  0.15133471  0.46248225
   0.20541360  0.49164180  0.73859351
   0.32245255  0.54742991  0.17449728
   0.81406838  0.44704597  0.31809277
   0.80406229  0.51277514  0.67496381
   0.47861552  0.32289784  0.79212598
   0.48588352  0.79070577  0.29910088
   0.52231361  0.29278812  0.21491700
   0.52298649  0.80668701  0.71434470
   0.50271635  0.49262461  0.49995759
   0.49127114  0.99660468  0.99827884
   0.99559614  0.50832213  0.00441959
   0.99991019  0.00239389  0.49947714
   0.13627793  0.89282529  0.61993532
   0.11245200  0.13493806  0.37860658
   0.88680485  0.87463381  0.37299040
   0.86981174  0.10886331  0.62750865
   0.85699290  0.61023906  0.12682100
   0.89271161  0.38036393  0.86968205
   0.11951279  0.64582531  0.90162450
   0.12047428  0.39659235  0.13567414
   0.61110847  0.11711662  0.87080847
   0.61587370  0.86087676  0.10367782
   0.37489900  0.11252470  0.13300571
   0.35877813  0.88625062  0.87649122
   0.63026423  0.61058380  0.37809616
   0.62817621  0.35636165  0.60291500
   0.39491925  0.61229419  0.63892588
   0.36542892  0.38954702  0.37707875
   0.74885415  0.73691051  0.74935276
   0.75063147  0.22994997  0.24267166
   0.25232707  0.76081936  0.25792699
   0.24901809  0.26129489  0.74845801
   0.98410087  0.01807185  0.00260753
   0.02012074  0.53197817  0.52185038
   0.50578312  0.96439964  0.49953446
   0.50190714  0.45511805  0.00968027
Direct configuration=     2
   0.98217653  0.20006791  0.17914492
   0.98315004  0.72769988  0.71353731
   0.03270471  0.17656497  0.81045795
   0.02652359  0.68745063  0.29182394
   0.27414369  0.27942627  0.98455972
   0.17274704  0.85409553  0.04605723
   0.71203387  0.29839968  0.01539893
   0.66559681  0.65528603  0.96381734
   0.29752321  0.98442234  0.33622459
   0.33049060  0.04668161  0.68309156
   0.80392173  0.95793640  0.83013555
   0.79713034  0.00257125  0.17727962
   0.22342832  0.69878335  0.48619952
   0.17196709  0.31991787  0.52361852
   0.71336697  0.79905711  0.52147802
   0.68057239  0.15133014  0.46248581
   0.20541220  0.49164658  0.73859500
   0.32245648  0.54742647  0.17449296
   0.81408071  0.44704852  0.31810582
   0.80406531  0.51277117  0.67496061
   0.47861802  0.32290136  0.79213052
   0.48588775  0.79070862  0.29910394
   0.52231106  0.29279400  0.21491645
   0.52298370  0.80669266  0.71434184
   0.50271273  0.49262647  0.49995699
   0.49128032  0.99660789  0.99827944
   0.99558932  0.50832208  0.00442387
   0.99991566  0.00239595  0.49947523
   0.13631431  0.89279951  0.61996748
   0.11247928  0.13497366  0.37857276
   0.88677555  0.87459519  0.37295357
   0.86977187  0.10889237  0.62754160
   0.85694614  0.61026938  0.12685175
   0.89268823  0.38033000  0.86964337
   0.11954723  0.64586821  0.90160084
   0.12050244  0.39656660  0.13571319
   0.61113855  0.11715151  0.87076986
   0.61590647  0.86084253  0.10370335
   0.37487053  0.11255262  0.13304355
   0.35873685  0.88621640  0.87646029
   0.63029637  0.61061048  0.37805963
   0.62821384  0.35631507  0.60294289
   0.39489749  0.61232295  0.63896459
   0.36538717  0.38951949  0.37704758
   0.74885375  0.73690924  0.74935568
   0.75063218  0.22994970  0.24267444
   0.25232779  0.76081981  0.25792338
   0.24901712  0.26129221  0.74845607
   0.98410457  0.01806688  0.00260558
   0.02011295  0.53197276  0.52184197
   0.50578418  0.96440376  0.49953408
   0.50190494  0.45512695  0.00967926
Direct configuration=     3
   0.98218079  0.20006547  0.17913566
   0.98315314  0.72769951  0.71353323
   0.03269874  0.17655462  0.81045970
   0.02652034  0.68743775  0.29182500
   0.27414587  0.27942809  0.98456336
   0.17274265  0.85410305  0.04605365
   0.71203059  0.29840622  0.01539650
   0.66558926  0.65527959  0.96382334
   0.29753327  0.98442809  0.33623336
   0.33050148  0.04667626  0.68308522
   0.80392410  0.95794033  0.83014133
   0.79713622  0.00256860  0.17727685
   0.22342361  0.69877806  0.48620287
   0.17196056  0.31992326  0.52361696
   0.71336069  0.79905892  0.52147739
   0.68056869  0.15132326  0.46249116
   0.20541010  0.49165377  0.73859725
   0.32246239  0.54742128  0.17448646
   0.81409925  0.44705236  0.31812544
   0.80406985  0.51276520  0.67495580
   0.47862177  0.32290664  0.79213735
   0.48589410  0.79071291  0.29910854
   0.52230723  0.29280285  0.21491562
   0.52297949  0.80670115  0.71433754
   0.50270728  0.49262926  0.49995607
   0.49129413  0.99661272  0.99828035
   0.99557906  0.50832201  0.00443030
   0.99992388  0.00239905  0.49947237
   0.13636902  0.89276074  0.62001583
   0.11252030  0.13502718  0.37852189
   0.88673150  0.87453711  0.37289819
   0.86971191  0.10893606  0.62759115
   0.85687585  0.61031498  0.12689798
   0.89265307  0.38027897  0.86958522
   0.11959903  0.64593273  0.90156527
   0.12054478  0.39652789  0.13577192
   0.61118377  0.11720397  0.87071182
   0.61595574  0.86079105  0.10374174
   0.37482772  0.11259459  0.13310045
   0.35867477  0.88616494  0.87641379
   0.63034470  0.61065060  0.37800469
   0.62827042  0.35624503  0.60298485
   0.39486476  0.61236619  0.63902279
   0.36532440  0.38947809  0.37700070
   0.74885316  0.73690735  0.74936007
   0.75063325  0.22994931  0.24267863
   0.25232887  0.76082049  0.25791796
   0.24901565  0.26128817  0.74845315
   0.98411014  0.01805941  0.00260265
   0.02010124  0.53196462  0.52182931
   0.50578579  0.96440996  0.49953350
   0.50190163  0.45514032  0.00967775
Direct configuration=     4
   0.98218092  0.20006539  0.17913537
   0.98315324  0.72769950  0.71353310
   0.03269855  0.17655430  0.81045976
   0.02652024  0.68743734  0.29182504
   0.27414594  0.27942814  0.98456348
   0.17274251  0.85410329  0.04605354
   0.71203049  0.29840642  0.01539643
   0.66558902  0.65527939  0.96382353
   0.29753359  0.98442827  0.33623364
   0.33050183  0.04667610  0.68308502
   0.80392418  0.95794046  0.83014151
   0.79713641  0.00256852  0.17727676
   0.22342346  0.69877789  0.48620298
   0.17196035  0.31992343  0.52361691
   0.71336049  0.79905898  0.52147737
   0.68056858  0.15132304  0.46249133
   0.20541003  0.49165399  0.73859732
   0.32246257  0.54742112  0.17448626
   0.81409983  0.44705248  0.31812606
   0.80407000  0.51276501  0.67495565
   0.47862189  0.32290680  0.79213756
   0.48589430  0.79071304  0.29910868
   0.52230711  0.29280312  0.21491559
   0.52297936  0.80670142  0.71433741
   0.50270711  0.49262934  0.49995604
   0.49129456  0.99661287  0.99828038
   0.99557874  0.50832201  0.00443050
   0.99992414  0.00239915  0.49947228
   0.13637074  0.89275952  0.62001735
   0.11252159  0.13502886  0.37852030
   0.88673012  0.87453529  0.37289646
   0.86971003  0.10893743  0.62759271
   0.85687364  0.61031641  0.12689943
   0.89265197  0.38027737  0.86958340
   0.11960066  0.64593475  0.90156416
   0.12054611  0.39652667  0.13577376
   0.61118519  0.11720561  0.87071000
   0.61595729  0.86078944  0.10374294
   0.37482638  0.11259591  0.13310224
   0.35867282  0.88616333  0.87641233
   0.63034621  0.61065186  0.37800296
   0.62827220  0.35624283  0.60298616
   0.39486373  0.61236755  0.63902462
   0.36532243  0.38947679  0.37699924
   0.74885314  0.73690729  0.74936021
   0.75063328  0.22994930  0.24267876
   0.25232890  0.76082051  0.25791779
   0.24901560  0.26128805  0.74845306
   0.98411031  0.01805918  0.00260256
   0.02010087  0.53196436  0.52182891
   0.50578584  0.96441015  0.49953349
   0.50190153  0.45514074  0.00967770
Direct configuration=     5
   0.98218169  0.20006196  0.17912533
   0.98315386  0.72769871  0.71352934
   0.03269528  0.17654422  0.81046159
   0.02651967  0.68742499  0.29182548
   0.27414759  0.27942987  0.98456469
   0.17273820  0.85411065  0.04605232
   0.71202769  0.29841292  0.01539588
   0.66558085  0.65527278  0.96382579
   0.29754235  0.98443077  0.33624247
   0.33051225  0.04667305  0.68307973
   0.80392722  0.95794235  0.83014663
   0.79714273  0.00256842  0.17727385
   0.22341961  0.69877261  0.48620384
   0.17195351  0.31992914  0.52361819
   0.71335496  0.79906095  0.52147819
   0.68056463  0.15131595  0.46249345
   0.20540665  0.49165708  0.73860007
   0.32246819  0.54741866  0.17448005
   0.81411666  0.44705329  0.31814395
   0.80407353  0.51276146  0.67495021
   0.47862365  0.32291311  0.79214284
   0.48589674  0.79071775  0.29911337
   0.52230585  0.29281145  0.21491486
   0.52297816  0.80671069  0.71433429
   0.50271284  0.49261689  0.49995539
   0.49128672  0.99660706  0.99827282
   0.99557640  0.50833212  0.00443251
   0.99991965  0.00240378  0.49947145
   0.13637377  0.89276370  0.62001918
   0.11252218  0.13503106  0.37851632
   0.88673288  0.87453255  0.37289448
   0.86970888  0.10893359  0.62758916
   0.85686483  0.61031568  0.12689763
   0.89265389  0.38027435  0.86957831
   0.11959993  0.64593703  0.90157357
   0.12054008  0.39653298  0.13578242
   0.61118497  0.11720927  0.87070052
   0.61596262  0.86078717  0.10374106
   0.37482732  0.11259440  0.13310520
   0.35867739  0.88616662  0.87642025
   0.63034503  0.61064457  0.37799860
   0.62827267  0.35623900  0.60298034
   0.39486675  0.61236796  0.63903336
   0.36531756  0.38947873  0.37700191
   0.74885247  0.73690589  0.74936272
   0.75063427  0.22994988  0.24268042
   0.25233027  0.76082105  0.25791599
   0.24901475  0.26128614  0.74845133
   0.98411301  0.01805505  0.00260070
   0.02009144  0.53195862  0.52181840
   0.50578710  0.96441293  0.49953243
   0.50189879  0.45514910  0.00967712
Direct configuration=     6
   0.98218237  0.20005887  0.17911630
   0.98315443  0.72769800  0.71352596
   0.03269233  0.17653515  0.81046324
   0.02651915  0.68741387  0.29182587
   0.27414907  0.27943143  0.98456578
   0.17273432  0.85411728  0.04605123
   0.71202518  0.29841876  0.01539539
   0.66557350  0.65526683  0.96382782
   0.29755024  0.98443301  0.33625042
   0.33052163  0.04667031  0.68307496
   0.80392995  0.95794405  0.83015123
   0.79714842  0.00256833  0.17727123
   0.22341615  0.69876786  0.48620462
   0.17194735  0.31993428  0.52361934
   0.71334998  0.79906273  0.52147892
   0.68056108  0.15130957  0.46249536
   0.20540361  0.49165986  0.73860254
   0.32247325  0.54741645  0.17447447
   0.81413179  0.44705401  0.31816005
   0.80407671  0.51275827  0.67494532
   0.47862524  0.32291879  0.79214758
   0.48589895  0.79072198  0.29911759
   0.52230472  0.29281895  0.21491420
   0.52297709  0.80671903  0.71433149
   0.50271800  0.49260568  0.49995480
   0.49127967  0.99660184  0.99826602
   0.99557429  0.50834122  0.00443432
   0.99991561  0.00240794  0.49947071
   0.13637650  0.89276746  0.62002084
   0.11252271  0.13503304  0.37851274
   0.88673536  0.87453009  0.37289271
   0.86970784  0.10893013  0.62758596
   0.85685691  0.61031502  0.12689601
   0.89265561  0.38027164  0.86957373
   0.11959928  0.64593908  0.90158204
   0.12053466  0.39653865  0.13579021
   0.61118477  0.11721256  0.87069198
   0.61596742  0.86078513  0.10373937
   0.37482818  0.11259305  0.13310787
   0.35868149  0.88616959  0.87642737
   0.63034398  0.61063802  0.37799468
   0.62827309  0.35623555  0.60297510
   0.39486947  0.61236834  0.63904122
   0.36531317  0.38948048  0.37700432
   0.74885187  0.73690463  0.74936497
   0.75063516  0.22995040  0.24268193
   0.25233150  0.76082154  0.25791436
   0.24901398  0.26128442  0.74844977
   0.98411544  0.01805134  0.00259902
   0.02008295  0.53195346  0.52180895
   0.50578823  0.96441542  0.49953148
   0.50189633  0.45515662  0.00967659
Direct configuration=     7
   0.98218374  0.20005269  0.17909824
   0.98315555  0.72769659  0.71351920
   0.03268644  0.17651701  0.81046654
   0.02651813  0.68739164  0.29182667
   0.27415203  0.27943454  0.98456797
   0.17272656  0.85413053  0.04604904
   0.71202014  0.29843045  0.01539441
   0.66555880  0.65525494  0.96383190
   0.29756602  0.98443750  0.33626632
   0.33054038  0.04666482  0.68306543
   0.80393542  0.95794744  0.83016044
   0.79715980  0.00256814  0.17726600
   0.22340922  0.69875836  0.48620617
   0.17193503  0.31994456  0.52362164
   0.71334003  0.79906628  0.52148038
   0.68055397  0.15129682  0.46249919
   0.20539753  0.49166541  0.73860748
   0.32248336  0.54741203  0.17446330
   0.81416206  0.44705546  0.31819225
   0.80408306  0.51275189  0.67493553
   0.47862841  0.32293014  0.79215708
   0.48590336  0.79073045  0.29912602
   0.52230247  0.29283394  0.21491289
   0.52297495  0.80673571  0.71432589
   0.50272832  0.49258327  0.49995362
   0.49126557  0.99659140  0.99825241
   0.99557008  0.50835942  0.00443794
   0.99990753  0.00241627  0.49946922
   0.13638196  0.89277499  0.62002414
   0.11252378  0.13503700  0.37850558
   0.88674032  0.87452517  0.37288916
   0.86970577  0.10892322  0.62757957
   0.85684107  0.61031370  0.12689276
   0.89265905  0.38026622  0.86956457
   0.11959799  0.64594318  0.90159897
   0.12052382  0.39654999  0.13580580
   0.61118439  0.11721914  0.87067492
   0.61597702  0.86078105  0.10373599
   0.37482988  0.11259034  0.13311321
   0.35868970  0.88617552  0.87644161
   0.63034186  0.61062492  0.37798683
   0.62827394  0.35622866  0.60296463
   0.39487491  0.61236908  0.63905694
   0.36530441  0.38948397  0.37700914
   0.74885066  0.73690211  0.74936948
   0.75063694  0.22995145  0.24268493
   0.25233396  0.76082250  0.25791112
   0.24901244  0.26128098  0.74844667
   0.98412030  0.01804391  0.00259566
   0.02006598  0.53194313  0.52179004
   0.50579049  0.96442042  0.49952958
   0.50189140  0.45517166  0.00967554
Direct configuration=     8
   0.98218648  0.20004034  0.17906212
   0.98315781  0.72769375  0.71350567
   0.03267466  0.17648073  0.81047313
   0.02651607  0.68734717  0.29182825
   0.27415795  0.27944077  0.98457235
   0.17271105  0.85415702  0.04604466
   0.71201007  0.29845383  0.01539244
   0.66552940  0.65523115  0.96384004
   0.29759757  0.98444647  0.33629811
   0.33057790  0.04665385  0.68304638
   0.80394637  0.95795424  0.83017886
   0.79718255  0.00256778  0.17725553
   0.22339537  0.69873935  0.48620927
   0.17191039  0.31996511  0.52362624
   0.71332012  0.79907338  0.52148331
   0.68053976  0.15127130  0.46250684
   0.20538536  0.49167653  0.73861736
   0.32250359  0.54740319  0.17444097
   0.81422261  0.44705836  0.31825665
   0.80409577  0.51273913  0.67491597
   0.47863474  0.32295285  0.79217607
   0.48591217  0.79074738  0.29914290
   0.52229795  0.29286391  0.21491026
   0.52297066  0.80676908  0.71431468
   0.50274895  0.49253844  0.49995126
   0.49123737  0.99657052  0.99822521
   0.99556166  0.50839581  0.00444518
   0.99989137  0.00243293  0.49946625
   0.13639288  0.89279004  0.62003075
   0.11252591  0.13504492  0.37849125
   0.88675025  0.87451534  0.37288207
   0.86970162  0.10890939  0.62756679
   0.85680938  0.61031107  0.12688627
   0.89266595  0.38025537  0.86954626
   0.11959539  0.64595137  0.90163284
   0.12050214  0.39657268  0.13583696
   0.61118361  0.11723229  0.87064078
   0.61599621  0.86077290  0.10372922
   0.37483330  0.11258493  0.13312388
   0.35870612  0.88618737  0.87647009
   0.63033763  0.61059871  0.37797113
   0.62827564  0.35621487  0.60294368
   0.39488578  0.61237058  0.63908839
   0.36528687  0.38949096  0.37701877
   0.74884826  0.73689708  0.74937850
   0.75064049  0.22995354  0.24269093
   0.25233888  0.76082444  0.25790462
   0.24900936  0.26127410  0.74844045
   0.98413001  0.01802907  0.00258894
   0.02003204  0.53192248  0.52175223
   0.50579501  0.96443040  0.49952578
   0.50188155  0.45520175  0.00967345
Direct configuration=     9
   0.98218493  0.20004733  0.17908258
   0.98315653  0.72769536  0.71351333
   0.03268133  0.17650127  0.81046940
   0.02651724  0.68737235  0.29182736
   0.27415460  0.27943724  0.98456987
   0.17271984  0.85414202  0.04604714
   0.71201578  0.29844059  0.01539355
   0.66554605  0.65524462  0.96383543
   0.29757970  0.98444139  0.33628010
   0.33055665  0.04666006  0.68305717
   0.80394017  0.95795039  0.83016843
   0.79716967  0.00256798  0.17726146
   0.22340321  0.69875012  0.48620752
   0.17192434  0.31995347  0.52362363
   0.71333140  0.79906936  0.52148165
   0.68054781  0.15128575  0.46250251
   0.20539225  0.49167023  0.73861176
   0.32249213  0.54740820  0.17445362
   0.81418832  0.44705672  0.31822018
   0.80408857  0.51274636  0.67492705
   0.47863116  0.32293999  0.79216531
   0.48590718  0.79073779  0.29913334
   0.52230051  0.29284694  0.21491175
   0.52297309  0.80675018  0.71432103
   0.50273726  0.49256383  0.49995260
   0.49125334  0.99658234  0.99824062
   0.99556643  0.50837520  0.00444108
   0.99990052  0.00242350  0.49946793
   0.13638669  0.89278151  0.62002701
   0.11252470  0.13504043  0.37849936
   0.88674463  0.87452091  0.37288609
   0.86970397  0.10891722  0.62757403
   0.85682733  0.61031256  0.12688995
   0.89266204  0.38026152  0.86955663
   0.11959686  0.64594673  0.90161366
   0.12051442  0.39655983  0.13581931
   0.61118405  0.11722484  0.87066011
   0.61598534  0.86077752  0.10373306
   0.37483136  0.11258799  0.13311784
   0.35869682  0.88618066  0.87645396
   0.63034002  0.61061355  0.37798002
   0.62827468  0.35622268  0.60295554
   0.39487962  0.61236973  0.63907058
   0.36529680  0.38948700  0.37701332
   0.74884962  0.73689993  0.74937339
   0.75063848  0.22995235  0.24268753
   0.25233610  0.76082334  0.25790830
   0.24901110  0.26127799  0.74844397
   0.98412451  0.01803747  0.00259274
   0.02005126  0.53193417  0.52177364
   0.50579245  0.96442475  0.49952793
   0.50188713  0.45518471  0.00967463
Direct configuration=    10
   0.98218570  0.20004383  0.17907235
   0.98315717  0.72769456  0.71350950
   0.03267800  0.17649100  0.81047127
   0.02651665  0.68735976  0.29182780
   0.27415627  0.27943901  0.98457111
   0.17271544  0.85414952  0.04604590
   0.71201292  0.29844721  0.01539300
   0.66553773  0.65523789  0.96383773
   0.29758864  0.98444393  0.33628911
   0.33056728  0.04665696  0.68305177
   0.80394327  0.95795231  0.83017364
   0.79717611  0.00256788  0.17725850
   0.22339929  0.69874473  0.48620840
   0.17191737  0.31995929  0.52362494
   0.71332576  0.79907137  0.52148248
   0.68054379  0.15127853  0.46250467
   0.20538881  0.49167338  0.73861456
   0.32249786  0.54740569  0.17444729
   0.81420546  0.44705754  0.31823841
   0.80409217  0.51274274  0.67492151
   0.47863295  0.32294642  0.79217069
   0.48590967  0.79074258  0.29913812
   0.52229923  0.29285543  0.21491100
   0.52297187  0.80675963  0.71431786
   0.50274311  0.49255114  0.49995193
   0.49124536  0.99657643  0.99823291
   0.99556405  0.50838551  0.00444313
   0.99989595  0.00242821  0.49946709
   0.13638978  0.89278578  0.62002888
   0.11252531  0.13504268  0.37849531
   0.88674744  0.87451812  0.37288408
   0.86970280  0.10891330  0.62757041
   0.85681835  0.61031181  0.12688811
   0.89266399  0.38025845  0.86955144
   0.11959612  0.64594905  0.90162325
   0.12050828  0.39656626  0.13582814
   0.61118383  0.11722857  0.87065045
   0.61599078  0.86077521  0.10373114
   0.37483233  0.11258646  0.13312086
   0.35870147  0.88618402  0.87646202
   0.63033882  0.61060613  0.37797558
   0.62827516  0.35621877  0.60294961
   0.39488270  0.61237015  0.63907948
   0.36529183  0.38948898  0.37701605
   0.74884894  0.73689850  0.74937594
   0.75063948  0.22995295  0.24268923
   0.25233749  0.76082389  0.25790646
   0.24901023  0.26127605  0.74844221
   0.98412726  0.01803327  0.00259084
   0.02004165  0.53192833  0.52176294
   0.50579373  0.96442758  0.49952686
   0.50188434  0.45519323  0.00967404
Direct configuration=    11
   0.98218528  0.20004576  0.17907798
   0.98315682  0.72769500  0.71351161
   0.03267983  0.17649665  0.81047024
   0.02651697  0.68736669  0.29182756
   0.27415535  0.27943804  0.98457043
   0.17271786  0.85414539  0.04604658
   0.71201449  0.29844357  0.01539330
   0.66554231  0.65524159  0.96383647
   0.29758372  0.98444254  0.33628416
   0.33056143  0.04665867  0.68305474
   0.80394157  0.95795126  0.83017077
   0.79717257  0.00256794  0.17726013
   0.22340145  0.69874769  0.48620791
   0.17192120  0.31995609  0.52362422
   0.71332886  0.79907026  0.52148203
   0.68054600  0.15128250  0.46250348
   0.20539070  0.49167165  0.73861302
   0.32249471  0.54740707  0.17445077
   0.81419604  0.44705709  0.31822838
   0.80409019  0.51274473  0.67492456
   0.47863196  0.32294289  0.79216773
   0.48590830  0.79073995  0.29913549
   0.52229993  0.29285076  0.21491141
   0.52297254  0.80675443  0.71431960
   0.50273989  0.49255812  0.49995230
   0.49124975  0.99657968  0.99823715
   0.99556536  0.50837984  0.00444200
   0.99989846  0.00242562  0.49946755
   0.13638808  0.89278343  0.62002785
   0.11252497  0.13504144  0.37849754
   0.88674589  0.87451966  0.37288518
   0.86970344  0.10891546  0.62757240
   0.85682329  0.61031223  0.12688912
   0.89266292  0.38026013  0.86955430
   0.11959653  0.64594778  0.90161798
   0.12051165  0.39656272  0.13582329
   0.61118395  0.11722652  0.87065576
   0.61598779  0.86077648  0.10373219
   0.37483180  0.11258730  0.13311920
   0.35869892  0.88618217  0.87645759
   0.63033948  0.61061021  0.37797802
   0.62827489  0.35622092  0.60295287
   0.39488101  0.61236992  0.63907459
   0.36529456  0.38948789  0.37701454
   0.74884931  0.73689929  0.74937454
   0.75063893  0.22995262  0.24268830
   0.25233672  0.76082359  0.25790747
   0.24901071  0.26127712  0.74844318
   0.98412575  0.01803558  0.00259189
   0.02004694  0.53193154  0.52176883
   0.50579302  0.96442602  0.49952745
   0.50188588  0.45518854  0.00967437
Direct configuration=    12
   0.98218575  0.20004385  0.17907139
   0.98315721  0.72769476  0.71350916
   0.03267827  0.17649020  0.81047125
   0.02651700  0.68735859  0.29182761
   0.27415593  0.27943939  0.98457163
   0.17271503  0.85415041  0.04604666
   0.71201282  0.29844785  0.01539301
   0.66553670  0.65523753  0.96383761
   0.29758903  0.98444402  0.33629001
   0.33056818  0.04665748  0.68305133
   0.80394319  0.95795201  0.83017429
   0.79717638  0.00256784  0.17725829
   0.22339938  0.69874422  0.48620848
   0.17191642  0.31995951  0.52362499
   0.71332554  0.79907122  0.52148228
   0.68054345  0.15127772  0.46250416
   0.20538868  0.49167336  0.73861528
   0.32249829  0.54740609  0.17444687
   0.81420763  0.44705692  0.31824041
   0.80409237  0.51274259  0.67492108
   0.47863282  0.32294729  0.79217083
   0.48591003  0.79074279  0.29913826
   0.52229934  0.29285616  0.21491099
   0.52297221  0.80676022  0.71431760
   0.50274003  0.49255589  0.49995291
   0.49125330  0.99658191  0.99823858
   0.99556212  0.50837982  0.00444300
   0.99989959  0.00242637  0.49946458
   0.13638851  0.89278694  0.62002778
   0.11252437  0.13504215  0.37849590
   0.88674785  0.87451817  0.37288473
   0.86970101  0.10891424  0.62757150
   0.85681714  0.61031188  0.12688830
   0.89266602  0.38026075  0.86955336
   0.11959705  0.64595107  0.90162210
   0.12050704  0.39656771  0.13582784
   0.61118135  0.11722660  0.87065188
   0.61598933  0.86077715  0.10372916
   0.37483333  0.11258590  0.13311968
   0.35869699  0.88618033  0.87645799
   0.63033844  0.61060518  0.37797576
   0.62827689  0.35621600  0.60295091
   0.39488512  0.61236713  0.63907705
   0.36529121  0.38948871  0.37701624
   0.74884891  0.73689839  0.74937584
   0.75063950  0.22995348  0.24268934
   0.25233753  0.76082394  0.25790662
   0.24901017  0.26127595  0.74844237
   0.98412743  0.01803282  0.00259050
   0.02004038  0.53192768  0.52176165
   0.50579390  0.96442781  0.49952687
   0.50188385  0.45519399  0.00967407
Direct configuration=    13
   0.98218645  0.20004104  0.17906166
   0.98315780  0.72769441  0.71350555
   0.03267596  0.17648066  0.81047274
   0.02651705  0.68734660  0.29182769
   0.27415679  0.27944140  0.98457342
   0.17271085  0.85415783  0.04604678
   0.71201034  0.29845419  0.01539256
   0.66552841  0.65523153  0.96383931
   0.29759687  0.98444623  0.33629868
   0.33057815  0.04665574  0.68304628
   0.80394558  0.95795312  0.83017949
   0.79718202  0.00256769  0.17725558
   0.22339633  0.69873908  0.48620932
   0.17190935  0.31996457  0.52362613
   0.71332062  0.79907263  0.52148265
   0.68053968  0.15127065  0.46250517
   0.20538568  0.49167590  0.73861863
   0.32250358  0.54740464  0.17444109
   0.81422478  0.44705666  0.31825820
   0.80409559  0.51273942  0.67491593
   0.47863408  0.32295381  0.79217542
   0.48591259  0.79074700  0.29914235
   0.52229846  0.29286416  0.21491038
   0.52297172  0.80676879  0.71431463
   0.50274022  0.49255258  0.49995381
   0.49125855  0.99658522  0.99824071
   0.99555734  0.50837980  0.00444448
   0.99990125  0.00242747  0.49946019
   0.13638913  0.89279213  0.62002768
   0.11252347  0.13504319  0.37849348
   0.88675075  0.87451598  0.37288405
   0.86969741  0.10891244  0.62757017
   0.85680804  0.61031138  0.12688707
   0.89267060  0.38026166  0.86955199
   0.11959783  0.64595595  0.90162821
   0.12050021  0.39657510  0.13583457
   0.61117751  0.11722672  0.87064615
   0.61599161  0.86077815  0.10372468
   0.37483561  0.11258381  0.13312040
   0.35869413  0.88617760  0.87645857
   0.63033690  0.61059775  0.37797242
   0.62827984  0.35620871  0.60294801
   0.39489121  0.61236300  0.63908069
   0.36528625  0.38948991  0.37701876
   0.74884831  0.73689707  0.74937777
   0.75064035  0.22995475  0.24269088
   0.25233871  0.76082447  0.25790537
   0.24900937  0.26127423  0.74844118
   0.98412992  0.01802875  0.00258844
   0.02003069  0.53192196  0.52175103
   0.50579519  0.96443045  0.49952601
   0.50188086  0.45520204  0.00967362
Direct configuration=    14
   0.98218785  0.20003540  0.17904219
   0.98315897  0.72769371  0.71349832
   0.03267135  0.17646158  0.81047572
   0.02651713  0.68732263  0.29182784
   0.27415851  0.27944542  0.98457699
   0.17270249  0.85417267  0.04604702
   0.71200540  0.29846686  0.01539168
   0.66551183  0.65521954  0.96384270
   0.29761256  0.98445063  0.33631601
   0.33059811  0.04665224  0.68303618
   0.80395038  0.95795534  0.83018988
   0.79719331  0.00256740  0.17725015
   0.22339022  0.69872880  0.48621099
   0.17189520  0.31997469  0.52362841
   0.71331078  0.79907546  0.52148339
   0.68053214  0.15125651  0.46250718
   0.20537970  0.49168098  0.73862533
   0.32251417  0.54740173  0.17442953
   0.81425908  0.44705614  0.31829378
   0.80410204  0.51273308  0.67490563
   0.47863661  0.32296684  0.79218460
   0.48591771  0.79075541  0.29915054
   0.52229671  0.29288014  0.21490914
   0.52297073  0.80678593  0.71430869
   0.50274061  0.49254598  0.49995562
   0.49126905  0.99659183  0.99824495
   0.99554777  0.50837975  0.00444744
   0.99990458  0.00242968  0.49945141
   0.13639037  0.89280252  0.62002747
   0.11252168  0.13504528  0.37848863
   0.88675655  0.87451160  0.37288271
   0.86969021  0.10890884  0.62756751
   0.85678983  0.61031037  0.12688463
   0.89267975  0.38026349  0.86954923
   0.11959938  0.64596571  0.90164042
   0.12048656  0.39658986  0.13584803
   0.61116983  0.11722696  0.87063467
   0.61599616  0.86078014  0.10371571
   0.37484015  0.11257965  0.13312182
   0.35868842  0.88617215  0.87645975
   0.63033383  0.61058288  0.37796574
   0.62828574  0.35619414  0.60294220
   0.39490337  0.61235475  0.63908797
   0.36527633  0.38949233  0.37702379
   0.74884712  0.73689442  0.74938163
   0.75064205  0.22995728  0.24269397
   0.25234108  0.76082552  0.25790286
   0.24900776  0.26127078  0.74843879
   0.98413490  0.01802059  0.00258433
   0.02001130  0.53191052  0.52172980
   0.50579778  0.96443574  0.49952430
   0.50187487  0.45521814  0.00967273
Direct configuration=    15
   0.98219064  0.20002413  0.17900324
   0.98316131  0.72769232  0.71348386
   0.03266211  0.17642341  0.81048169
   0.02651730  0.68727468  0.29182815
   0.27416196  0.27945345  0.98458412
   0.17268577  0.85420234  0.04604749
   0.71199550  0.29849222  0.01538992
   0.66547866  0.65519554  0.96384949
   0.29764395  0.98445944  0.33635067
   0.33063802  0.04664524  0.68301599
   0.80395996  0.95795978  0.83021068
   0.79721587  0.00256682  0.17723929
   0.22337800  0.69870824  0.48621434
   0.17186690  0.31999492  0.52363298
   0.71329112  0.79908111  0.52148487
   0.68051706  0.15122822  0.46251120
   0.20536773  0.49169112  0.73863872
   0.32253535  0.54739593  0.17440642
   0.81432768  0.44705511  0.31836495
   0.80411493  0.51272041  0.67488503
   0.47864166  0.32299290  0.79220296
   0.48592794  0.79077223  0.29916691
   0.52229321  0.29291212  0.21490667
   0.52296876  0.80682021  0.71429682
   0.50274140  0.49253278  0.49995924
   0.49129005  0.99660505  0.99825345
   0.99552864  0.50837966  0.00445335
   0.99991123  0.00243411  0.49943384
   0.13639287  0.89282328  0.62002705
   0.11251809  0.13504945  0.37847893
   0.88676814  0.87450284  0.37288001
   0.86967581  0.10890164  0.62756220
   0.85675343  0.61030834  0.12687975
   0.89269807  0.38026714  0.86954371
   0.11960248  0.64598521  0.90166484
   0.12045926  0.39661940  0.13587495
   0.61115447  0.11722743  0.87061171
   0.61600527  0.86078412  0.10369777
   0.37484925  0.11257132  0.13312468
   0.35867699  0.88616125  0.87646210
   0.63032767  0.61055313  0.37795238
   0.62829755  0.35616500  0.60293059
   0.39492771  0.61233823  0.63910254
   0.36525649  0.38949715  0.37703384