  52  52   0  16
  0.1768007E+02  0.9723645E-09  0.9723645E-09  0.9723645E-09  0.2000000E-15
  1.000000000000000E-004
  CAR 
 unknown system                          
     12.52785261    -45.51543893  301      2.12842954      1.00000000
    -45.515  0.0000E+00  0.0000E+00  0.0000E+00  0.0000E+00
    -45.322  0.0000E+00  0.0000E+00  0.0000E+00  0.0000E+00
    -45.128  0.0000E+00  0.0000E+00  0.0000E+00  0.0000E+00
    -44.935  0.0000E+00  0.0000E+00  0.0000E+00  0.0000E+00
    -44.742  0.0000E+00  0.0000E+00  0.0000E+00  0.0000E+00
    -44.548  0.0000E+00  0.0000E+00  0.0000E+00  0.0000E+00
    -44.355  0.0000E+00  0.0000E+00  0.0000E+00  0.0000E+00
    -44.161  0.0000E+00  0.0000E+00  0.0000E+00  0.0000E+00
    -43.968  0.0000E+00  0.0000E+00  0.0000E+00  0.0000E+00
    -43.774  0.0000E+00  0.0000E+00  0.0000E+00  0.0000E+00
    -43.581  0.0000E+00  0.0000E+00  0.0000E+00  0.0000E+00
    -43.387  0.0000E+00  0.0000E+00  0.0000E+00  0.0000E+00
    -43.194  0.0000E+00  0.0000E+00  0.0000E+00  0.0000E+00
    -43.000  0.3243E-10  0.3244E-10  0.6275E-11  0.6276E-11
    -42.807  0.1866E-01  0.1866E-01  0.3610E-02  0.3610E-02
    -42.613  0.3121E-01  0.3121E-01  0.9649E-02  0.9649E-02
    -42.420  0.5116E-01  0.5116E-01  0.1955E-01  0.1955E-01
    -42.226  0.7479E-02  0.7479E-02  0.2101E-01  0.2101E-01
    -42.033  0.1542E-01  0.1542E-01  0.2399E-01  0.2399E-01
    -41.839  0.0000E+00  0.0000E+00  0.2400E-01  0.2400E-01
    -41.646  0.0000E+00  0.0000E+00  0.2400E-01  0.2400E-01
    -41.452  0.0000E+00  0.0000E+00  0.2400E-01  0.2400E-01
    -41.259  0.0000E+00  0.0000E+00  0.2400E-01  0.2400E-01
    -41.065  0.0000E+00  0.0000E+00  0.2400E-01  0.2400E-01
    -40.872  0.0000E+00  0.0000E+00  0.2400E-01  0.2400E-01
    -40.678  0.0000E+00  0.0000E+00  0.2400E-01  0.2400E-01
    -40.485  0.0000E+00  0.0000E+00  0.2400E-01  0.2400E-01
    -40.292  0.0000E+00  0.0000E+00  0.2400E-01  0.2400E-01
    -40.098  0.0000E+00  0.0000E+00  0.2400E-01  0.2400E-01
    -39.905  0.0000E+00  0.0000E+00  0.2400E-01  0.2400E-01
    -39.711  0.0000E+00  0.0000E+00  0.2400E-01  0.2400E-01
    -39.518  0.0000E+00  0.0000E+00  0.2400E-01  0.2400E-01
    -39.324  0.0000E+00  0.0000E+00  0.2400E-01  0.2400E-01
    -39.131  0.0000E+00  0.0000E+00  0.2400E-01  0.2400E-01
    -38.937  0.0000E+00  0.0000E+00  0.2400E-01  0.2400E-01
    -38.744  0.0000E+00  0.0000E+00  0.2400E-01  0.2400E-01
    -38.550  0.0000E+00  0.0000E+00  0.2400E-01  0.2400E-01
    -38.357  0.0000E+00  0.0000E+00  0.2400E-01  0.2400E-01
    -38.163  0.0000E+00  0.0000E+00  0.2400E-01  0.2400E-01
    -37.970  0.0000E+00  0.0000E+00  0.2400E-01  0.2400E-01
    -37.776  0.0000E+00  0.0000E+00  0.2400E-01  0.2400E-01
    -37.583  0.0000E+00  0.0000E+00  0.2400E-01  0.2400E-01
    -37.389  0.0000E+00  0.0000E+00  0.2400E-01  0.2400E-01
    -37.196  0.0000E+00  0.0000E+00  0.2400E-01  0.2400E-01
    -37.002  0.0000E+00  0.0000E+00  0.2400E-01  0.2400E-01
    -36.809  0.0000E+00  0.0000E+00  0.2400E-01  0.2400E-01
    -36.615  0.0000E+00  0.0000E+00  0.2400E-01  0.2400E-01
    -36.422  0.0000E+00  0.0000E+00  0.2400E-01  0.2400E-01
    -36.229  0.0000E+00  0.0000E+00  0.2400E-01  0.2400E-01
    -36.035  0.0000E+00  0.0000E+00  0.2400E-01  0.2400E-01
    -35.842  0.0000E+00  0.0000E+00  0.2400E-01  0.2400E-01
    -35.648  0.0000E+00  0.0000E+00  0.2400E-01  0.2400E-01
    -35.455  0.0000E+00  0.0000E+00  0.2400E-01  0.2400E-01
    -35.261  0.0000E+00  0.0000E+00  0.2400E-01  0.2400E-01
    -35.068  0.0000E+00  0.0000E+00  0.2400E-01  0.2400E-01
    -34.874  0.0000E+00  0.0000E+00  0.2400E-01  0.2400E-01
    -34.681  0.0000E+00  0.0000E+00  0.2400E-01  0.2400E-01
    -34.487  0.0000E+00  0.0000E+00  0.2400E-01  0.2400E-01
    -34.294  0.0000E+00  0.0000E+00  0.2400E-01  0.2400E-01
    -34.100  0.0000E+00  0.0000E+00  0.2400E-01  0.2400E-01
    -33.907  0.0000E+00  0.0000E+00  0.2400E-01  0.2400E-01
    -33.713  0.0000E+00  0.0000E+00  0.2400E-01  0.2400E-01
    -33.520  0.0000E+00  0.0000E+00  0.2400E-01  0.2400E-01
    -33.326  0.0000E+00  0.0000E+00  0.2400E-01  0.2400E-01
    -33.133  0.0000E+00  0.0000E+00  0.2400E-01  0.2400E-01
    -32.939  0.0000E+00  0.0000E+00  0.2400E-01  0.2400E-01
    -32.746  0.0000E+00  0.0000E+00  0.2400E-01  0.2400E-01
    -32.552  0.0000E+00  0.0000E+00  0.2400E-01  0.2400E-01
    -32.359  0.0000E+00  0.0000E+00  0.2400E-01  0.2400E-01
    -32.165  0.0000E+00  0.0000E+00  0.2400E-01  0.2400E-01
    -31.972  0.0000E+00  0.0000E+00  0.2400E-01  0.2400E-01
    -31.779  0.0000E+00  0.0000E+00  0.2400E-01  0.2400E-01
    -31.585  0.0000E+00  0.0000E+00  0.2400E-01  0.2400E-01
    -31.392  0.0000E+00  0.0000E+00  0.2400E-01  0.2400E-01
    -31.198  0.0000E+00  0.0000E+00  0.2400E-01  0.2400E-01
    -31.005  0.0000E+00  0.0000E+00  0.2400E-01  0.2400E-01
    -30.811  0.0000E+00  0.0000E+00  0.2400E-01  0.2400E-01
    -30.618  0.0000E+00  0.0000E+00  0.2400E-01  0.2400E-01
    -30.424  0.0000E+00  0.0000E+00  0.2400E-01  0.2400E-01
    -30.231  0.0000E+00  0.0000E+00  0.2400E-01  0.2400E-01
    -30.037  0.0000E+00  0.0000E+00  0.2400E-01  0.2400E-01
    -29.844  0.0000E+00  0.0000E+00  0.2400E-01  0.2400E-01
    -29.650  0.0000E+00  0.0000E+00  0.2400E-01  0.2400E-01
    -29.457  0.0000E+00  0.0000E+00  0.2400E-01  0.2400E-01
    -29.263  0.0000E+00  0.0000E+00  0.2400E-01  0.2400E-01
    -29.070  0.0000E+00  0.0000E+00  0.2400E-01  0.2400E-01
    -28.876  0.0000E+00  0.0000E+00  0.2400E-01  0.2400E-01
    -28.683  0.0000E+00  0.0000E+00  0.2400E-01  0.2400E-01
    -28.489  0.0000E+00  0.0000E+00  0.2400E-01  0.2400E-01
    -28.296  0.0000E+00  0.0000E+00  0.2400E-01  0.2400E-01
    -28.102  0.0000E+00  0.0000E+00  0.2400E-01  0.2400E-01
    -27.909  0.0000E+00  0.0000E+00  0.2400E-01  0.2400E-01
    -27.715  0.0000E+00  0.0000E+00  0.2400E-01  0.2400E-01
    -27.522  0.0000E+00  0.0000E+00  0.2400E-01  0.2400E-01
    -27.329  0.0000E+00  0.0000E+00  0.2400E-01  0.2400E-01
    -27.135  0.0000E+00  0.0000E+00  0.2400E-01  0.2400E-01
    -26.942  0.0000E+00  0.0000E+00  0.2400E-01  0.2400E-01
    -26.748  0.0000E+00  0.0000E+00  0.2400E-01  0.2400E-01
    -26.555  0.0000E+00  0.0000E+00  0.2400E-01  0.2400E-01
    -26.361  0.0000E+00  0.0000E+00  0.2400E-01  0.2400E-01
    -26.168  0.0000E+00  0.0000E+00  0.2400E-01  0.2400E-01
    -25.974  0.0000E+00  0.0000E+00  0.2400E-01  0.2400E-01
    -25.781  0.0000E+00  0.0000E+00  0.2400E-01  0.2400E-01
    -25.587  0.0000E+00  0.0000E+00  0.2400E-01  0.2400E-01
    -25.394  0.0000E+00  0.0000E+00  0.2400E-01  0.2400E-01
    -25.200  0.0000E+00  0.0000E+00  0.2400E-01  0.2400E-01
    -25.007  0.0000E+00  0.0000E+00  0.2400E-01  0.2400E-01
    -24.813  0.0000E+00  0.0000E+00  0.2400E-01  0.2400E-01
    -24.620  0.0000E+00  0.0000E+00  0.2400E-01  0.2400E-01
    -24.426  0.0000E+00  0.0000E+00  0.2400E-01  0.2400E-01
    -24.233  0.0000E+00  0.0000E+00  0.2400E-01  0.2400E-01
    -24.039  0.0000E+00  0.0000E+00  0.2400E-01  0.2400E-01
    -23.846  0.0000E+00  0.0000E+00  0.2400E-01  0.2400E-01
    -23.652  0.0000E+00  0.0000E+00  0.2400E-01  0.2400E-01
    -23.459  0.0000E+00  0.0000E+00  0.2400E-01  0.2400E-01
    -23.266  0.0000E+00  0.0000E+00  0.2400E-01  0.2400E-01
    -23.072  0.0000E+00  0.0000E+00  0.2400E-01  0.2400E-01
    -22.879  0.0000E+00  0.0000E+00  0.2400E-01  0.2400E-01
    -22.685  0.0000E+00  0.0000E+00  0.2400E-01  0.2400E-01
    -22.492  0.0000E+00  0.0000E+00  0.2400E-01  0.2400E-01
    -22.298  0.0000E+00  0.0000E+00  0.2400E-01  0.2400E-01
    -22.105  0.0000E+00  0.0000E+00  0.2400E-01  0.2400E-01
    -21.911  0.0000E+00  0.0000E+00  0.2400E-01  0.2400E-01
    -21.718  0.0000E+00  0.0000E+00  0.2400E-01  0.2400E-01
    -21.524  0.0000E+00  0.0000E+00  0.2400E-01  0.2400E-01
    -21.331  0.0000E+00  0.0000E+00  0.2400E-01  0.2400E-01
    -21.137  0.0000E+00  0.0000E+00  0.2400E-01  0.2400E-01
    -20.944  0.0000E+00  0.0000E+00  0.2400E-01  0.2400E-01
    -20.750  0.0000E+00  0.0000E+00  0.2400E-01  0.2400E-01
    -20.557  0.0000E+00  0.0000E+00  0.2400E-01  0.2400E-01
    -20.363  0.0000E+00  0.0000E+00  0.2400E-01  0.2400E-01
    -20.170  0.0000E+00  0.0000E+00  0.2400E-01  0.2400E-01
    -19.976  0.0000E+00  0.0000E+00  0.2400E-01  0.2400E-01
    -19.783  0.0000E+00  0.0000E+00  0.2400E-01  0.2400E-01
    -19.589  0.0000E+00  0.0000E+00  0.2400E-01  0.2400E-01
    -19.396  0.0000E+00  0.0000E+00  0.2400E-01  0.2400E-01
    -19.202  0.0000E+00  0.0000E+00  0.2400E-01  0.2400E-01
    -19.009  0.0000E+00  0.0000E+00  0.2400E-01  0.2400E-01
    -18.816  0.0000E+00  0.0000E+00  0.2400E-01  0.2400E-01
    -18.622  0.0000E+00  0.0000E+00  0.2400E-01  0.2400E-01
    -18.429  0.0000E+00  0.0000E+00  0.2400E-01  0.2400E-01
    -18.235  0.0000E+00  0.0000E+00  0.2400E-01  0.2400E-01
    -18.042  0.0000E+00  0.0000E+00  0.2400E-01  0.2400E-01
    -17.848  0.0000E+00  0.0000E+00  0.2400E-01  0.2400E-01
    -17.655  0.0000E+00  0.0000E+00  0.2400E-01  0.2400E-01
    -17.461  0.0000E+00  0.0000E+00  0.2400E-01  0.2400E-01
    -17.268  0.0000E+00  0.0000E+00  0.2400E-01  0.2400E-01
    -17.074  0.0000E+00  0.0000E+00  0.2400E-01  0.2400E-01
    -16.881  0.0000E+00  0.0000E+00  0.2400E-01  0.2400E-01
    -16.687  0.0000E+00  0.0000E+00  0.2400E-01  0.2400E-01
    -16.494  0.0000E+00  0.0000E+00  0.2400E-01  0.2400E-01
    -16.300  0.0000E+00  0.0000E+00  0.2400E-01  0.2400E-01
    -16.107  0.0000E+00  0.0000E+00  0.2400E-01  0.2400E-01
    -15.913  0.0000E+00  0.0000E+00  0.2400E-01  0.2400E-01
    -15.720  0.0000E+00  0.0000E+00  0.2400E-01  0.2400E-01
    -15.526  0.0000E+00  0.0000E+00  0.2400E-01  0.2400E-01
    -15.333  0.0000E+00  0.0000E+00  0.2400E-01  0.2400E-01
    -15.139  0.0000E+00  0.0000E+00  0.2400E-01  0.2400E-01
    -14.946  0.0000E+00  0.0000E+00  0.2400E-01  0.2400E-01
    -14.752  0.0000E+00  0.0000E+00  0.2400E-01  0.2400E-01
    -14.559  0.0000E+00  0.0000E+00  0.2400E-01  0.2400E-01
    -14.366  0.0000E+00  0.0000E+00  0.2400E-01  0.2400E-01
    -14.172  0.0000E+00  0.0000E+00  0.2400E-01  0.2400E-01
    -13.979  0.0000E+00  0.0000E+00  0.2400E-01  0.2400E-01
    -13.785  0.0000E+00  0.0000E+00  0.2400E-01  0.2400E-01
    -13.592  0.0000E+00  0.0000E+00  0.2400E-01  0.2400E-01
    -13.398  0.0000E+00  0.0000E+00  0.2400E-01  0.2400E-01
    -13.205  0.4039E-02  0.4040E-02  0.2478E-01  0.2478E-01
    -13.011  0.1663E-01  0.1663E-01  0.2800E-01  0.2800E-01
    -12.818  0.6023E-05  0.6024E-05  0.2800E-01  0.2800E-01
    -12.624  0.1549E-01  0.1549E-01  0.3100E-01  0.3100E-01
    -12.431  0.4277E-02  0.4277E-02  0.3183E-01  0.3183E-01
    -12.237  0.8916E-03  0.8916E-03  0.3200E-01  0.3200E-01
    -12.044  0.0000E+00  0.0000E+00  0.3200E-01  0.3200E-01
    -11.850  0.0000E+00  0.0000E+00  0.3200E-01  0.3200E-01
    -11.657  0.0000E+00  0.0000E+00  0.3200E-01  0.3200E-01
    -11.463  0.0000E+00  0.0000E+00  0.3200E-01  0.3200E-01
    -11.270  0.0000E+00  0.0000E+00  0.3200E-01  0.3200E-01
    -11.076  0.0000E+00  0.0000E+00  0.3200E-01  0.3200E-01
    -10.883  0.0000E+00  0.0000E+00  0.3200E-01  0.3200E-01
    -10.689  0.0000E+00  0.0000E+00  0.3200E-01  0.3200E-01
    -10.496  0.3691E-06  0.3692E-06  0.3200E-01  0.3200E-01
    -10.303  0.1552E-01  0.1552E-01  0.3500E-01  0.3500E-01
    -10.109  0.2619E-01  0.2619E-01  0.4008E-01  0.4008E-01
     -9.916  0.2018E-01  0.2018E-01  0.4400E-01  0.4400E-01
     -9.722  0.0000E+00  0.0000E+00  0.4400E-01  0.4400E-01
     -9.529  0.0000E+00  0.0000E+00  0.4400E-01  0.4400E-01
     -9.335  0.0000E+00  0.0000E+00  0.4400E-01  0.4400E-01
     -9.142  0.0000E+00  0.0000E+00  0.4400E-01  0.4400E-01
     -8.948  0.0000E+00  0.0000E+00  0.4400E-01  0.4400E-01
     -8.755  0.2283E-02  0.2284E-02  0.4444E-01  0.4444E-01
     -8.561  0.1321E-01  0.1321E-01  0.4700E-01  0.4700E-01
     -8.368  0.0000E+00  0.0000E+00  0.4700E-01  0.4700E-01
     -8.174  0.0000E+00  0.0000E+00  0.4700E-01  0.4700E-01
     -7.981  0.3390E-06  0.3392E-06  0.4700E-01  0.4700E-01
     -7.787  0.5168E-02  0.5168E-02  0.4800E-01  0.4800E-01
     -7.594  0.0000E+00  0.0000E+00  0.4800E-01  0.4800E-01
     -7.400  0.0000E+00  0.0000E+00  0.4800E-01  0.4800E-01
     -7.207  0.0000E+00  0.0000E+00  0.4800E-01  0.4800E-01
     -7.013  0.0000E+00  0.0000E+00  0.4800E-01  0.4800E-01
     -6.820  0.0000E+00  0.0000E+00  0.4800E-01  0.4800E-01
     -6.626  0.0000E+00  0.0000E+00  0.4800E-01  0.4800E-01
     -6.433  0.0000E+00  0.0000E+00  0.4800E-01  0.4800E-01
     -6.239  0.2046E-03  0.2047E-03  0.4804E-01  0.4804E-01
     -6.046  0.4964E-02  0.4964E-02  0.4900E-01  0.4900E-01
     -5.853  0.1152E-02  0.1153E-02  0.4922E-01  0.4922E-01
     -5.659  0.1433E-01  0.1433E-01  0.5199E-01  0.5199E-01
     -5.466  0.0000E+00  0.0000E+00  0.5200E-01  0.5200E-01
     -5.272  0.0000E+00  0.0000E+00  0.5200E-01  0.5200E-01
     -5.079  0.0000E+00  0.0000E+00  0.5200E-01  0.5200E-01
     -4.885  0.0000E+00  0.0000E+00  0.5200E-01  0.5200E-01
     -4.692  0.0000E+00  0.0000E+00  0.5200E-01  0.5200E-01
     -4.498  0.0000E+00  0.0000E+00  0.5200E-01  0.5200E-01
     -4.305  0.0000E+00  0.0000E+00  0.5200E-01  0.5200E-01
     -4.111  0.0000E+00  0.0000E+00  0.5200E-01  0.5200E-01
     -3.918  0.0000E+00  0.0000E+00  0.5200E-01  0.5200E-01
     -3.724  0.0000E+00  0.0000E+00  0.5200E-01  0.5200E-01
     -3.531  0.2294E-15  0.2297E-15  0.5200E-01  0.5200E-01
     -3.337  0.3497E-02  0.3497E-02  0.5268E-01  0.5268E-01
     -3.144  0.1201E-01  0.1201E-01  0.5500E-01  0.5500E-01
     -2.950  0.4167E-02  0.4167E-02  0.5581E-01  0.5581E-01
     -2.757  0.1119E-01  0.1119E-01  0.5797E-01  0.5797E-01
     -2.563  0.1543E-01  0.1543E-01  0.6096E-01  0.6096E-01
     -2.370  0.1565E-01  0.1565E-01  0.6399E-01  0.6399E-01
     -2.176  0.4605E-04  0.4603E-04  0.6400E-01  0.6400E-01
     -1.983  0.0000E+00  0.0000E+00  0.6400E-01  0.6400E-01
     -1.789  0.2531E-04  0.2532E-04  0.6400E-01  0.6400E-01
     -1.596  0.1155E-01  0.1156E-01  0.6624E-01  0.6624E-01
     -1.403  0.1548E-01  0.1548E-01  0.6924E-01  0.6924E-01
     -1.209  0.1769E-01  0.1769E-01  0.7266E-01  0.7266E-01
     -1.016  0.1348E-01  0.1348E-01  0.7527E-01  0.7527E-01
     -0.822  0.3791E-02  0.3790E-02  0.7600E-01  0.7600E-01
     -0.629  0.9140E-02  0.9140E-02  0.7777E-01  0.7777E-01
     -0.435  0.1378E-01  0.1378E-01  0.8043E-01  0.8043E-01
     -0.242  0.1265E-01  0.1265E-01  0.8288E-01  0.8288E-01
     -0.048  0.2533E-01  0.2533E-01  0.8778E-01  0.8778E-01
      0.145  0.2584E-01  0.2584E-01  0.9279E-01  0.9279E-01
      0.339  0.1658E-01  0.1658E-01  0.9599E-01  0.9599E-01
      0.532  0.1221E-02  0.1221E-02  0.9624E-01  0.9624E-01
      0.726  0.1938E-01  0.1938E-01  0.9999E-01  0.9999E-01
      0.919  0.2096E-01  0.2096E-01  0.1040E+00  0.1040E+00
      1.113  0.2629E-01  0.2629E-01  0.1091E+00  0.1091E+00
      1.306  0.2348E-01  0.2348E-01  0.1137E+00  0.1137E+00
      1.500  0.1211E-01  0.1211E-01  0.1160E+00  0.1160E+00
      1.693  0.1462E-01  0.1462E-01  0.1189E+00  0.1189E+00
      1.887  0.1620E-02  0.1620E-02  0.1192E+00  0.1192E+00
      2.080  0.4304E-02  0.4303E-02  0.1200E+00  0.1200E+00
      2.274  0.0000E+00  0.0000E+00  0.1200E+00  0.1200E+00
      2.467  0.0000E+00  0.0000E+00  0.1200E+00  0.1200E+00
      2.660  0.0000E+00  0.0000E+00  0.1200E+00  0.1200E+00
      2.854  0.0000E+00  0.0000E+00  0.1200E+00  0.1200E+00
      3.047  0.0000E+00  0.0000E+00  0.1200E+00  0.1200E+00
      3.241  0.0000E+00  0.0000E+00  0.1200E+00  0.1200E+00
      3.434  0.0000E+00  0.0000E+00  0.1200E+00  0.1200E+00
      3.628  0.0000E+00  0.0000E+00  0.1200E+00  0.1200E+00
      3.821  0.0000E+00  0.0000E+00  0.1200E+00  0.1200E+00
      4.015  0.0000E+00  0.0000E+00  0.1200E+00  0.1200E+00
      4.208  0.3062E-07  0.3065E-07  0.1200E+00  0.1200E+00
      4.402  0.5169E-02  0.5169E-02  0.1210E+00  0.1210E+00
      4.595  0.0000E+00  0.0000E+00  0.1210E+00  0.1210E+00
      4.789  0.0000E+00  0.0000E+00  0.1210E+00  0.1210E+00
      4.982  0.2699E-06  0.2702E-06  0.1210E+00  0.1210E+00
      5.176  0.9251E-02  0.9251E-02  0.1228E+00  0.1228E+00
      5.369  0.6253E-02  0.6253E-02  0.1240E+00  0.1240E+00
      5.563  0.1522E-11  0.1525E-11  0.1240E+00  0.1240E+00
      5.756  0.2186E-02  0.2186E-02  0.1244E+00  0.1244E+00
      5.950  0.1850E-01  0.1850E-01  0.1280E+00  0.1280E+00
      6.143  0.7311E-02  0.7311E-02  0.1294E+00  0.1294E+00
      6.337  0.7196E-02  0.7196E-02  0.1308E+00  0.1308E+00
      6.530  0.1127E-01  0.1127E-01  0.1330E+00  0.1330E+00
      6.724  0.9016E-02  0.9017E-02  0.1347E+00  0.1347E+00
      6.917  0.1118E-01  0.1118E-01  0.1369E+00  0.1369E+00
      7.110  0.2166E-02  0.2167E-02  0.1373E+00  0.1373E+00
      7.304  0.8916E-02  0.8915E-02  0.1391E+00  0.1391E+00
      7.497  0.1033E-01  0.1033E-01  0.1411E+00  0.1411E+00
      7.691  0.1527E-01  0.1527E-01  0.1440E+00  0.1440E+00
      7.884  0.1153E-01  0.1153E-01  0.1462E+00  0.1462E+00
      8.078  0.1557E-01  0.1557E-01  0.1493E+00  0.1493E+00
      8.271  0.1254E-01  0.1255E-01  0.1517E+00  0.1517E+00
      8.465  0.1093E-01  0.1096E-01  0.1538E+00  0.1538E+00
      8.658  0.1359E-01  0.1358E-01  0.1564E+00  0.1564E+00
      8.852  0.1549E-01  0.1559E-01  0.1594E+00  0.1595E+00
      9.045  0.1990E-01  0.1955E-01  0.1633E+00  0.1632E+00
      9.239  0.1811E-01  0.1819E-01  0.1668E+00  0.1668E+00
      9.432  0.1912E-01  0.1814E-01  0.1705E+00  0.1703E+00
      9.626  0.1437E-01  0.1331E-01  0.1733E+00  0.1729E+00
      9.819  0.1410E-01  0.1277E-01  0.1760E+00  0.1753E+00
     10.013  0.0000E+00  0.3511E-02  0.1760E+00  0.1760E+00
     10.206  0.0000E+00  0.0000E+00  0.1760E+00  0.1760E+00
     10.400  0.0000E+00  0.0000E+00  0.1760E+00  0.1760E+00
     10.593  0.0000E+00  0.0000E+00  0.1760E+00  0.1760E+00
     10.787  0.0000E+00  0.0000E+00  0.1760E+00  0.1760E+00
     10.980  0.0000E+00  0.0000E+00  0.1760E+00  0.1760E+00
     11.174  0.0000E+00  0.0000E+00  0.1760E+00  0.1760E+00
     11.367  0.0000E+00  0.0000E+00  0.1760E+00  0.1760E+00
     11.560  0.0000E+00  0.0000E+00  0.1760E+00  0.1760E+00
     11.754  0.0000E+00  0.0000E+00  0.1760E+00  0.1760E+00
     11.947  0.0000E+00  0.0000E+00  0.1760E+00  0.1760E+00
     12.141  0.0000E+00  0.0000E+00  0.1760E+00  0.1760E+00
     12.334  0.0000E+00  0.0000E+00  0.1760E+00  0.1760E+00
     12.528  0.0000E+00  0.0000E+00  0.1760E+00  0.1760E+00
