 vasp.6.4.1 05Apr23 (build Jun 07 2023 15:38:11) complex                        
  
 executed on             LinuxIFC date 2023.10.16  22:51:34
 running  128 mpi-ranks, with    1 threads/rank, on    1 nodes
 distrk:  each k-point on  128 cores,    1 groups
 distr:  one band on NCORE=  32 cores,    4 groups


--------------------------------------------------------------------------------------------------------


 INCAR:
   GGA = PE
   PREC = Accu
   EDIFF = 1.e-6
   EDIFFG = -1.e-3
   ENCUT = 520.
   NELM = 100
   NELMDL = -10
   LASPH = .TRUE.
   LREAL = Auto
   LMAXMIX = 4
   ISPIN = 2
   LDIAG = .TRUE.
   LPLANE = .TRUE.
   IVDW = 12
   SIGMA = 0.03
   ISMEAR = 0
   NSW = 1000    number of steps for IOM
   IBRION = 2    ionic relax: 0-MD 1-quasi-New 2-CG
   ISIF = 2    ionic relaxation + stress tensor calcn.
   LCHARG = .FALSE.
   LWAVE = .FALSE.
   ALGO = F
   KPAR = 1
   NPAR = 4
   POTIM = 0.2

 POTCAR:    PAW_PBE Li_sv_GW 25Mar2010            
 POTCAR:    PAW_PBE P_GW 19Mar2012                
 POTCAR:    PAW_PBE S_GW 19Mar2012                
 POTCAR:    PAW_PBE Cl_GW 19Mar2012               
 -----------------------------------------------------------------------------
|                                                                             |
|           W    W    AA    RRRRR   N    N  II  N    N   GGGG   !!!           |
|           W    W   A  A   R    R  NN   N  II  NN   N  G    G  !!!           |
|           W    W  A    A  R    R  N N  N  II  N N  N  G       !!!           |
|           W WW W  AAAAAA  RRRRR   N  N N  II  N  N N  G  GGG   !            |
|           WW  WW  A    A  R   R   N   NN  II  N   NN  G    G                |
|           W    W  A    A  R    R  N    N  II  N    N   GGGG   !!!           |
|                                                                             |
|     You use a magnetic or noncollinear calculation, but did not specify     |
|     the initial magnetic moment with the MAGMOM tag. Note that a            |
|     default of 1 will be used for all atoms. This ferromagnetic setup       |
|     may break the symmetry of the crystal, in particular it may rule        |
|     out finding an antiferromagnetic solution. Thence, we recommend         |
|     setting the initial magnetic moment manually or verifying carefully     |
|     that this magnetic setup is desired.                                    |
|                                                                             |
 -----------------------------------------------------------------------------

 POTCAR:    PAW_PBE Li_sv_GW 25Mar2010            
   SHA256 =  24a6ace15a582615486b36ce4dc781b048409f4015b7684ed1273ae395fa2fdc Li_sv_GW/POTCAR       
   COPYR  = (c) Copyright 25Mar2010 Georg Kresse                                                    
   COPYR  = This file is part of the software VASP. Any use, copying, and all other rights are regul
   COPYR  = If you do not have a valid VASP license, you may not use, copy or distribute this file. 
   VRHFIN =Li: 1s2s                                                                                 
   LEXCH  = PE                                                                                      
   EATOM  =   200.9989 eV,   14.7730 Ry                                                             
                                                                                                    
   TITEL  = PAW_PBE Li_sv_GW 25Mar2010                                                              
   LULTRA =        F    use ultrasoft PP ?                                                          
   IUNSCR =        0    unscreen: 0-lin 1-nonlin 2-no                                               
   RPACOR =    0.000    partial core radius                                                         
   POMASS =    7.010; ZVAL   =    3.000    mass and valenz                                          
   RCORE  =    1.500    outmost cutoff radius                                                       
   RWIGS  =    1.600; RWIGS  =    0.847    wigner-seitz radius (au A)                               
   ENMAX  =  433.699; ENMIN  =  325.274 eV                                                          
   RCLOC  =    1.003    cutoff for local pot                                                        
   LCOR   =        T    correct aug charges                                                         
   LPAW   =        T    paw PP                                                                      
   EAUG   = 1041.699                                                                                
   RMAX   =    1.536    core radius for proj-oper                                                   
   RAUG   =    1.300    factor for augmentation sphere                                              
   RDEP   =    1.520    radius for radial grids                                                     
   RDEPT  =    1.300    core radius for aug-charge                                                  
                                                                                                    
   Atomic configuration                                                                             
    4 entries                                                                                       
     n  l   j            E        occ.                                                              
     1  0  0.50       -53.3604   2.0000                                                             
     1  0  0.50       -52.0001   0.0000                                                             
     2  1  0.50        -1.5636   1.0000                                                             
     3  2  1.50        -1.3606   0.0000                                                             
   Description                                                                                      
     l       E           TYP  RCUT    TYP  RCUT                                                     
     0    -53.3603633     23  1.200                                                                 
     0    -52.0001064     23  1.200                                                                 
     0    176.8757380     23  1.300                                                                 
     1     -1.5635925     23  1.500                                                                 
     1    108.8466080     23  1.500                                                                 
     2     81.6349560     23  1.500                                                                 
  local pseudopotential read in
  kinetic energy density of atom read in
  atomic valenz-charges read in
  non local Contribution for L=           0  read in
    real space projection operators read in
  non local Contribution for L=           0  read in
    real space projection operators read in
  non local Contribution for L=           0  read in
    real space projection operators read in
  non local Contribution for L=           1  read in
    real space projection operators read in
  non local Contribution for L=           1  read in
    real space projection operators read in
  non local Contribution for L=           2  read in
    real space projection operators read in
    PAW grid and wavefunctions read in
 
   number of l-projection  operators is LMAX  =           6
   number of lm-projection operators is LMMAX =          14
 
 POTCAR:    PAW_PBE P_GW 19Mar2012                
   SHA256 =  715c28f2291d37b61637ce89646c59f66f71c8b8d8bfba631e5feb9f7b42defe P_GW/POTCAR           
   COPYR  = (c) Copyright 19Mar2012 Georg Kresse                                                    
   COPYR  = This file is part of the software VASP. Any use, copying, and all other rights are regul
   COPYR  = If you do not have a valid VASP license, you may not use, copy or distribute this file. 
   VRHFIN =P : s2p3                                                                                 
   LEXCH  = PE                                                                                      
   EATOM  =   176.0430 eV,   12.9388 Ry                                                             
                                                                                                    
   TITEL  = PAW_PBE P_GW 19Mar2012                                                                  
   LULTRA =        F    use ultrasoft PP ?                                                          
   IUNSCR =        1    unscreen: 0-lin 1-nonlin 2-no                                               
   RPACOR =    1.400    partial core radius                                                         
   POMASS =   30.974; ZVAL   =    5.000    mass and valenz                                          
   RCORE  =    2.000    outmost cutoff radius                                                       
   RWIGS  =    1.900; RWIGS  =    1.005    wigner-seitz radius (au A)                               
   ENMAX  =  255.040; ENMIN  =  191.280 eV                                                          
   ICORE  =        3    local potential                                                             
   LCOR   =        T    correct aug charges                                                         
   LPAW   =        T    paw PP                                                                      
   EAUG   =  499.732                                                                                
   DEXC   =    0.000                                                                                
   RMAX   =    2.047    core radius for proj-oper                                                   
   RAUG   =    1.300    factor for augmentation sphere                                              
   RDEP   =    2.059    radius for radial grids                                                     
   RDEPT  =    1.900    core radius for aug-charge                                                  
                                                                                                    
   Atomic configuration                                                                             
    7 entries                                                                                       
     n  l   j            E        occ.                                                              
     1  0  0.50     -2084.0982   2.0000                                                             
     2  0  0.50      -173.9859   2.0000                                                             
     2  1  1.50      -124.4865   6.0000                                                             
     3  0  0.50       -13.9692   2.0000                                                             
     3  1  0.50        -5.5067   3.0000                                                             
     3  2  1.50        -6.8029   0.0000                                                             
     4  3  2.50        -1.3606   0.0000                                                             
   Description                                                                                      
     l       E           TYP  RCUT    TYP  RCUT                                                     
     0    -13.9691528     23  1.900                                                                 
     0    102.0436950     23  1.900                                                                 
     1     -5.5066939     23  1.900                                                                 
     1    102.0436950     23  1.900                                                                 
     2     -8.1634956     23  2.000                                                                 
     2     81.6349560     23  2.000                                                                 
     3     27.2116520     23  2.000                                                                 
  local pseudopotential read in
  partial core-charges read in
  partial kinetic energy density read in
  kinetic energy density of atom read in
  atomic valenz-charges read in
  non local Contribution for L=           0  read in
    real space projection operators read in
  non local Contribution for L=           0  read in
    real space projection operators read in
  non local Contribution for L=           1  read in
    real space projection operators read in
  non local Contribution for L=           1  read in
    real space projection operators read in
  non local Contribution for L=           2  read in
    real space projection operators read in
  non local Contribution for L=           2  read in
    real space projection operators read in
    PAW grid and wavefunctions read in
 
   number of l-projection  operators is LMAX  =           6
   number of lm-projection operators is LMMAX =          18
 
 POTCAR:    PAW_PBE S_GW 19Mar2012                
   SHA256 =  357db9cfb0783579b2eebe03197c2d807131fea8ea663b1fcfb6ce2fa75af011 S_GW/POTCAR           
   COPYR  = (c) Copyright 19Mar2012 Georg Kresse                                                    
   COPYR  = This file is part of the software VASP. Any use, copying, and all other rights are regul
   COPYR  = If you do not have a valid VASP license, you may not use, copy or distribute this file. 
   VRHFIN =S : s2p4                                                                                 
   LEXCH  = PE                                                                                      
   EATOM  =   276.8230 eV,   20.3459 Ry                                                             
                                                                                                    
   TITEL  = PAW_PBE S_GW 19Mar2012                                                                  
   LULTRA =        F    use ultrasoft PP ?                                                          
   IUNSCR =        1    unscreen: 0-lin 1-nonlin 2-no                                               
   RPACOR =    1.400    partial core radius                                                         
   POMASS =   32.066; ZVAL   =    6.000    mass and valenz                                          
   RCORE  =    1.900    outmost cutoff radius                                                       
   RWIGS  =    1.900; RWIGS  =    1.005    wigner-seitz radius (au A)                               
   ENMAX  =  258.689; ENMIN  =  194.016 eV                                                          
   ICORE  =        3    local potential                                                             
   LCOR   =        T    correct aug charges                                                         
   LPAW   =        T    paw PP                                                                      
   EAUG   =  488.319                                                                                
   DEXC   =    0.000                                                                                
   RMAX   =    1.942    core radius for proj-oper                                                   
   RAUG   =    1.300    factor for augmentation sphere                                              
   RDEP   =    1.954    radius for radial grids                                                     
   RDEPT  =    1.900    core radius for aug-charge                                                  
                                                                                                    
   Atomic configuration                                                                             
    7 entries                                                                                       
     n  l   j            E        occ.                                                              
     1  0  0.50     -2405.8406   2.0000                                                             
     2  0  0.50      -211.7007   2.0000                                                             
     2  1  1.50      -156.4958   6.0000                                                             
     3  0  0.50       -17.2562   2.0000                                                             
     3  1  0.50        -7.0085   4.0000                                                             
     3  2  1.50        -8.1635   0.0000                                                             
     4  3  2.50        -1.3606   0.0000                                                             
   Description                                                                                      
     l       E           TYP  RCUT    TYP  RCUT                                                     
     0    -17.2561639     23  1.700                                                                 
     0     88.4378690     23  1.900                                                                 
     1     -7.0085399     23  1.900                                                                 
     1     88.4378690     23  1.900                                                                 
     2    -10.8846608     23  1.900                                                                 
     2     54.4233040     23  1.900                                                                 
     3     27.2116520     23  1.800                                                                 
  local pseudopotential read in
  partial core-charges read in
  partial kinetic energy density read in
  kinetic energy density of atom read in
  atomic valenz-charges read in
  non local Contribution for L=           0  read in
    real space projection operators read in
  non local Contribution for L=           0  read in
    real space projection operators read in
  non local Contribution for L=           1  read in
    real space projection operators read in
  non local Contribution for L=           1  read in
    real space projection operators read in
  non local Contribution for L=           2  read in
    real space projection operators read in
  non local Contribution for L=           2  read in
    real space projection operators read in
    PAW grid and wavefunctions read in
 
   number of l-projection  operators is LMAX  =           6
   number of lm-projection operators is LMMAX =          18
 
 POTCAR:    PAW_PBE Cl_GW 19Mar2012               
   SHA256 =  3ef3b3169d6a9a89979f58b4cf17d927a58518fc660d8883d88cacaee8175441 Cl_GW/POTCAR          
   COPYR  = (c) Copyright 19Mar2012 Georg Kresse                                                    
   COPYR  = This file is part of the software VASP. Any use, copying, and all other rights are regul
   COPYR  = If you do not have a valid VASP license, you may not use, copy or distribute this file. 
   VRHFIN =Cl: s2p5                                                                                 
   LEXCH  = PE                                                                                      
   EATOM  =   409.7259 eV,   30.1140 Ry                                                             
                                                                                                    
   TITEL  = PAW_PBE Cl_GW 19Mar2012                                                                 
   LULTRA =        F    use ultrasoft PP ?                                                          
   IUNSCR =        1    unscreen: 0-lin 1-nonlin 2-no                                               
   RPACOR =    1.400    partial core radius                                                         
   POMASS =   35.453; ZVAL   =    7.000    mass and valenz                                          
   RCORE  =    1.900    outmost cutoff radius                                                       
   RWIGS  =    1.900; RWIGS  =    1.005    wigner-seitz radius (au A)                               
   ENMAX  =  262.472; ENMIN  =  196.854 eV                                                          
   ICORE  =        3    local potential                                                             
   LCOR   =        T    correct aug charges                                                         
   LPAW   =        T    paw PP                                                                      
   EAUG   =  456.703                                                                                
   DEXC   =    0.000                                                                                
   RMAX   =    1.945    core radius for proj-oper                                                   
   RAUG   =    1.300    factor for augmentation sphere                                              
   RDEP   =    2.020    radius for radial grids                                                     
   RDEPT  =    1.900    core radius for aug-charge                                                  
                                                                                                    
   Atomic configuration                                                                             
    7 entries                                                                                       
     n  l   j            E        occ.                                                              
     1  0  0.50     -2751.1850   2.0000                                                             
     2  0  0.50      -252.6861   2.0000                                                             
     2  1  1.50      -191.6157   6.0000                                                             
     3  0  0.50       -20.6916   2.0000                                                             
     3  1  0.50        -8.5949   5.0000                                                             
     3  2  1.50        -9.5241   0.0000                                                             
     4  3  2.50        -9.5241   0.0000                                                             
   Description                                                                                      
     l       E           TYP  RCUT    TYP  RCUT                                                     
     0    -20.6915657     23  1.700                                                                 
     0     95.2407820     23  1.800                                                                 
     1     -8.5948577     23  1.900                                                                 
     1     95.2407820     23  1.900                                                                 
     2    -10.8846608     23  1.900                                                                 
     2     54.4233040     23  1.900                                                                 
     3     27.2116520     23  1.900                                                                 
  local pseudopotential read in
  partial core-charges read in
  partial kinetic energy density read in
  kinetic energy density of atom read in
  atomic valenz-charges read in
  non local Contribution for L=           0  read in
    real space projection operators read in
  non local Contribution for L=           0  read in
    real space projection operators read in
  non local Contribution for L=           1  read in
    real space projection operators read in
  non local Contribution for L=           1  read in
    real space projection operators read in
  non local Contribution for L=           2  read in
    real space projection operators read in
  non local Contribution for L=           2  read in
    real space projection operators read in
    PAW grid and wavefunctions read in
 
   number of l-projection  operators is LMAX  =           6
   number of lm-projection operators is LMMAX =          18
 
 Optimization of the real space projectors (new method)

 maximal supplied QI-value         = 25.13
 optimisation between [QCUT,QGAM] = [ 11.56, 23.12] = [ 37.43,149.72] Ry 
 Optimized for a Real-space Cutoff    1.28 Angstroem

   l    n(q)    QCUT    max X(q) W(low)/X(q) W(high)/X(q)  e(spline) 
   0      9    11.561    87.733    0.11E-03    0.32E-04    0.56E-06
   0      9    11.561    82.800    0.11E-03    0.35E-04    0.56E-06
   0      9    11.561     2.509    0.22E-03    0.42E-04    0.79E-06
   1      8    11.561    12.580    0.94E-04    0.26E-03    0.21E-06
   1      8    11.561     1.319    0.33E-04    0.15E-03    0.19E-06
   2      8    11.561     1.993    0.36E-04    0.89E-04    0.26E-06
 Optimization of the real space projectors (new method)

 maximal supplied QI-value         = 18.90
 optimisation between [QCUT,QGAM] = [ 11.53, 23.24] = [ 37.21,151.29] Ry 
 Optimized for a Real-space Cutoff    1.21 Angstroem

   l    n(q)    QCUT    max X(q) W(low)/X(q) W(high)/X(q)  e(spline) 
   0      8    11.527     8.355    0.73E-04    0.70E-04    0.26E-07
   0      8    11.527     1.401    0.17E-03    0.17E-03    0.63E-07
   1      8    11.527     4.747    0.13E-03    0.17E-03    0.11E-06
   1      8    11.527     2.025    0.16E-03    0.18E-03    0.12E-06
   2      7    11.527     3.169    0.51E-04    0.25E-03    0.60E-07
   2      7    11.527     3.441    0.82E-04    0.22E-03    0.14E-06
 Optimization of the real space projectors (new method)

 maximal supplied QI-value         = 19.84
 optimisation between [QCUT,QGAM] = [ 11.51, 23.22] = [ 37.09,150.92] Ry 
 Optimized for a Real-space Cutoff    1.49 Angstroem

   l    n(q)    QCUT    max X(q) W(low)/X(q) W(high)/X(q)  e(spline) 
   0     10    11.508     7.541    0.34E-04    0.13E-04    0.69E-07
   0     10    11.508     1.809    0.49E-04    0.27E-04    0.14E-06
   1     10    11.508     4.107    0.27E-05    0.41E-05    0.14E-06
   1     10    11.508     2.196    0.26E-05    0.25E-05    0.22E-06
   2      9    11.508     4.265    0.18E-03    0.11E-03    0.81E-06
   2      9    11.508     1.925    0.97E-04    0.76E-04    0.47E-06
 Optimization of the real space projectors (new method)

 maximal supplied QI-value         = 19.84
 optimisation between [QCUT,QGAM] = [ 11.51, 23.22] = [ 37.09,150.92] Ry 
 Optimized for a Real-space Cutoff    1.21 Angstroem

   l    n(q)    QCUT    max X(q) W(low)/X(q) W(high)/X(q)  e(spline) 
   0      8    11.508     6.761    0.57E-04    0.57E-04    0.35E-07
   0      8    11.508     1.642    0.14E-03    0.14E-03    0.91E-07
   1      8    11.508     3.519    0.20E-04    0.72E-04    0.47E-07
   1      8    11.508     2.150    0.27E-04    0.11E-03    0.89E-07
   2      7    11.508     2.976    0.19E-03    0.33E-03    0.16E-06
   2      7    11.508     1.494    0.14E-03    0.29E-03    0.14E-06
  PAW_PBE Li_sv_GW 25Mar2010            :
 energy of atom  1       EATOM= -200.9989
 kinetic energy error for atom=    0.0127 (will be added to EATOM!!)
  PAW_PBE P_GW 19Mar2012                :
 energy of atom  2       EATOM= -176.0430
 kinetic energy error for atom=    0.0011 (will be added to EATOM!!)
  PAW_PBE S_GW 19Mar2012                :
 energy of atom  3       EATOM= -276.8230
 kinetic energy error for atom=    0.0024 (will be added to EATOM!!)
  PAW_PBE Cl_GW 19Mar2012               :
 energy of atom  4       EATOM= -409.7259
 kinetic energy error for atom=    0.0030 (will be added to EATOM!!)
 
 
 POSCAR: Li24 P4 S20 Cl4
  positions in direct lattice
  velocities in cartesian coordinates
 exchange correlation table for  LEXCH =        8
   RHO(1)=    0.500       N(1)  =     2000
   RHO(2)=  100.500       N(2)  =     4000

 VTST: version 4.1, (05/19/21)

 CHAIN: initializing optimizer
 
 OPT: Using VASP Conjugate-Gradient optimizer
 CHAIN: Read ICHAIN            0
 
 POSCAR: Li24 P4 S20 Cl4
  positions in direct lattice
  velocities in cartesian coordinates
 


--------------------------------------------------------------------------------------------------------


 ion  position               nearest neighbor table
   1  0.979  0.216  0.215-
   2  0.979  0.715  0.716-
   3  0.032  0.261  0.761-
   4  0.280  0.412  0.912-
   5  0.216  0.094  0.935-
   6  0.241  0.746  0.034-
   7  0.788  0.201  0.026-
   8  0.750  0.738  1.000-
   9  0.077  0.931  0.221-
  10  0.347  0.997  0.685-
  11  0.825  0.973  0.818-
  12  0.686  0.050  0.326-
  13  0.077  0.721  0.431-
  14  0.347  0.185  0.497-
  15  0.686  0.826  0.550-
  16  0.825  0.318  0.473-
  17  0.216  0.435  0.594-
  18  0.241  0.534  0.246-
  19  0.750  0.500  0.238-
  20  0.788  0.526  0.701-
  21  0.498  0.304  0.804-
  22  0.451  0.824  0.324-
  23  0.521  0.318  0.176-
  24  0.521  0.676  0.818-
  25  0.503  0.513  0.502-  43 2.03  41 2.04  42 2.06  44 2.08
  26  0.503  0.002  0.013-  39 2.03  38 2.04  37 2.06  40 2.08
  27  0.003  0.503  0.003-  33 2.03  34 2.05  35 2.06  36 2.06
  28  0.003  0.013  0.513-  30 2.05  29 2.05  32 2.05  31 2.07
  29  0.124  0.887  0.630-  28 2.05
  30  0.124  0.130  0.387-  28 2.05
  31  0.880  0.890  0.390-  28 2.07
  32  0.874  0.131  0.631-  28 2.05
  33  0.915  0.637  0.137-  27 2.03
  34  0.865  0.390  0.890-  27 2.05
  35  0.131  0.605  0.869-  27 2.06
  36  0.131  0.369  0.105-  27 2.06
  37  0.624  0.109  0.876-  26 2.06
  38  0.622  0.887  0.142-  26 2.04
  39  0.376  0.126  0.123-  26 2.03
  40  0.379  0.877  0.892-  26 2.08
  41  0.622  0.642  0.387-  25 2.04
  42  0.624  0.376  0.609-  25 2.06
  43  0.376  0.623  0.626-  25 2.03
  44  0.379  0.392  0.377-  25 2.08
  45  0.749  0.751  0.767-
  46  0.749  0.267  0.251-
  47  0.236  0.762  0.262-
  48  0.270  0.237  0.737-
  49  0.987  0.036  0.011-
  50  0.987  0.511  0.536-
  51  0.507  0.997  0.497-
  52  0.498  0.484  0.984-
 
  LATTYP: Found a simple cubic cell.
 ALAT       =     9.7236445455
  
  Lattice vectors:
  
 A1 = (   9.7236445455,   0.0000000000,   0.0000000000)
 A2 = (   0.0000000000,   9.7236445455,   0.0000000000)
 A3 = (   0.0000000000,   0.0000000000,   9.7236445455)


Analysis of symmetry for initial positions (statically):
=====================================================================
 Subroutine PRICEL returns:
 Original cell was already a primitive cell.
 

 Routine SETGRP: Setting up the symmetry group for a 
 simple cubic supercell.


 Subroutine GETGRP returns: Found  2 space group operations
 (whereof  1 operations were pure point group operations)
 out of a pool of 48 trial point group operations.


The static configuration has the point symmetry C_1 .
 The point group associated with its full space group is C_1h.


Analysis of symmetry for dynamics (positions and initial velocities):
=====================================================================
 Subroutine PRICEL returns:
 Original cell was already a primitive cell.
 

 Routine SETGRP: Setting up the symmetry group for a 
 simple cubic supercell.


 Subroutine GETGRP returns: Found  2 space group operations
 (whereof  1 operations were pure point group operations)
 out of a pool of 48 trial point group operations.


The dynamic configuration has the point symmetry C_1 .
 The point group associated with its full space group is C_1h.


Analysis of structural, dynamic, and magnetic symmetry:
=====================================================================
 Subroutine PRICEL returns:
 Original cell was already a primitive cell.
 

 Routine SETGRP: Setting up the symmetry group for a 
 simple cubic supercell.


 Subroutine GETGRP returns: Found  2 space group operations
 (whereof  1 operations were pure point group operations)
 out of a pool of 48 trial point group operations.


The overall configuration has the point symmetry C_1 .
 The point group associated with its full space group is C_1h.


 Subroutine INISYM returns: Found  2 space group operations
 (whereof  1 operations are pure point group operations),
 and found     1 'primitive' translations


----------------------------------------------------------------------------------------

                                     Primitive cell                                     

  volume of cell :     919.3634

  direct lattice vectors                    reciprocal lattice vectors
     9.723644545  0.000000000  0.000000000     0.102842097  0.000000000  0.000000000
     0.000000000  9.723644545  0.000000000     0.000000000  0.102842097  0.000000000
     0.000000000  0.000000000  9.723644545     0.000000000  0.000000000  0.102842097

  length of vectors
     9.723644545  9.723644545  9.723644545     0.102842097  0.102842097  0.102842097

  position of ions in fractional coordinates (direct lattice)
     0.979075617  0.215906248  0.215069825
     0.979075617  0.715069825  0.715906248
     0.031731610  0.261004495  0.761004495
     0.279694832  0.411813484  0.911813484
     0.215855177  0.093871683  0.934898501
     0.240993585  0.745834067  0.033970388
     0.787877804  0.200901732  0.026393075
     0.749865798  0.738096447  0.999650257
     0.077484411  0.931337343  0.221024534
     0.346591588  0.997055968  0.684932372
     0.824595320  0.973317241  0.817706947
     0.685661612  0.050115402  0.326217684
     0.077484411  0.721024534  0.431337343
     0.346591588  0.184932372  0.497055968
     0.685661612  0.826217684  0.550115402
     0.824595320  0.317706947  0.473317241
     0.215855177  0.434898501  0.593871683
     0.240993585  0.533970388  0.245834067
     0.749865798  0.499650257  0.238096447
     0.787877804  0.526393075  0.700901732
     0.498185092  0.304001847  0.804001847
     0.450925030  0.824055115  0.324055115
     0.520937926  0.317539401  0.176212877
     0.520937926  0.676212877  0.817539401
     0.502886481  0.512806684  0.502360965
     0.502886481  0.002360965  0.012806684
     0.002793245  0.502834467  0.002834467
     0.002968368  0.012731138  0.512731138
     0.124314816  0.886583940  0.629878959
     0.124314816  0.129878959  0.386583940
     0.880496990  0.889959601  0.389959601
     0.874255831  0.131106866  0.631106866
     0.914656857  0.637015949  0.137015949
     0.865151676  0.389534952  0.889534952
     0.131405574  0.605037955  0.868606906
     0.131405574  0.368606906  0.105037955
     0.624490906  0.108825452  0.875864477
     0.622107367  0.887055205  0.142019287
     0.375513206  0.125871923  0.122627664
     0.379165757  0.876666858  0.891818318
     0.622107367  0.642019287  0.387055205
     0.624490906  0.375864477  0.608825452
     0.375513206  0.622627664  0.625871923
     0.379165757  0.391818318  0.376666858
     0.749267597  0.751071105  0.766512270
     0.749267597  0.266512270  0.251071105
     0.236169971  0.762129881  0.262129881
     0.269689046  0.236550065  0.736550065
     0.987485213  0.035683344  0.011320460
     0.987485213  0.511320460  0.535683344
     0.507401270  0.997206428  0.497206428
     0.497772647  0.484194901  0.984194901

  ion indices of the primitive-cell ions
   primitive index   ion index
                 1           1
                 2           2
                 3           3
                 4           4
                 5           5
                 6           6
                 7           7
                 8           8
                 9           9
                10          10
                11          11
                12          12
                13          13
                14          14
                15          15
                16          16
                17          17
                18          18
                19          19
                20          20
                21          21
                22          22
                23          23
                24          24
                25          25
                26          26
                27          27
                28          28
                29          29
                30          30
                31          31
                32          32
                33          33
                34          34
                35          35
                36          36
                37          37
                38          38
                39          39
                40          40
                41          41
                42          42
                43          43
                44          44
                45          45
                46          46
                47          47
                48          48
                49          49
                50          50
                51          51
                52          52

----------------------------------------------------------------------------------------

 
 
 KPOINTS: Automatic mesh                          

Automatic generation of k-mesh.
 Grid dimensions read from file:
 generate k-points for:    2    2    2

 Generating k-lattice:

  Cartesian coordinates                     Fractional coordinates (reciprocal lattice)
     0.051421049  0.000000000  0.000000000     0.500000000  0.000000000  0.000000000
     0.000000000  0.051421049  0.000000000     0.000000000  0.500000000  0.000000000
     0.000000000  0.000000000  0.051421049     0.000000000  0.000000000  0.500000000

  Length of vectors
     0.051421049  0.051421049  0.051421049

  Shift w.r.t. Gamma in fractional coordinates (k-lattice)
     0.500000000  0.500000000  0.500000000

 
 Subroutine IBZKPT returns following result:
 ===========================================
 
 Found      3 irreducible k-points:
 
 Following reciprocal coordinates:
            Coordinates               Weight
  0.250000  0.250000  0.250000      2.000000
 -0.250000  0.250000  0.250000      2.000000
 -0.250000 -0.250000  0.250000      4.000000
 
 Following cartesian coordinates:
            Coordinates               Weight
  0.025711  0.025711  0.025711      2.000000
 -0.025711  0.025711  0.025711      2.000000
 -0.025711 -0.025711  0.025711      4.000000
 


--------------------------------------------------------------------------------------------------------




 Dimension of arrays:
   k-points           NKPTS =      3   k-points in BZ     NKDIM =      3   number of bands    NBANDS=    176
   number of dos      NEDOS =    301   number of ions     NIONS =     52
   non local maximal  LDIM  =      6   non local SUM 2l+1 LMDIM =     18
   total plane-waves  NPLWV = 373248
   max r-space proj   IRMAX =   5665   max aug-charges    IRDMAX=  17332
   dimension x,y,z NGX =    72 NGY =   72 NGZ =   72
   dimension x,y,z NGXF=   144 NGYF=  144 NGZF=  144
   support grid    NGXF=   144 NGYF=  144 NGZF=  144
   ions per type =              24   4  20   4
   NGX,Y,Z   is equivalent  to a cutoff of  12.31, 12.31, 12.31 a.u.
   NGXF,Y,Z  is equivalent  to a cutoff of  24.62, 24.62, 24.62 a.u.

 SYSTEM =  unknown system                          
 POSCAR =  Li24 P4 S20 Cl4                         

 Startparameter for this run:
   NWRITE =      2    write-flag & timer
   PREC   = accu      normal or accurate (medium, high low for compatibility)
   ISTART =      0    job   : 0-new  1-cont  2-samecut
   ICHARG =      2    charge: 1-file 2-atom 10-const
   ISPIN  =      2    spin polarized calculation?
   LNONCOLLINEAR =      F non collinear calculations
   LSORBIT =      F    spin-orbit coupling
   INIWAV =      1    electr: 0-lowe 1-rand  2-diag
   LASPH  =      T    aspherical Exc in radial PAW
 Electronic Relaxation 1
   ENCUT  =  520.0 eV  38.22 Ry    6.18 a.u.  18.08 18.08 18.08*2*pi/ulx,y,z
   ENINI  =  520.0     initial cutoff
   ENAUG  = 1041.7 eV  augmentation charge cutoff
   NELM   =    100;   NELMIN=  2; NELMDL=-10     # of ELM steps 
   EDIFF  = 0.1E-05   stopping-criterion for ELM
   LREAL  =      T    real-space projection
   NLSPLINE    = F    spline interpolate recip. space projectors
   LCOMPAT=      F    compatible to vasp.4.4
   GGA_COMPAT  = T    GGA compatible to vasp.4.4-vasp.4.6
   LMAXPAW     = -100 max onsite density
   LMAXMIX     =    4 max onsite mixed and CHGCAR
   VOSKOWN=      0    Vosko Wilk Nusair interpolation
   ROPT   =   -0.00025  -0.00025  -0.00025  -0.00025
 Ionic relaxation
   EDIFFG = -.1E-02   stopping-criterion for IOM
   NSW    =   1000    number of steps for IOM
   NBLOCK =      1;   KBLOCK =   1000    inner block; outer block 
   IBRION =      2    ionic relax: 0-MD 1-quasi-New 2-CG
   NFREE  =      1    steps in history (QN), initial steepest desc. (CG)
   ISIF   =      2    stress and relaxation
   IWAVPR =     11    prediction:  0-non 1-charg 2-wave 3-comb
   ISYM   =      2    0-nonsym 1-usesym 2-fastsym
   LCORR  =      T    Harris-Foulkes like correction to forces

   POTIM  = 0.2000    time-step for ionic-motion
   TEIN   =    0.0    initial temperature
   TEBEG  =    0.0;   TEEND  =   0.0 temperature during run
   SMASS  =  -3.00    Nose mass-parameter (am)
   estimated Nose-frequenzy (Omega)   =  0.10E-29 period in steps = 0.31E+47 mass=  -0.216E-26a.u.
   SCALEE = 1.0000    scale energy and forces
   NPACO  =    256;   APACO  = 10.0  distance and # of slots for P.C.
   PSTRESS=    0.0 pullay stress

  Mass of Ions in am
   POMASS =   7.01 30.97 32.07 35.45
  Ionic Valenz
   ZVAL   =   3.00  5.00  6.00  7.00
  Atomic Wigner-Seitz radii
   RWIGS  =  -1.00 -1.00 -1.00 -1.00
  virtual crystal weights 
   VCA    =   1.00  1.00  1.00  1.00
   NELECT =     240.0000    total number of electrons
   NUPDOWN=      -1.0000    fix difference up-down

 DOS related values:
   EMIN   =  10.00;   EMAX   =-10.00  energy-range for DOS
   EFERMI =   0.00;   METHOD = LEGACY      
   ISMEAR =     0;   SIGMA  =   0.03  broadening in eV -4-tet -1-fermi 0-gaus

 Electronic relaxation 2 (details)
   IALGO  =     68    algorithm
   LDIAG  =      T    sub-space diagonalisation (order eigenvalues)
   LSUBROT=      F    optimize rotation matrix (better conditioning)
   TURBO    =      0    0=normal 1=particle mesh
   IRESTART =      0    0=no restart 2=restart with 2 vectors
   NREBOOT  =      0    no. of reboots
   NMIN     =      0    reboot dimension
   EREF     =   0.00    reference energy to select bands
   IMIX   =      4    mixing-type and parameters
     AMIX     =   0.40;   BMIX     =  1.00
     AMIX_MAG =   1.60;   BMIX_MAG =  1.00
     AMIN     =   0.10
     WC   =   100.;   INIMIX=   1;  MIXPRE=   1;  MAXMIX= -45

 Intra band minimization:
   WEIMIN = 0.0010     energy-eigenvalue tresh-hold
   EBREAK =  0.14E-08  absolut break condition
   DEPER  =   0.30     relativ break condition  

   TIME   =   0.40     timestep for ELM

  volume/ion in A,a.u.               =      17.68       119.31
  Fermi-wavevector in a.u.,A,eV,Ry     =   1.046284  1.977190 14.894431  1.094710
  Thomas-Fermi vector in A             =   2.181115
 
 Write flags
   LWAVE        =      F    write WAVECAR
   LDOWNSAMPLE  =      F    k-point downsampling of WAVECAR
   LCHARG       =      F    write CHGCAR
   LVTOT        =      F    write LOCPOT, total local potential
   LVHAR        =      F    write LOCPOT, Hartree potential only
   LELF         =      F    write electronic localiz. function (ELF)
   LORBIT       =      0    0 simple, 1 ext, 2 COOP (PROOUT), +10 PAW based schemes


 Dipole corrections
   LMONO  =      F    monopole corrections only (constant potential shift)
   LDIPOL =      F    correct potential (dipole corrections)
   IDIPOL =      0    1-x, 2-y, 3-z, 4-all directions 
   EPSILON=  1.0000000 bulk dielectric constant

 Exchange correlation treatment:
   GGA     =    PE    GGA type
   LEXCH   =     8    internal setting for exchange type
   LIBXC   =     F    Libxc                    
   VOSKOWN =     0    Vosko Wilk Nusair interpolation
   LHFCALC =     F    Hartree Fock is set to
   LHFONE  =     F    Hartree Fock one center treatment
   AEXX    =    0.0000 exact exchange contribution

 Linear response parameters
   LEPSILON=     F    determine dielectric tensor
   LRPA    =     F    only Hartree local field effects (RPA)
   LNABLA  =     F    use nabla operator in PAW spheres
   LVEL    =     F    velocity operator in full k-point grid
   CSHIFT  =0.1000    complex shift for real part using Kramers Kronig
   OMEGAMAX=  -1.0    maximum frequency
   DEG_THRESHOLD= 0.2000000E-02 threshold for treating states as degnerate
   RTIME   =   -0.100 relaxation time in fs
  (WPLASMAI=    0.000 imaginary part of plasma frequency in eV, 0.658/RTIME)
   DFIELD  = 0.0000000 0.0000000 0.0000000 field for delta impulse in time
 
  Optional k-point grid parameters
   LKPOINTS_OPT  =     F    use optional k-point grid
   KPOINTS_OPT_MODE=     1    mode for optional k-point grid
 
 Orbital magnetization related:
   ORBITALMAG=     F  switch on orbital magnetization
   LCHIMAG   =     F  perturbation theory with respect to B field
   DQ        =  0.001000  dq finite difference perturbation B field
   LLRAUG    =     F  two centre corrections for induced B field
   LBONE     =     F  B-component reconstruction in AE one-centre
   LVGVCALC  =     T  calculate vGv susceptibility
   LVGVAPPL  =     F  apply vGv susceptibility instead of pGv for G=0

 Random number generation:
   RANDOM_GENERATOR = DEFAULT
   PCG_SEED         = not used


--------------------------------------------------------------------------------------------------------


 conjugate gradient relaxation of ions
 charge density and potential will be updated during run
 spin polarized calculation
 RMM-DIIS sequential band-by-band and
  variant of blocked Davidson during initial phase
 perform sub-space diagonalisation
    before iterative eigenvector-optimisation
 modified Broyden-mixing scheme, WC =      100.0
 initial mixing is a Kerker type mixing with AMIX =  0.4000 and BMIX =      1.0000
 Hartree-type preconditioning will be used
 using additional bands           56
 real space projection scheme for non local part
 use partial core corrections
 calculate Harris-corrections to forces 
   (improved forces if not selfconsistent)
 use gradient corrections 
 use of overlap-Matrix (Vanderbilt PP)
 Gauss-broadening in eV      SIGMA  =   0.03


--------------------------------------------------------------------------------------------------------


  energy-cutoff  :      520.00
  volume of cell :      919.36
      direct lattice vectors                 reciprocal lattice vectors
     9.723644545  0.000000000  0.000000000     0.102842097  0.000000000  0.000000000
     0.000000000  9.723644545  0.000000000     0.000000000  0.102842097  0.000000000
     0.000000000  0.000000000  9.723644545     0.000000000  0.000000000  0.102842097

  length of vectors
     9.723644545  9.723644545  9.723644545     0.102842097  0.102842097  0.102842097


 
 k-points in units of 2pi/SCALE and weight: Automatic mesh                          
   0.02571052  0.02571052  0.02571052       0.250
  -0.02571052  0.02571052  0.02571052       0.250
  -0.02571052 -0.02571052  0.02571052       0.500
 
 k-points in reciprocal lattice and weights: Automatic mesh                          
   0.25000000  0.25000000  0.25000000       0.250
  -0.25000000  0.25000000  0.25000000       0.250
  -0.25000000 -0.25000000  0.25000000       0.500
 
 position of ions in fractional coordinates (direct lattice) 
   0.97907562  0.21590625  0.21506983
   0.97907562  0.71506983  0.71590625
   0.03173161  0.26100450  0.76100450
   0.27969483  0.41181348  0.91181348
   0.21585518  0.09387168  0.93489850
   0.24099359  0.74583407  0.03397039
   0.78787780  0.20090173  0.02639307
   0.74986580  0.73809645  0.99965026
   0.07748441  0.93133734  0.22102453
   0.34659159  0.99705597  0.68493237
   0.82459532  0.97331724  0.81770695
   0.68566161  0.05011540  0.32621768
   0.07748441  0.72102453  0.43133734
   0.34659159  0.18493237  0.49705597
   0.68566161  0.82621768  0.55011540
   0.82459532  0.31770695  0.47331724
   0.21585518  0.43489850  0.59387168
   0.24099359  0.53397039  0.24583407
   0.74986580  0.49965026  0.23809645
   0.78787780  0.52639307  0.70090173
   0.49818509  0.30400185  0.80400185
   0.45092503  0.82405511  0.32405511
   0.52093793  0.31753940  0.17621288
   0.52093793  0.67621288  0.81753940
   0.50288648  0.51280668  0.50236096
   0.50288648  0.00236096  0.01280668
   0.00279325  0.50283447  0.00283447
   0.00296837  0.01273114  0.51273114
   0.12431482  0.88658394  0.62987896
   0.12431482  0.12987896  0.38658394
   0.88049699  0.88995960  0.38995960
   0.87425583  0.13110687  0.63110687
   0.91465686  0.63701595  0.13701595
   0.86515168  0.38953495  0.88953495
   0.13140557  0.60503796  0.86860691
   0.13140557  0.36860691  0.10503796
   0.62449091  0.10882545  0.87586448
   0.62210737  0.88705520  0.14201929
   0.37551321  0.12587192  0.12262766
   0.37916576  0.87666686  0.89181832
   0.62210737  0.64201929  0.38705520
   0.62449091  0.37586448  0.60882545
   0.37551321  0.62262766  0.62587192
   0.37916576  0.39181832  0.37666686
   0.74926760  0.75107111  0.76651227
   0.74926760  0.26651227  0.25107111
   0.23616997  0.76212988  0.26212988
   0.26968905  0.23655006  0.73655006
   0.98748521  0.03568334  0.01132046
   0.98748521  0.51132046  0.53568334
   0.50740127  0.99720643  0.49720643
   0.49777265  0.48419490  0.98419490
 
 position of ions in cartesian coordinates  (Angst):
   9.52018329  2.09939561  2.09126253
   9.52018329  6.95308481  6.96121788
   0.30854689  2.53791493  7.39973721
   2.71965312  4.00432794  8.86615021
   2.09889901  0.91277488  9.09062071
   2.34333596  7.25222536  0.33031598
   7.66104371  1.95349703  0.25663688
   7.29142848  7.17698749  9.72024377
   0.75343087  9.05599328  2.14916400
   3.37013340  9.69501782  6.66003892
   8.01807178  9.46419088  7.95109170
   6.66712979  0.48730435  3.17202481
   0.75343087  7.01098628  4.19417101
   3.37013340  1.79821665  4.83319555
   6.66712979  8.03384708  5.34912662
   8.01807178  3.08926943  4.60236861
   2.09889901  4.22879844  5.77459715
   2.34333596  5.19213825  2.39040309
   7.29142848  4.85842150  2.31516522
   7.66104371  5.11845915  6.81531930
   4.84417476  2.95600590  7.81782817
   4.38463471  8.01281902  3.15099675
   5.06541522  3.08764026  1.71343138
   5.06541522  6.57525365  7.94946253
   4.88988938  4.98634991  4.88477945
   4.88988938  0.02295718  0.12452764
   0.02716053  4.88938362  0.02756135
   0.02886335  0.12379306  4.98561533
   1.20879308  8.62082709  6.12471910
   1.20879308  1.26289683  3.75900482
   8.56163976  8.65365082  3.79182854
   8.50095295  1.27483656  6.13665884
   8.89379816  6.19411666  1.33229439
   8.41242737  3.78769941  8.64952168
   1.27774109  5.88317401  8.44602480
   1.27774109  3.58420253  1.02135174
   6.07232759  1.05818002  8.51659484
   6.04915091  8.62540951  1.38094507
   3.65135694  1.22393384  1.19238782
   3.68687305  8.52439691  8.67172432
   6.04915091  6.24276734  3.76358723
   6.07232759  3.65477257  5.92000229
   3.65135694  6.05421009  6.08575611
   3.68687305  3.80990205  3.66257464
   7.28561179  7.30314846  7.45329285
   7.28561179  2.59147058  2.44132618
   2.29643285  7.41068006  2.54885778
   2.62236042  2.30012875  7.16195102
   9.60195520  0.34697216  0.11007613
   9.60195520  4.97189840  5.20879443
   4.93378959  9.69648084  4.83465857
   4.84016428  4.70813911  9.56996138
 


--------------------------------------------------------------------------------------------------------


 k-point   1 :   0.2500 0.2500 0.2500  plane waves:   24762
 k-point   2 :  -0.2500 0.2500 0.2500  plane waves:   24762
 k-point   3 :  -0.2500-0.2500 0.2500  plane waves:   24762

 maximum and minimum number of plane-waves per node :       794      756

 maximum number of plane-waves:     24762
 maximum index in each direction: 
   IXMAX=   18   IYMAX=   18   IZMAX=   17
   IXMIN=  -18   IYMIN=  -18   IZMIN=  -18


 real space projection operators:
  total allocation   :      27792.22 KBytes
  max/ min on nodes  :       1176.75        713.34


 parallel 3D FFT for wavefunctions:
    minimum data exchange during FFTs selected (reduces bandwidth)
 parallel 3D FFT for charge:
    minimum data exchange during FFTs selected (reduces bandwidth)


 total amount of memory used by VASP MPI-rank0    46958. kBytes
=======================================================================

   base      :      30000. kBytes
   nonlr-proj:       6442. kBytes
   fftplans  :       1747. kBytes
   grid      :       5278. kBytes
   one-center:         62. kBytes
   wavefun   :       3429. kBytes
 
     INWAV:  cpu time      0.0001: real time      0.0001
 Broyden mixing: mesh for mixing (old mesh)
   NGX = 37   NGY = 37   NGZ = 37
  (NGX  =144   NGY  =144   NGZ  =144)
  gives a total of  50653 points

 initial charge density was supplied:
 charge density of overlapping atoms calculated
 number of electron     240.0000000 magnetization      52.0000000
 keeping initial charge density in first step


--------------------------------------------------------------------------------------------------------


 Maximum index for non-local projection operator          614
 Maximum index for augmentation-charges          954 (set IRDMAX)


--------------------------------------------------------------------------------------------------------


 First call to EWALD:  gamma=   0.182
 Maximum number of real-space cells 3x 3x 3
 Maximum number of reciprocal cells 3x 3x 3

    FEWALD:  cpu time      0.0029: real time      0.0037


--------------------------------------- Ionic step        1  -------------------------------------------




--------------------------------------- Iteration      1(   1)  ---------------------------------------


    POTLOK:  cpu time      0.0577: real time      0.0675
    SETDIJ:  cpu time      0.4118: real time      0.4197
     EDDAV:  cpu time      1.6796: real time      1.7101
       DOS:  cpu time      0.0024: real time      0.0037
    --------------------------------------------
      LOOP:  cpu time      2.1515: real time      2.2010

 eigenvalue-minimisations  :  2320
 total energy-change (2. order) : 0.1586748E+04  (-0.1131373E+05)
 number of electron     240.0000000 magnetization      52.0000000
 augmentation part      240.0000000 magnetization      52.0000000

 Free energy of the ion-electron system (eV)
  ---------------------------------------------------
  alpha Z        PSCENC =       295.26680685
  Ewald energy   TEWEN  =     -8697.85856144
  -Hartree energ DENC   =     -2180.83139172
  -exchange      EXHF   =         0.00000000
  -V(xc)+E(xc)   XCENC  =       533.40545191
  PAW double counting   =      8141.38806575    -8271.61346273
  entropy T*S    EENTRO =        -0.00859973
  eigenvalues    EBANDS =      -936.14002902
  atomic energy  EATOM  =     12703.13999606
  Solvation  Ediel_sol  =         0.00000000
  ---------------------------------------------------
  free energy    TOTEN  =      1586.74827592 eV

  energy without entropy =     1586.75687565  energy(sigma->0) =     1586.75257579


--------------------------------------------------------------------------------------------------------




--------------------------------------- Iteration      1(   2)  ---------------------------------------


     EDDAV:  cpu time      2.0014: real time      2.0234
       DOS:  cpu time      0.0005: real time      0.0005
    --------------------------------------------
      LOOP:  cpu time      2.0019: real time      2.0239

 eigenvalue-minimisations  :  2904
 total energy-change (2. order) :-0.1640449E+04  (-0.1539142E+04)
 number of electron     240.0000000 magnetization      52.0000000
 augmentation part      240.0000000 magnetization      52.0000000

 Free energy of the ion-electron system (eV)
  ---------------------------------------------------
  alpha Z        PSCENC =       295.26680685
  Ewald energy   TEWEN  =     -8697.85856144
  -Hartree energ DENC   =     -2180.83139172
  -exchange      EXHF   =         0.00000000
  -V(xc)+E(xc)   XCENC  =       533.40545191
  PAW double counting   =      8141.38806575    -8271.61346273
  entropy T*S    EENTRO =        -0.00000000
  eigenvalues    EBANDS =     -2576.59749330
  atomic energy  EATOM  =     12703.13999606
  Solvation  Ediel_sol  =         0.00000000
  ---------------------------------------------------
  free energy    TOTEN  =       -53.70058863 eV

  energy without entropy =      -53.70058863  energy(sigma->0) =      -53.70058863


--------------------------------------------------------------------------------------------------------




--------------------------------------- Iteration      1(   3)  ---------------------------------------


     EDDAV:  cpu time      1.9546: real time      1.9766
       DOS:  cpu time      0.0004: real time      0.0004
    --------------------------------------------
      LOOP:  cpu time      1.9550: real time      1.9771

 eigenvalue-minimisations  :  2832
 total energy-change (2. order) :-0.1741313E+03  (-0.1720913E+03)
 number of electron     240.0000000 magnetization      52.0000000
 augmentation part      240.0000000 magnetization      52.0000000

 Free energy of the ion-electron system (eV)
  ---------------------------------------------------
  alpha Z        PSCENC =       295.26680685
  Ewald energy   TEWEN  =     -8697.85856144
  -Hartree energ DENC   =     -2180.83139172
  -exchange      EXHF   =         0.00000000
  -V(xc)+E(xc)   XCENC  =       533.40545191
  PAW double counting   =      8141.38806575    -8271.61346273
  entropy T*S    EENTRO =        -0.00000000
  eigenvalues    EBANDS =     -2750.72880639
  atomic energy  EATOM  =     12703.13999606
  Solvation  Ediel_sol  =         0.00000000
  ---------------------------------------------------
  free energy    TOTEN  =      -227.83190172 eV

  energy without entropy =     -227.83190172  energy(sigma->0) =     -227.83190172


--------------------------------------------------------------------------------------------------------




--------------------------------------- Iteration      1(   4)  ---------------------------------------


     EDDAV:  cpu time      2.3472: real time      2.4192
       DOS:  cpu time      0.0005: real time      0.0005
    --------------------------------------------
      LOOP:  cpu time      2.3477: real time      2.4197

 eigenvalue-minimisations  :  3520
 total energy-change (2. order) :-0.1329846E+02  (-0.1327463E+02)
 number of electron     240.0000000 magnetization      52.0000000
 augmentation part      240.0000000 magnetization      52.0000000

 Free energy of the ion-electron system (eV)
  ---------------------------------------------------
  alpha Z        PSCENC =       295.26680685
  Ewald energy   TEWEN  =     -8697.85856144
  -Hartree energ DENC   =     -2180.83139172
  -exchange      EXHF   =         0.00000000
  -V(xc)+E(xc)   XCENC  =       533.40545191
  PAW double counting   =      8141.38806575    -8271.61346273
  entropy T*S    EENTRO =        -0.00000000
  eigenvalues    EBANDS =     -2764.02727119
  atomic energy  EATOM  =     12703.13999606
  Solvation  Ediel_sol  =         0.00000000
  ---------------------------------------------------
  free energy    TOTEN  =      -241.13036652 eV

  energy without entropy =     -241.13036652  energy(sigma->0) =     -241.13036652


--------------------------------------------------------------------------------------------------------




--------------------------------------- Iteration      1(   5)  ---------------------------------------


     EDDAV:  cpu time      2.2211: real time      2.2756
       DOS:  cpu time      0.0005: real time      0.0005
    --------------------------------------------
      LOOP:  cpu time      2.2215: real time      2.2761

 eigenvalue-minimisations  :  3320
 total energy-change (2. order) :-0.2438494E+00  (-0.2437458E+00)
 number of electron     240.0000000 magnetization      52.0000000
 augmentation part      240.0000000 magnetization      52.0000000

 Free energy of the ion-electron system (eV)
  ---------------------------------------------------
  alpha Z        PSCENC =       295.26680685
  Ewald energy   TEWEN  =     -8697.85856144
  -Hartree energ DENC   =     -2180.83139172
  -exchange      EXHF   =         0.00000000
  -V(xc)+E(xc)   XCENC  =       533.40545191
  PAW double counting   =      8141.38806575    -8271.61346273
  entropy T*S    EENTRO =        -0.00000000
  eigenvalues    EBANDS =     -2764.27112061
  atomic energy  EATOM  =     12703.13999606
  Solvation  Ediel_sol  =         0.00000000
  ---------------------------------------------------
  free energy    TOTEN  =      -241.37421593 eV

  energy without entropy =     -241.37421593  energy(sigma->0) =     -241.37421593


--------------------------------------------------------------------------------------------------------




--------------------------------------- Iteration      1(   6)  ---------------------------------------


     EDDAV:  cpu time      2.3102: real time      2.3286
       DOS:  cpu time      0.0004: real time      0.0004
    --------------------------------------------
      LOOP:  cpu time      2.3106: real time      2.3290

 eigenvalue-minimisations  :  3472
 total energy-change (2. order) :-0.1121919E-01  (-0.1121801E-01)
 number of electron     240.0000000 magnetization      52.0000000
 augmentation part      240.0000000 magnetization      52.0000000

 Free energy of the ion-electron system (eV)
  ---------------------------------------------------
  alpha Z        PSCENC =       295.26680685
  Ewald energy   TEWEN  =     -8697.85856144
  -Hartree energ DENC   =     -2180.83139172
  -exchange      EXHF   =         0.00000000
  -V(xc)+E(xc)   XCENC  =       533.40545191
  PAW double counting   =      8141.38806575    -8271.61346273
  entropy T*S    EENTRO =        -0.00000000
  eigenvalues    EBANDS =     -2764.28233980
  atomic energy  EATOM  =     12703.13999606
  Solvation  Ediel_sol  =         0.00000000
  ---------------------------------------------------
  free energy    TOTEN  =      -241.38543512 eV

  energy without entropy =     -241.38543512  energy(sigma->0) =     -241.38543512


--------------------------------------------------------------------------------------------------------




--------------------------------------- Iteration      1(   7)  ---------------------------------------


     EDDAV:  cpu time      2.2636: real time      2.2837
       DOS:  cpu time      0.0005: real time      0.0005
    --------------------------------------------
      LOOP:  cpu time      2.2641: real time      2.2842

 eigenvalue-minimisations  :  3400
 total energy-change (2. order) :-0.3847372E-03  (-0.3847132E-03)
 number of electron     240.0000000 magnetization      52.0000000
 augmentation part      240.0000000 magnetization      52.0000000

 Free energy of the ion-electron system (eV)
  ---------------------------------------------------
  alpha Z        PSCENC =       295.26680685
  Ewald energy   TEWEN  =     -8697.85856144
  -Hartree energ DENC   =     -2180.83139172
  -exchange      EXHF   =         0.00000000
  -V(xc)+E(xc)   XCENC  =       533.40545191
  PAW double counting   =      8141.38806575    -8271.61346273
  entropy T*S    EENTRO =        -0.00000000
  eigenvalues    EBANDS =     -2764.28272453
  atomic energy  EATOM  =     12703.13999606
  Solvation  Ediel_sol  =         0.00000000
  ---------------------------------------------------
  free energy    TOTEN  =      -241.38581986 eV

  energy without entropy =     -241.38581986  energy(sigma->0) =     -241.38581986


--------------------------------------------------------------------------------------------------------




--------------------------------------- Iteration      1(   8)  ---------------------------------------


     EDDAV:  cpu time      2.2794: real time      2.2989
       DOS:  cpu time      0.0003: real time      0.0003
    --------------------------------------------
      LOOP:  cpu time      2.2798: real time      2.2992

 eigenvalue-minimisations  :  3424
 total energy-change (2. order) :-0.2245450E-04  (-0.2245362E-04)
 number of electron     240.0000000 magnetization      52.0000000
 augmentation part      240.0000000 magnetization      52.0000000

 Free energy of the ion-electron system (eV)
  ---------------------------------------------------
  alpha Z        PSCENC =       295.26680685
  Ewald energy   TEWEN  =     -8697.85856144
  -Hartree energ DENC   =     -2180.83139172
  -exchange      EXHF   =         0.00000000
  -V(xc)+E(xc)   XCENC  =       533.40545191
  PAW double counting   =      8141.38806575    -8271.61346273
  entropy T*S    EENTRO =        -0.00000000
  eigenvalues    EBANDS =     -2764.28274699
  atomic energy  EATOM  =     12703.13999606
  Solvation  Ediel_sol  =         0.00000000
  ---------------------------------------------------
  free energy    TOTEN  =      -241.38584231 eV

  energy without entropy =     -241.38584231  energy(sigma->0) =     -241.38584231


--------------------------------------------------------------------------------------------------------




--------------------------------------- Iteration      1(   9)  ---------------------------------------


     EDDAV:  cpu time      2.2379: real time      2.2563
       DOS:  cpu time      0.0006: real time      0.0006
    --------------------------------------------
      LOOP:  cpu time      2.2385: real time      2.2569

 eigenvalue-minimisations  :  3344
 total energy-change (2. order) :-0.1446093E-05  (-0.1445827E-05)
 number of electron     240.0000000 magnetization      52.0000000
 augmentation part      240.0000000 magnetization      52.0000000

 Free energy of the ion-electron system (eV)
  ---------------------------------------------------
  alpha Z        PSCENC =       295.26680685
  Ewald energy   TEWEN  =     -8697.85856144
  -Hartree energ DENC   =     -2180.83139172
  -exchange      EXHF   =         0.00000000
  -V(xc)+E(xc)   XCENC  =       533.40545191
  PAW double counting   =      8141.38806575    -8271.61346273
  entropy T*S    EENTRO =        -0.00000000
  eigenvalues    EBANDS =     -2764.28274844
  atomic energy  EATOM  =     12703.13999606
  Solvation  Ediel_sol  =         0.00000000
  ---------------------------------------------------
  free energy    TOTEN  =      -241.38584376 eV

  energy without entropy =     -241.38584376  energy(sigma->0) =     -241.38584376


--------------------------------------------------------------------------------------------------------




--------------------------------------- Iteration      1(  10)  ---------------------------------------


     EDDAV:  cpu time      1.5107: real time      1.5331
       DOS:  cpu time      0.0005: real time      0.0005
    CHARGE:  cpu time      0.1329: real time      0.1613
    MIXING:  cpu time      0.0025: real time      0.0029
    --------------------------------------------
      LOOP:  cpu time      1.6467: real time      1.6978

 eigenvalue-minimisations  :  1992
 total energy-change (2. order) :-0.6137998E-07  (-0.6139282E-07)
 number of electron     239.9999998 magnetization      27.4930898
 augmentation part        1.4728997 magnetization      27.9340295

 Broyden mixing:
  rms(total) = 0.64614E+01    rms(broyden)= 0.64611E+01
  rms(prec ) = 0.66963E+01
  weight for this iteration     100.00

 Free energy of the ion-electron system (eV)
  ---------------------------------------------------
  alpha Z        PSCENC =       295.26680685
  Ewald energy   TEWEN  =     -8697.85856144
  -Hartree energ DENC   =     -2180.83139172
  -exchange      EXHF   =         0.00000000
  -V(xc)+E(xc)   XCENC  =       533.40545191
  PAW double counting   =      8141.38806575    -8271.61346273
  entropy T*S    EENTRO =        -0.00000000
  eigenvalues    EBANDS =     -2764.28274850
  atomic energy  EATOM  =     12703.13999606
  Solvation  Ediel_sol  =         0.00000000
  ---------------------------------------------------
  free energy    TOTEN  =      -241.38584382 eV

  energy without entropy =     -241.38584382  energy(sigma->0) =     -241.38584382


--------------------------------------------------------------------------------------------------------




--------------------------------------- Iteration      1(  11)  ---------------------------------------


    POTLOK:  cpu time      0.0600: real time      0.0611
    SETDIJ:  cpu time      0.4065: real time      0.4095
    EDDIAG:  cpu time      0.2831: real time      0.2878
  RMM-DIIS:  cpu time      1.1183: real time      1.2217
    ORTHCH:  cpu time      0.0488: real time      0.3554
       DOS:  cpu time      0.0005: real time      0.0005
    CHARGE:  cpu time      0.1256: real time      0.1454
    MIXING:  cpu time      0.0010: real time      0.0020
    --------------------------------------------
      LOOP:  cpu time      2.0439: real time      2.4833

 eigenvalue-minimisations  :  2112
 total energy-change (2. order) : 0.7592844E+01  (-0.4940510E+01)
 number of electron     239.9999999 magnetization      16.5355150
 augmentation part        1.6887300 magnetization      16.7267859

 Broyden mixing:
  rms(total) = 0.33116E+01    rms(broyden)= 0.33115E+01
  rms(prec ) = 0.34299E+01
  weight for this iteration     100.00

 eigenvalues of (default mixing * dielectric matrix)
  average eigenvalue GAMMA=   0.7258
  0.7258

 Free energy of the ion-electron system (eV)
  ---------------------------------------------------
  alpha Z        PSCENC =       295.26680685
  Ewald energy   TEWEN  =     -8697.85856144
  -Hartree energ DENC   =     -2234.04763441
  -exchange      EXHF   =         0.00000000
  -V(xc)+E(xc)   XCENC  =       542.47907502
  PAW double counting   =      8936.55761611    -9072.89421018
  entropy T*S    EENTRO =        -0.00000000
  eigenvalues    EBANDS =     -2706.43608820
  atomic energy  EATOM  =     12703.13999606
  Solvation  Ediel_sol  =         0.00000000
  ---------------------------------------------------
  free energy    TOTEN  =      -233.79300017 eV

  energy without entropy =     -233.79300017  energy(sigma->0) =     -233.79300017


--------------------------------------------------------------------------------------------------------




--------------------------------------- Iteration      1(  12)  ---------------------------------------


    POTLOK:  cpu time      0.0536: real time      0.0545
    SETDIJ:  cpu time      0.4097: real time      0.4116
    EDDIAG:  cpu time      0.4799: real time      0.4917
  RMM-DIIS:  cpu time      0.9608: real time      0.9826
    ORTHCH:  cpu time      0.0509: real time      0.0514
       DOS:  cpu time      0.0004: real time      0.0004
    CHARGE:  cpu time      0.1270: real time      0.1571
    MIXING:  cpu time      0.0012: real time      0.0012
    --------------------------------------------
      LOOP:  cpu time      2.0834: real time      2.1504

 eigenvalue-minimisations  :  2216
 total energy-change (2. order) :-0.2159103E+02  (-0.2446832E+01)
 number of electron     239.9999999 magnetization       1.1037334
 augmentation part        1.8058659 magnetization       1.4516613

 Broyden mixing:
  rms(total) = 0.20834E+01    rms(broyden)= 0.20834E+01
  rms(prec ) = 0.21421E+01
  weight for this iteration     100.00

 eigenvalues of (default mixing * dielectric matrix)
  average eigenvalue GAMMA=   1.0983
  1.5305  0.6661

 Free energy of the ion-electron system (eV)
  ---------------------------------------------------
  alpha Z        PSCENC =       295.26680685
  Ewald energy   TEWEN  =     -8697.85856144
  -Hartree energ DENC   =     -2261.42447757
  -exchange      EXHF   =         0.00000000
  -V(xc)+E(xc)   XCENC  =       535.92534705
  PAW double counting   =      9296.11483901    -9436.11886606
  entropy T*S    EENTRO =        -0.00000000
  eigenvalues    EBANDS =     -2690.42911471
  atomic energy  EATOM  =     12703.13999606
  Solvation  Ediel_sol  =         0.00000000
  ---------------------------------------------------
  free energy    TOTEN  =      -255.38403080 eV

  energy without entropy =     -255.38403080  energy(sigma->0) =     -255.38403080


--------------------------------------------------------------------------------------------------------




--------------------------------------- Iteration      1(  13)  ---------------------------------------


    POTLOK:  cpu time      0.0533: real time      0.0542
    SETDIJ:  cpu time      0.4093: real time      0.4113
    EDDIAG:  cpu time      0.2709: real time      0.2726
  RMM-DIIS:  cpu time      0.8880: real time      0.8968
    ORTHCH:  cpu time      0.0508: real time      0.0513
       DOS:  cpu time      0.0004: real time      0.0004
    CHARGE:  cpu time      0.1250: real time      0.1527
    MIXING:  cpu time      0.0013: real time      0.0013
    --------------------------------------------
      LOOP:  cpu time      1.7990: real time      1.8406

 eigenvalue-minimisations  :  2159
 total energy-change (2. order) :-0.2513331E+01  (-0.8847294E+00)
 number of electron     239.9999999 magnetization      -1.9366447
 augmentation part        1.9102381 magnetization      -1.8213003

 Broyden mixing:
  rms(total) = 0.74391E+00    rms(broyden)= 0.74391E+00
  rms(prec ) = 0.77519E+00
  weight for this iteration     100.00

 eigenvalues of (default mixing * dielectric matrix)
  average eigenvalue GAMMA=   1.3092
  2.5365  0.7407  0.6505

 Free energy of the ion-electron system (eV)
  ---------------------------------------------------
  alpha Z        PSCENC =       295.26680685
  Ewald energy   TEWEN  =     -8697.85856144
  -Hartree energ DENC   =     -2290.30026774
  -exchange      EXHF   =         0.00000000
  -V(xc)+E(xc)   XCENC  =       537.29304857
  PAW double counting   =      9781.07305381    -9924.92418631
  entropy T*S    EENTRO =        -0.00000000
  eigenvalues    EBANDS =     -2661.58725194
  atomic energy  EATOM  =     12703.13999606
  Solvation  Ediel_sol  =         0.00000000
  ---------------------------------------------------
  free energy    TOTEN  =      -257.89736215 eV

  energy without entropy =     -257.89736215  energy(sigma->0) =     -257.89736215


--------------------------------------------------------------------------------------------------------




--------------------------------------- Iteration      1(  14)  ---------------------------------------


    POTLOK:  cpu time      0.0544: real time      0.0555
    SETDIJ:  cpu time      0.4101: real time      0.4117
    EDDIAG:  cpu time      0.2688: real time      0.2708
  RMM-DIIS:  cpu time      1.1454: real time      1.1554
    ORTHCH:  cpu time      0.0501: real time      0.0504
       DOS:  cpu time      0.0004: real time      0.0004
    CHARGE:  cpu time      0.1139: real time      0.1350
    MIXING:  cpu time      0.0013: real time      0.0013
    --------------------------------------------
      LOOP:  cpu time      2.0444: real time      2.0805

 eigenvalue-minimisations  :  2788
 total energy-change (2. order) :-0.2012561E+00  (-0.2075778E+00)
 number of electron     239.9999999 magnetization      -0.8457240
 augmentation part        1.8832283 magnetization      -0.8196305

 Broyden mixing:
  rms(total) = 0.32695E+00    rms(broyden)= 0.32695E+00
  rms(prec ) = 0.36459E+00
  weight for this iteration     100.00

 eigenvalues of (default mixing * dielectric matrix)
  average eigenvalue GAMMA=   1.2783
  2.6402  1.1826  0.6917  0.5986

 Free energy of the ion-electron system (eV)
  ---------------------------------------------------
  alpha Z        PSCENC =       295.26680685
  Ewald energy   TEWEN  =     -8697.85856144
  -Hartree energ DENC   =     -2292.91012867
  -exchange      EXHF   =         0.00000000
  -V(xc)+E(xc)   XCENC  =       537.86447670
  PAW double counting   =      9873.24204071   -10018.02933358
  entropy T*S    EENTRO =        -0.00000000
  eigenvalues    EBANDS =     -2658.81391492
  atomic energy  EATOM  =     12703.13999606
  Solvation  Ediel_sol  =         0.00000000
  ---------------------------------------------------
  free energy    TOTEN  =      -258.09861829 eV

  energy without entropy =     -258.09861829  energy(sigma->0) =     -258.09861829


--------------------------------------------------------------------------------------------------------




--------------------------------------- Iteration      1(  15)  ---------------------------------------


    POTLOK:  cpu time      0.0526: real time      0.0535
    SETDIJ:  cpu time      0.4089: real time      0.4105
    EDDIAG:  cpu time      0.2686: real time      0.2702
  RMM-DIIS:  cpu time      0.9325: real time      0.9413
    ORTHCH:  cpu time      0.0509: real time      0.0515
       DOS:  cpu time      0.0004: real time      0.0004
    CHARGE:  cpu time      0.1150: real time      0.1333
    MIXING:  cpu time      0.0015: real time      0.0016
    --------------------------------------------
      LOOP:  cpu time      1.8304: real time      1.8622

 eigenvalue-minimisations  :  2252
 total energy-change (2. order) : 0.3706498E-01  (-0.3799776E-01)
 number of electron     239.9999999 magnetization      -0.2435263
 augmentation part        1.8309929 magnetization      -0.2167696

 Broyden mixing:
  rms(total) = 0.66744E-01    rms(broyden)= 0.66742E-01
  rms(prec ) = 0.79464E-01
  weight for this iteration     100.00

 eigenvalues of (default mixing * dielectric matrix)
  average eigenvalue GAMMA=   1.2717
  2.5416  1.5707  0.9536  0.6865  0.6060

 Free energy of the ion-electron system (eV)
  ---------------------------------------------------
  alpha Z        PSCENC =       295.26680685
  Ewald energy   TEWEN  =     -8697.85856144
  -Hartree energ DENC   =     -2287.44618809
  -exchange      EXHF   =         0.00000000
  -V(xc)+E(xc)   XCENC  =       537.43315195
  PAW double counting   =      9837.00836358    -9981.56426944
  entropy T*S    EENTRO =        -0.00000000
  eigenvalues    EBANDS =     -2664.04085278
  atomic energy  EATOM  =     12703.13999606
  Solvation  Ediel_sol  =         0.00000000
  ---------------------------------------------------
  free energy    TOTEN  =      -258.06155331 eV

  energy without entropy =     -258.06155331  energy(sigma->0) =     -258.06155331


--------------------------------------------------------------------------------------------------------




--------------------------------------- Iteration      1(  16)  ---------------------------------------


    POTLOK:  cpu time      0.0544: real time      0.0554
    SETDIJ:  cpu time      0.4098: real time      0.4111
    EDDIAG:  cpu time      0.2699: real time      0.2716
  RMM-DIIS:  cpu time      0.9673: real time      0.9758
    ORTHCH:  cpu time      0.0498: real time      0.0500
       DOS:  cpu time      0.0004: real time      0.0004
    CHARGE:  cpu time      0.1185: real time      0.1345
    MIXING:  cpu time      0.0012: real time      0.0012
    --------------------------------------------
      LOOP:  cpu time      1.8713: real time      1.9001

 eigenvalue-minimisations  :  2317
 total energy-change (2. order) :-0.2184506E-01  (-0.1194449E-01)
 number of electron     239.9999999 magnetization      -0.1246957
 augmentation part        1.8073015 magnetization      -0.1103918

 Broyden mixing:
  rms(total) = 0.31750E-01    rms(broyden)= 0.31749E-01
  rms(prec ) = 0.39275E-01
  weight for this iteration     100.00

 eigenvalues of (default mixing * dielectric matrix)
  average eigenvalue GAMMA=   1.2410
  2.4512  1.8977  1.0410  0.6225  0.7035  0.7300

 Free energy of the ion-electron system (eV)
  ---------------------------------------------------
  alpha Z        PSCENC =       295.26680685
  Ewald energy   TEWEN  =     -8697.85856144
  -Hartree energ DENC   =     -2286.93730692
  -exchange      EXHF   =         0.00000000
  -V(xc)+E(xc)   XCENC  =       537.35487835
  PAW double counting   =      9825.73750001    -9970.05596128
  entropy T*S    EENTRO =        -0.00000000
  eigenvalues    EBANDS =     -2664.73074999
  atomic energy  EATOM  =     12703.13999606
  Solvation  Ediel_sol  =         0.00000000
[...]
  0.003  -0.002  -0.000  -0.001   0.004   0.000  -0.000   0.000   0.000  -0.000  -0.000   0.000   0.000   0.000
 -0.001   0.000   0.000  -0.000   0.000   0.007  -0.000   0.000   0.000   0.000  -0.000   0.000   0.000  -0.000
 -0.006   0.006   0.000   0.005  -0.006   0.005   0.000  -0.000   0.000   0.000  -0.000  -0.000  -0.000  -0.000
 -0.019   0.019   0.000  -0.002  -0.002  -0.006  -0.000  -0.000  -0.000  -0.000   0.000   0.000  -0.000  -0.000
 -0.010   0.010   0.000  -0.004   0.002   0.005  -0.000   0.000   0.000  -0.000   0.000   0.000   0.000  -0.000
  0.002  -0.002  -0.000  -0.006   0.007   0.003  -0.000   0.000   0.000  -0.000  -0.000   0.000   0.000  -0.000
  0.029  -0.029  -0.000   0.001   0.003  -0.008   0.000   0.000  -0.000  -0.000  -0.000  -0.000  -0.000   0.000
 total augmentation occupancy for first ion, spin component:           2
  0.000  -0.000  -0.000  -0.000  -0.000   0.000  -0.000  -0.000  -0.000  -0.000  -0.000   0.000  -0.000  -0.000
 -0.000   0.000   0.000   0.000   0.000  -0.000   0.000   0.000   0.000   0.000   0.000  -0.000   0.000   0.000
 -0.000   0.000   0.000   0.000   0.000  -0.000   0.000   0.000  -0.000   0.000  -0.000  -0.000  -0.000   0.000
 -0.000   0.000   0.000  -0.000  -0.000   0.000  -0.000  -0.000   0.000   0.000   0.000   0.000  -0.000  -0.000
 -0.000   0.000   0.000  -0.000   0.000   0.000  -0.000  -0.000  -0.000  -0.000   0.000   0.000   0.000  -0.000
  0.000  -0.000  -0.000   0.000   0.000   0.000  -0.000  -0.000  -0.000   0.000  -0.000  -0.000  -0.000   0.000
 -0.000   0.000   0.000  -0.000  -0.000  -0.000  -0.000  -0.000  -0.000  -0.000   0.000  -0.000  -0.000  -0.000
 -0.000   0.000   0.000  -0.000  -0.000  -0.000  -0.000  -0.000  -0.000  -0.000   0.000  -0.000  -0.000  -0.000
 -0.000   0.000  -0.000   0.000  -0.000  -0.000  -0.000  -0.000  -0.000  -0.000   0.000  -0.000  -0.000   0.000
 -0.000   0.000   0.000   0.000  -0.000   0.000  -0.000  -0.000  -0.000   0.000  -0.000   0.000  -0.000   0.000
 -0.000   0.000  -0.000   0.000   0.000  -0.000   0.000   0.000   0.000  -0.000  -0.000  -0.000   0.000   0.000
  0.000  -0.000  -0.000   0.000   0.000  -0.000  -0.000  -0.000  -0.000   0.000  -0.000  -0.000  -0.000   0.000
 -0.000   0.000  -0.000  -0.000   0.000  -0.000  -0.000  -0.000  -0.000  -0.000   0.000  -0.000   0.000  -0.000
 -0.000   0.000   0.000  -0.000  -0.000   0.000  -0.000  -0.000   0.000   0.000   0.000   0.000  -0.000  -0.000


------------------------ aborting loop because EDIFF is reached ----------------------------------------


    CHARGE:  cpu time      0.1041: real time      0.1479
    FORLOC:  cpu time      0.0042: real time      0.0042
    FORNL :  cpu time      0.3056: real time      0.3076
    STRESS:  cpu time      0.9108: real time      0.9166
    FORCOR:  cpu time      0.0501: real time      0.0505
    FORHAR:  cpu time      0.0085: real time      0.0085
    MIXING:  cpu time      0.0007: real time      0.0007
    OFIELD:  cpu time      0.0000: real time      0.0000

 ---------------------------------------------------------------------------------------------

         DFTD3 V3.0 Rev 1        
 Edisp (eV)  -13.28247

 E6    (eV) :    -8.1895
 E8    (eV) :    -5.0930
 % E8        : 38.34
    FORVDW:  cpu time      0.2923: real time      0.2941

  FORCE on cell =-STRESS in cart. coord.  units (eV):
  Direction    XX          YY          ZZ          XY          YZ          ZX
  --------------------------------------------------------------------------------------
  Alpha Z   295.26681   295.26681   295.26681
  Ewald   -2847.37171 -2925.26837 -2925.26837   -15.45521   -40.13973   -15.45521
  Hartree   789.68854   750.10319   750.10319    -2.64162   -21.56919    -2.64162
  E(xc)    -947.43527  -947.65730  -947.65730    -0.01783    -0.01043    -0.01783
  Local   -1640.34121 -1528.59517 -1528.59517    14.74101    60.20644    14.74101
  n-local  1481.15575  1481.25936  1481.25619    -1.05112    -1.19023    -0.06359
  augment  -356.49977  -357.01497  -357.01497    -0.16671     0.22103    -0.16674
  Kinetic  3238.68729  3246.48105  3246.51135     4.18239    -0.32233     5.63485
  Fock        0.00000     0.00000     0.00000     0.00000     0.00000     0.00000
  vdW       -14.14835   -14.08728   -14.08728    -0.01682    -0.00099    -0.01682
  -------------------------------------------------------------------------------------
  Total      -0.99793     0.50087     0.50087     0.79400    -2.80555     0.79400
  in kB      -1.73909     0.87286     0.87286     1.38371    -4.88923     1.38371
  external pressure =        0.00 kB  Pullay stress =        0.00 kB


 VOLUME and BASIS-vectors are now :
 -----------------------------------------------------------------------------
  energy-cutoff  :      520.00
  volume of cell :      919.36
      direct lattice vectors                 reciprocal lattice vectors
     9.723644545  0.000000000  0.000000000     0.102842097  0.000000000  0.000000000
     0.000000000  9.723644545  0.000000000     0.000000000  0.102842097  0.000000000
     0.000000000  0.000000000  9.723644545     0.000000000  0.000000000  0.102842097

  length of vectors
     9.723644545  9.723644545  9.723644545     0.102842097  0.102842097  0.102842097


 FORCES acting on ions
    electron-ion (+dipol)            ewald-force                    non-local-force                 convergence-correction
 -----------------------------------------------------------------------------------------------
   -.365E+01 -.315E+01 -.863E+01   0.315E+01 0.406E+01 0.944E+01   0.490E+00 -.919E+00 -.814E+00   -.193E-04 0.555E-04 -.352E-04
   -.365E+01 -.863E+01 -.315E+01   0.315E+01 0.944E+01 0.406E+01   0.490E+00 -.814E+00 -.919E+00   -.193E-04 -.352E-04 0.555E-04
   -.294E+01 0.272E+01 0.272E+01   0.308E+01 -.315E+01 -.315E+01   -.143E+00 0.436E+00 0.436E+00   -.430E-04 -.386E-05 -.386E-05
   -.111E+02 -.318E+00 -.318E+00   0.106E+02 0.100E+00 0.100E+00   0.471E+00 0.222E+00 0.222E+00   0.645E-04 0.830E-04 0.830E-04
   0.143E+02 0.102E+02 0.114E+01   -.134E+02 -.935E+01 -.121E+01   -.897E+00 -.851E+00 0.729E-01   -.102E-03 -.471E-04 0.206E-04
   -.964E+00 -.394E+01 0.607E+00   0.117E+01 0.427E+01 0.112E+01   -.209E+00 -.330E+00 -.172E+01   -.872E-04 -.632E-04 0.736E-04
   0.409E+01 0.192E+01 -.204E+01   -.512E+01 -.105E+01 0.258E+01   0.103E+01 -.871E+00 -.540E+00   0.384E-04 -.127E-04 -.376E-05
   0.611E+01 0.445E+01 -.110E+02   -.537E+01 -.405E+01 0.103E+02   -.744E+00 -.407E+00 0.718E+00   0.577E-04 -.108E-03 0.460E-04
   -.215E+01 0.410E+01 0.202E+02   0.375E+01 -.571E+01 -.191E+02   -.159E+01 0.161E+01 -.103E+01   0.498E-04 -.891E-04 -.986E-04
   -.555E+01 0.109E+02 0.764E+01   0.488E+01 -.109E+02 -.656E+01   0.671E+00 -.337E-01 -.107E+01   -.145E-04 0.133E-04 -.228E-04
   -.990E+01 0.888E+01 -.501E+01   0.840E+01 -.953E+01 0.408E+01   0.150E+01 0.646E+00 0.927E+00   0.512E-04 -.965E-04 0.636E-04
   0.413E+01 -.342E+01 -.431E+01   -.347E+01 0.443E+01 0.319E+01   -.674E+00 -.102E+01 0.112E+01   -.303E-05 0.563E-04 0.140E-04
   -.215E+01 0.202E+02 0.410E+01   0.375E+01 -.191E+02 -.571E+01   -.159E+01 -.103E+01 0.161E+01   0.498E-04 -.986E-04 -.891E-04
   -.555E+01 0.764E+01 0.109E+02   0.488E+01 -.656E+01 -.109E+02   0.671E+00 -.107E+01 -.337E-01   -.145E-04 -.228E-04 0.133E-04
   0.413E+01 -.431E+01 -.342E+01   -.347E+01 0.319E+01 0.443E+01   -.674E+00 0.112E+01 -.102E+01   -.303E-05 0.140E-04 0.563E-04
   -.990E+01 -.501E+01 0.888E+01   0.840E+01 0.408E+01 -.953E+01   0.150E+01 0.927E+00 0.646E+00   0.512E-04 0.636E-04 -.965E-04
   0.143E+02 0.114E+01 0.102E+02   -.134E+02 -.121E+01 -.935E+01   -.897E+00 0.729E-01 -.851E+00   -.102E-03 0.206E-04 -.471E-04
   -.964E+00 0.607E+00 -.394E+01   0.117E+01 0.112E+01 0.427E+01   -.209E+00 -.172E+01 -.330E+00   -.872E-04 0.736E-04 -.632E-04
   0.611E+01 -.110E+02 0.445E+01   -.537E+01 0.103E+02 -.405E+01   -.744E+00 0.718E+00 -.407E+00   0.577E-04 0.460E-04 -.108E-03
   0.409E+01 -.204E+01 0.192E+01   -.512E+01 0.258E+01 -.105E+01   0.103E+01 -.540E+00 -.871E+00   0.384E-04 -.376E-05 -.127E-04
   -.718E+01 -.613E+00 -.613E+00   0.701E+01 -.236E+00 -.236E+00   0.160E+00 0.852E+00 0.852E+00   0.317E-04 0.511E-04 0.511E-04
   0.746E+01 0.210E+01 0.210E+01   -.934E+01 -.305E+01 -.305E+01   0.188E+01 0.950E+00 0.950E+00   -.952E-04 -.440E-04 -.440E-04
   0.216E+00 -.103E+02 -.313E+01   0.166E+00 0.921E+01 0.373E+01   -.380E+00 0.111E+01 -.591E+00   0.468E-04 0.122E-03 0.226E-04
   0.216E+00 -.313E+01 -.103E+02   0.166E+00 0.373E+01 0.921E+01   -.380E+00 -.591E+00 0.111E+01   0.468E-04 0.226E-04 0.122E-03
   -.361E+01 -.736E+01 0.131E+02   0.355E+01 0.830E+01 -.124E+02   0.607E-01 -.937E+00 -.705E+00   0.369E-05 0.324E-04 -.156E-03
   -.361E+01 0.131E+02 -.736E+01   0.355E+01 -.124E+02 0.830E+01   0.607E-01 -.705E+00 -.937E+00   0.369E-05 -.156E-03 0.324E-04
   0.159E+02 -.150E+02 -.150E+02   -.161E+02 0.154E+02 0.154E+02   0.221E+00 -.335E+00 -.335E+00   -.888E-04 0.365E-04 0.365E-04
   -.324E+01 -.681E+01 -.681E+01   0.357E+01 0.684E+01 0.684E+01   -.332E+00 -.423E-01 -.423E-01   0.864E-04 0.304E-04 0.304E-04
   -.564E+02 0.360E+02 -.496E+02   0.598E+02 -.391E+02 0.524E+02   -.340E+01 0.314E+01 -.275E+01   0.962E-04 0.539E-04 0.977E-04
   -.564E+02 -.496E+02 0.360E+02   0.598E+02 0.524E+02 -.391E+02   -.340E+01 -.275E+01 0.314E+01   0.962E-04 0.977E-04 0.539E-04
   0.489E+02 0.537E+02 0.537E+02   -.512E+02 -.567E+02 -.567E+02   0.233E+01 0.301E+01 0.301E+01   0.342E-05 -.873E-04 -.873E-04
   0.543E+02 -.277E+02 -.277E+02   -.581E+02 0.300E+02 0.300E+02   0.374E+01 -.227E+01 -.227E+01   0.154E-04 0.165E-04 0.165E-04
   0.203E+02 -.601E+02 -.601E+02   -.210E+02 0.641E+02 0.641E+02   0.722E+00 -.405E+01 -.405E+01   -.837E-04 0.427E-04 0.427E-04
   0.634E+02 0.212E+02 0.212E+02   -.675E+02 -.239E+02 -.239E+02   0.406E+01 0.264E+01 0.264E+01   0.231E-04 0.131E-03 0.131E-03
   -.410E+02 -.595E+02 0.425E+02   0.441E+02 0.615E+02 -.457E+02   -.315E+01 -.199E+01 0.326E+01   -.140E-03 0.185E-03 0.113E-03
   -.410E+02 0.425E+02 -.595E+02   0.441E+02 -.457E+02 0.615E+02   -.315E+01 0.326E+01 -.199E+01   -.140E-03 0.113E-03 0.185E-03
   -.267E+02 -.200E+02 0.579E+02   0.293E+02 0.222E+02 -.623E+02   -.255E+01 -.218E+01 0.435E+01   0.116E-03 -.107E-03 -.110E-03
   -.392E+02 0.563E+02 -.357E+02   0.420E+02 -.592E+02 0.390E+02   -.283E+01 0.294E+01 -.325E+01   -.156E-04 -.197E-03 -.111E-03
   0.482E+02 -.289E+02 -.685E+02   -.518E+02 0.310E+02 0.718E+02   0.358E+01 -.219E+01 -.328E+01   0.887E-05 -.625E-04 0.110E-03
   0.340E+02 0.528E+02 0.324E+02   -.370E+02 -.559E+02 -.354E+02   0.297E+01 0.306E+01 0.299E+01   -.805E-04 -.123E-03 0.883E-04
   -.392E+02 -.357E+02 0.563E+02   0.420E+02 0.390E+02 -.592E+02   -.283E+01 -.325E+01 0.294E+01   -.156E-04 -.111E-03 -.197E-03
   -.267E+02 0.579E+02 -.200E+02   0.293E+02 -.623E+02 0.222E+02   -.255E+01 0.435E+01 -.218E+01   0.116E-03 -.110E-03 -.107E-03
   0.482E+02 -.685E+02 -.289E+02   -.518E+02 0.718E+02 0.310E+02   0.358E+01 -.328E+01 -.219E+01   0.887E-05 0.110E-03 -.625E-04
   0.340E+02 0.324E+02 0.528E+02   -.370E+02 -.354E+02 -.559E+02   0.297E+01 0.299E+01 0.306E+01   -.805E-04 0.883E-04 -.123E-03
   0.126E+02 -.119E+02 -.613E+01   -.130E+02 0.122E+02 0.596E+01   0.376E+00 -.265E+00 0.177E+00   0.237E-05 0.522E-04 0.181E-03
   0.126E+02 -.613E+01 -.119E+02   -.130E+02 0.596E+01 0.122E+02   0.376E+00 0.177E+00 -.265E+00   0.237E-05 0.181E-03 0.522E-04
   -.195E+02 -.572E+01 -.572E+01   0.198E+02 0.619E+01 0.619E+01   -.392E+00 -.481E+00 -.481E+00   0.190E-03 -.436E-04 -.436E-04
   0.125E+01 0.115E+02 0.115E+02   -.118E+01 -.116E+02 -.116E+02   -.658E-01 0.166E+00 0.166E+00   -.876E-04 -.146E-03 -.146E-03
   -.448E+01 0.489E+02 0.791E+01   0.433E+01 -.496E+02 -.817E+01   0.154E+00 0.666E+00 0.258E+00   0.828E-04 -.502E-03 -.146E-03
   -.448E+01 0.791E+01 0.489E+02   0.433E+01 -.817E+01 -.496E+02   0.154E+00 0.258E+00 0.666E+00   0.828E-04 -.146E-03 -.502E-03
   0.163E+01 -.791E+01 -.791E+01   -.134E+01 0.812E+01 0.812E+01   -.291E+00 -.221E+00 -.221E+00   -.200E-03 0.132E-03 0.132E-03
   -.299E+02 -.418E+02 -.418E+02   0.307E+02 0.424E+02 0.424E+02   -.774E+00 -.647E+00 -.647E+00   0.331E-03 0.443E-03 0.443E-03
 -----------------------------------------------------------------------------------------------
   -.400E+00 0.471E+00 0.471E+00   -.142E-13 -.568E-13 -.995E-13   0.384E+00 -.473E+00 -.473E+00   0.331E-03 -.490E-04 -.490E-04
 
 
 POSITION                                       TOTAL-FORCE (eV/Angst)
 -----------------------------------------------------------------------------------
      9.52018      2.09938      2.09125        -0.000114     -0.000492     -0.000300
      9.52018      6.95307      6.96120        -0.000114     -0.000300     -0.000492
      0.30854      2.53791      7.39973        -0.000233     -0.000096     -0.000096
      2.71967      4.00433      8.86616         0.000539      0.000168      0.000168
      2.09890      0.91279      9.09064        -0.000003      0.000478      0.000570
      2.34331      7.25222      0.33032        -0.000867     -0.000075     -0.000009
      7.66104      1.95348      0.25663        -0.000220     -0.000495     -0.000124
      7.29143      7.17697      9.72025         0.000167     -0.000549      0.000100
      0.75343      9.05599      2.14916         0.000102     -0.000057      0.000006
      3.37014      9.69502      6.66005         0.000210      0.000144      0.000276
      8.01808      9.46418      7.95110         0.000415     -0.000282      0.000181
      6.66713      0.48731      3.17203        -0.000108      0.000094      0.000291
      0.75343      7.01099      4.19417         0.000102      0.000006     -0.000057
      3.37014      1.79823      4.83320         0.000210      0.000276      0.000144
      6.66713      8.03386      5.34913        -0.000108      0.000291      0.000094
      8.01808      3.08928      4.60236         0.000415      0.000181     -0.000282
      2.09890      4.22882      5.77461        -0.000003      0.000570      0.000478
      2.34331      5.19214      2.39040        -0.000867     -0.000009     -0.000075
      7.29143      4.85842      2.31515         0.000167      0.000100     -0.000549
      7.66104      5.11846      6.81530        -0.000220     -0.000124     -0.000495
      4.84418      2.95602      7.81784         0.000339      0.000333      0.000333
      4.38465      8.01282      3.15100         0.000500      0.000183      0.000183
      5.06541      3.08765      1.71344        -0.000171      0.000405      0.000292
      5.06541      6.57526      7.94948        -0.000171      0.000292      0.000405
      4.88989      4.98635      4.88478        -0.000068      0.000266      0.000003
      4.88989      0.02296      0.12453        -0.000068      0.000003      0.000266
      0.02716      4.88938      0.02756         0.000143     -0.000402     -0.000402
      0.02886      0.12379      4.98561        -0.000058     -0.000157     -0.000157
      1.20879      8.62083      6.12472        -0.000078     -0.000041      0.000071
      1.20879      1.26290      3.75901        -0.000078      0.000071     -0.000041
      8.56164      8.65365      3.79182         0.000164     -0.000167     -0.000167
      8.50094      1.27483      6.13665        -0.000383     -0.000187     -0.000187
      8.89383      6.19412      1.33229         0.000852      0.000042      0.000042
      8.41241      3.78770      8.64952        -0.000395     -0.000026     -0.000026
      1.27774      5.88316      8.44601         0.000107     -0.000597     -0.000549
      1.27774      3.58419      1.02133         0.000107     -0.000549     -0.000597
      6.07232      1.05817      8.51659        -0.000295     -0.000250     -0.000172
      6.04916      8.62541      1.38094         0.000400      0.000022      0.000013
      3.65137      1.22393      1.19241         0.000251     -0.000080      0.000592
      3.68686      8.52440      8.67174        -0.000526      0.000118      0.000467
      6.04916      6.24277      3.76359         0.000400      0.000013      0.000022
      6.07232      3.65476      5.91999        -0.000295     -0.000172     -0.000250
      3.65137      6.05423      6.08575         0.000251      0.000592     -0.000080
      3.68686      3.80992      3.66258        -0.000526      0.000467      0.000118
      7.28561      7.30314      7.45329         0.000060     -0.000221     -0.000039
      7.28561      2.59147      2.44132         0.000060     -0.000039     -0.000221
      2.29645      7.41068      2.54886         0.000251      0.000049      0.000049
      2.62236      2.30013      7.16196         0.000025      0.000278      0.000278
      9.60195      0.34694      0.11007        -0.000111      0.000048      0.000081
      9.60195      4.97189      5.20877        -0.000111      0.000081      0.000048
      4.93380      9.69649      4.83467         0.000198     -0.000049     -0.000049
      4.84019      4.70816      9.56998        -0.000240     -0.000155     -0.000155
 -----------------------------------------------------------------------------------
    total drift:                               -0.015674     -0.002305     -0.002288


--------------------------------------------------------------------------------------------------------



  FREE ENERGIE OF THE ION-ELECTRON SYSTEM (eV)
  ---------------------------------------------------
  free  energy   TOTEN  =      -271.37356558 eV

  energy  without entropy=     -271.37356558  energy(sigma->0) =     -271.37356558
 
 d Force = 0.6449566E-06[ 0.404E-06, 0.885E-06]  d Energy = 0.1240985E-05-0.596E-06
 d Force = 0.6567687E-02[ 0.657E-02, 0.657E-02]  d Ewald  = 0.6567687E-02 0.291E-10


--------------------------------------------------------------------------------------------------------


    POTLOK:  cpu time      0.4633: real time      0.4650


--------------------------------------------------------------------------------------------------------


 stress matrix after NEB project (eV)
     -0.99793      0.79400      0.79400
      0.79400      0.50087     -2.80555
      0.79400     -2.80555      0.50087
  FORCES: max atom, RMS     0.000870    0.000509
  FORCE total and by dimension    0.003673    0.000867
  Stress total and by dimension    4.445397    2.805547
 Steepest descent step on ions:
 trial-energy change:   -0.000001  1 .order   -0.000001   -0.000001   -0.000000
  (g-gl).g = 0.885E-06      g.g   = 0.885E-06  gl.gl    = 0.000E+00
 g(Force)  = 0.885E-06   g(Stress)= 0.000E+00 ortho     = 0.000E+00
 gamma     =   0.00000
 trial     =   1.00000
 opt step  =   1.84094  (harmonic =   1.84094) maximal distance =0.00005458
 next E    =  -271.373565   (d E  =  -0.00000)


--------------------------------------------------------------------------------------------------------


  
 reached required accuracy - stopping structural energy minimisation
     LOOP+:  cpu time      6.2327: real time      6.3658
    4ORBIT:  cpu time      0.0000: real time      0.0000

 total amount of memory used by VASP MPI-rank0    46958. kBytes
=======================================================================

   base      :      30000. kBytes
   nonlr-proj:       6442. kBytes
   fftplans  :       1747. kBytes
   grid      :       5278. kBytes
   one-center:         62. kBytes
   wavefun   :       3429. kBytes
 
  
  
 General timing and accounting informations for this job:
 ========================================================
  
                  Total CPU time used (sec):       61.084
                            User time (sec):       59.997
                          System time (sec):        1.086
                         Elapsed time (sec):       65.334
  
                   Maximum memory used (kb):      386512.
                   Average memory used (kb):          N/A
  
                          Minor page faults:        59732
                          Major page faults:          129
                 Voluntary context switches:         8817
