<?xml version="1.0" encoding="ISO-8859-1"?>
<modeling>
 <generator>
  <i name="program" type="string">vasp </i>
  <i name="version" type="string">6.4.1  </i>
  <i name="subversion" type="string">05Apr23 (build Jun 07 2023 15:38:11) complex                          parallel </i>
  <i name="platform" type="string">LinuxIFC </i>
  <i name="date" type="string">2023 10 16 </i>
  <i name="time" type="string">22:51:34 </i>
 </generator>
 <incar>
  <i type="string" name="PREC">Accu</i>
  <i type="string" name="ALGO">F</i>
  <i type="logical" name="LDIAG"> T  </i>
  <i type="int" name="ISPIN">     2</i>
  <i type="int" name="NELM">   100</i>
  <i type="int" name="NELMDL">   -10</i>
  <i type="int" name="IBRION">     2</i>
  <i name="EDIFF">      0.00000100</i>
  <i name="EDIFFG">     -0.00100000</i>
  <i type="int" name="NSW">  1000</i>
  <i type="int" name="ISIF">     2</i>
  <i name="ENCUT">    520.00000000</i>
  <i name="POTIM">      0.20000000</i>
  <i type="string" name="LREAL">Auto</i>
  <i type="logical" name="LPLANE"> T  </i>
  <i type="int" name="ISMEAR">     0</i>
  <i name="SIGMA">      0.03000000</i>
  <i type="int" name="LMAXMIX">     4</i>
  <i type="logical" name="LWAVE"> F  </i>
  <i type="logical" name="LCHARG"> F  </i>
  <i type="logical" name="LASPH"> T  </i>
  <i type="string" name="GGA">PE</i>
  <i type="int" name="IVDW">    12</i>
 </incar>
 <primitive_cell>
  <structure name="primitive_cell" >
   <crystal>
    <varray name="basis" >
     <v>       9.72364455       0.00000000       0.00000000 </v>
     <v>       0.00000000       9.72364455       0.00000000 </v>
     <v>       0.00000000       0.00000000       9.72364455 </v>
    </varray>
    <i name="volume">    919.36342785 </i>
    <varray name="rec_basis" >
     <v>       0.10284210       0.00000000       0.00000000 </v>
     <v>       0.00000000       0.10284210       0.00000000 </v>
     <v>       0.00000000       0.00000000       0.10284210 </v>
    </varray>
   </crystal>
   <varray name="positions" >
    <v>       0.97907562       0.21590625       0.21506983 </v>
    <v>       0.97907562       0.71506983       0.71590625 </v>
    <v>       0.03173161       0.26100450       0.76100450 </v>
    <v>       0.27969483       0.41181348       0.91181348 </v>
    <v>       0.21585518       0.09387168       0.93489850 </v>
    <v>       0.24099359       0.74583407       0.03397039 </v>
    <v>       0.78787780       0.20090173       0.02639307 </v>
    <v>       0.74986580       0.73809645       0.99965026 </v>
    <v>       0.07748441       0.93133734       0.22102453 </v>
    <v>       0.34659159       0.99705597       0.68493237 </v>
    <v>       0.82459532       0.97331724       0.81770695 </v>
    <v>       0.68566161       0.05011540       0.32621768 </v>
    <v>       0.07748441       0.72102453       0.43133734 </v>
    <v>       0.34659159       0.18493237       0.49705597 </v>
    <v>       0.68566161       0.82621768       0.55011540 </v>
    <v>       0.82459532       0.31770695       0.47331724 </v>
    <v>       0.21585518       0.43489850       0.59387168 </v>
    <v>       0.24099359       0.53397039       0.24583407 </v>
    <v>       0.74986580       0.49965026       0.23809645 </v>
    <v>       0.78787780       0.52639307       0.70090173 </v>
    <v>       0.49818509       0.30400185       0.80400185 </v>
    <v>       0.45092503       0.82405511       0.32405511 </v>
    <v>       0.52093793       0.31753940       0.17621288 </v>
    <v>       0.52093793       0.67621288       0.81753940 </v>
    <v>       0.50288648       0.51280668       0.50236096 </v>
    <v>       0.50288648       0.00236096       0.01280668 </v>
    <v>       0.00279325       0.50283447       0.00283447 </v>
    <v>       0.00296837       0.01273114       0.51273114 </v>
    <v>       0.12431482       0.88658394       0.62987896 </v>
    <v>       0.12431482       0.12987896       0.38658394 </v>
    <v>       0.88049699       0.88995960       0.38995960 </v>
    <v>       0.87425583       0.13110687       0.63110687 </v>
    <v>       0.91465686       0.63701595       0.13701595 </v>
    <v>       0.86515168       0.38953495       0.88953495 </v>
    <v>       0.13140557       0.60503796       0.86860691 </v>
    <v>       0.13140557       0.36860691       0.10503796 </v>
    <v>       0.62449091       0.10882545       0.87586448 </v>
    <v>       0.62210737       0.88705520       0.14201929 </v>
    <v>       0.37551321       0.12587192       0.12262766 </v>
    <v>       0.37916576       0.87666686       0.89181832 </v>
    <v>       0.62210737       0.64201929       0.38705520 </v>
    <v>       0.62449091       0.37586448       0.60882545 </v>
    <v>       0.37551321       0.62262766       0.62587192 </v>
    <v>       0.37916576       0.39181832       0.37666686 </v>
    <v>       0.74926760       0.75107111       0.76651227 </v>
    <v>       0.74926760       0.26651227       0.25107111 </v>
    <v>       0.23616997       0.76212988       0.26212988 </v>
    <v>       0.26968905       0.23655006       0.73655006 </v>
    <v>       0.98748521       0.03568334       0.01132046 </v>
    <v>       0.98748521       0.51132046       0.53568334 </v>
    <v>       0.50740127       0.99720643       0.49720643 </v>
    <v>       0.49777265       0.48419490       0.98419490 </v>
   </varray>
  </structure>
  <varray name="primitive_index" >
   <v type="int" >        1 </v>
   <v type="int" >        2 </v>
   <v type="int" >        3 </v>
   <v type="int" >        4 </v>
   <v type="int" >        5 </v>
   <v type="int" >        6 </v>
   <v type="int" >        7 </v>
   <v type="int" >        8 </v>
   <v type="int" >        9 </v>
   <v type="int" >       10 </v>
   <v type="int" >       11 </v>
   <v type="int" >       12 </v>
   <v type="int" >       13 </v>
   <v type="int" >       14 </v>
   <v type="int" >       15 </v>
   <v type="int" >       16 </v>
   <v type="int" >       17 </v>
   <v type="int" >       18 </v>
   <v type="int" >       19 </v>
   <v type="int" >       20 </v>
   <v type="int" >       21 </v>
   <v type="int" >       22 </v>
   <v type="int" >       23 </v>
   <v type="int" >       24 </v>
   <v type="int" >       25 </v>
   <v type="int" >       26 </v>
   <v type="int" >       27 </v>
   <v type="int" >       28 </v>
   <v type="int" >       29 </v>
   <v type="int" >       30 </v>
   <v type="int" >       31 </v>
   <v type="int" >       32 </v>
   <v type="int" >       33 </v>
   <v type="int" >       34 </v>
   <v type="int" >       35 </v>
   <v type="int" >       36 </v>
   <v type="int" >       37 </v>
   <v type="int" >       38 </v>
   <v type="int" >       39 </v>
   <v type="int" >       40 </v>
   <v type="int" >       41 </v>
   <v type="int" >       42 </v>
   <v type="int" >       43 </v>
   <v type="int" >       44 </v>
   <v type="int" >       45 </v>
   <v type="int" >       46 </v>
   <v type="int" >       47 </v>
   <v type="int" >       48 </v>
   <v type="int" >       49 </v>
   <v type="int" >       50 </v>
   <v type="int" >       51 </v>
   <v type="int" >       52 </v>
  </varray>
 </primitive_cell>
 <kpoints>
  <generation param="Monkhorst-Pack">
   <v type="int" name="divisions">       2        2        2 </v>
   <v name="usershift">      0.00000000       0.00000000       0.00000000 </v>
   <v name="genvec1">      0.50000000       0.00000000       0.00000000 </v>
   <v name="genvec2">      0.00000000       0.50000000       0.00000000 </v>
   <v name="genvec3">      0.00000000       0.00000000       0.50000000 </v>
   <v name="shift">      0.50000000       0.50000000       0.50000000 </v>
  </generation>
  <varray name="kpointlist" >
   <v>       0.25000000       0.25000000       0.25000000 </v>
   <v>      -0.25000000       0.25000000       0.25000000 </v>
   <v>      -0.25000000      -0.25000000       0.25000000 </v>
  </varray>
  <varray name="weights" >
   <v>       0.25000000 </v>
   <v>       0.25000000 </v>
   <v>       0.50000000 </v>
  </varray>
 </kpoints>
 <parameters>
  <separator name="general" >
   <i type="string" name="SYSTEM">unknown system</i>
   <i type="logical" name="LCOMPAT"> F  </i>
  </separator>
  <separator name="electronic" >
   <i type="string" name="PREC">accu</i>
   <i name="ENMAX">    520.00000000</i>
   <i name="ENAUG">   1041.69900000</i>
   <i name="EDIFF">      0.00000100</i>
   <i type="int" name="IALGO">    68</i>
   <i type="int" name="IWAVPR">    11</i>
   <i type="int" name="NBANDS">   176</i>
   <i type="int" name="NBANDSLOW">    -1</i>
   <i type="int" name="NBANDSHIGH">    -1</i>
   <i name="NELECT">    240.00000000</i>
   <i type="int" name="TURBO">     0</i>
   <i type="int" name="IRESTART">     0</i>
   <i type="int" name="NREBOOT">     0</i>
   <i type="int" name="NMIN">     0</i>
   <i name="EREF">      0.00000000</i>
   <separator name="electronic smearing" >
    <i type="int" name="ISMEAR">     0</i>
    <i name="SIGMA">      0.03000000</i>
    <i name="KSPACING">      0.50000000</i>
    <i type="logical" name="KGAMMA"> T  </i>
    <i type="logical" name="KBLOWUP"> T  </i>
   </separator>
   <separator name="electronic projectors" >
    <i type="logical" name="LREAL"> T  </i>
    <v name="ROPT">     -0.00025000     -0.00025000     -0.00025000     -0.00025000</v>
    <i type="int" name="LMAXPAW">  -100</i>
    <i type="int" name="LMAXMIX">     4</i>
    <i type="logical" name="NLSPLINE"> F  </i>
   </separator>
   <separator name="electronic startup" >
    <i type="int" name="ISTART">     0</i>
    <i type="int" name="ICHARG">     2</i>
    <i type="int" name="INIWAV">     1</i>
   </separator>
   <separator name="electronic spin" >
    <i type="int" name="ISPIN">     2</i>
    <i type="logical" name="LNONCOLLINEAR"> F  </i>
    <v name="MAGMOM">      1.00000000      1.00000000      1.00000000      1.00000000      1.00000000      1.00000000      1.00000000      1.00000000      1.00000000      1.00000000      1.00000000      1.00000000      1.00000000      1.00000000      1.00000000      1.00000000      1.00000000      1.00000000      1.00000000      1.00000000
      1.00000000      1.00000000      1.00000000      1.00000000      1.00000000      1.00000000      1.00000000      1.00000000      1.00000000      1.00000000      1.00000000      1.00000000      1.00000000      1.00000000      1.00000000      1.00000000      1.00000000      1.00000000      1.00000000      1.00000000
      1.00000000      1.00000000      1.00000000      1.00000000      1.00000000      1.00000000      1.00000000      1.00000000      1.00000000      1.00000000      1.00000000      1.00000000</v>
    <i name="NUPDOWN">     -1.00000000</i>
    <i type="logical" name="LSORBIT"> F  </i>
    <v name="SAXIS">      0.00000000      0.00000000      1.00000000</v>
    <i type="logical" name="LSPIRAL"> F  </i>
    <v name="QSPIRAL">      0.00000000      0.00000000      0.00000000</v>
    <i type="logical" name="LZEROZ"> F  </i>
   </separator>
   <separator name="electronic exchange-correlation" >
    <i type="logical" name="LASPH"> T  </i>
    <i type="logical" name="LMETAGGA"> F  </i>
   </separator>
   <separator name="electronic convergence" >
    <i type="int" name="NELM">   100</i>
    <i type="int" name="NELMDL">   -10</i>
    <i type="int" name="NELMIN">     2</i>
    <i name="ENINI">    520.00000000</i>
    <separator name="electronic convergence detail" >
     <i type="logical" name="LDIAG"> T  </i>
     <i type="logical" name="LSUBROT"> F  </i>
     <i name="WEIMIN">      0.00100000</i>
     <i name="EBREAK">      0.00000000</i>
     <i name="DEPER">      0.30000000</i>
     <i type="int" name="NRMM">     4</i>
     <i name="TIME">      0.40000000</i>
    </separator>
   </separator>
   <separator name="electronic mixer" >
    <i name="AMIX">      0.40000000</i>
    <i name="BMIX">      1.00000000</i>
    <i name="AMIN">      0.10000000</i>
    <i name="AMIX_MAG">      1.60000000</i>
    <i name="BMIX_MAG">      1.00000000</i>
    <separator name="electronic mixer details" >
     <i type="int" name="IMIX">     4</i>
     <i type="logical" name="MIXFIRST"> F  </i>
     <i type="int" name="MAXMIX">   -45</i>
     <i name="WC">    100.00000000</i>
     <i type="int" name="INIMIX">     1</i>
     <i type="int" name="MIXPRE">     1</i>
     <i type="int" name="MREMOVE">     5</i>
    </separator>
   </separator>
   <separator name="electronic dipolcorrection" >
    <i type="logical" name="LDIPOL"> F  </i>
    <i type="logical" name="LMONO"> F  </i>
    <i type="int" name="IDIPOL">     0</i>
    <i name="EPSILON">      1.00000000</i>
    <v name="DIPOL">   -100.00000000   -100.00000000   -100.00000000</v>
    <i name="EFIELD">      0.00000000</i>
   </separator>
  </separator>
  <separator name="grids" >
   <i type="int" name="NGX">    72</i>
   <i type="int" name="NGY">    72</i>
   <i type="int" name="NGZ">    72</i>
   <i type="int" name="NGXF">   144</i>
   <i type="int" name="NGYF">   144</i>
   <i type="int" name="NGZF">   144</i>
   <i type="logical" name="ADDGRID"> F  </i>
  </separator>
  <separator name="ionic" >
   <i type="int" name="NSW">  1000</i>
   <i type="int" name="IBRION">     2</i>
   <i type="int" name="MDALGO">     0</i>
   <i type="int" name="ISIF">     2</i>
   <i name="PSTRESS">      0.00000000</i>
   <i name="EDIFFG">     -0.00100000</i>
   <i type="int" name="NFREE">     1</i>
   <i name="POTIM">      0.20000000</i>
   <i name="SMASS">     -3.00000000</i>
   <i name="SCALEE">      1.00000000</i>
  </separator>
  <separator name="ionic md" >
   <i name="TEBEG">      0.00010000</i>
   <i name="TEEND">      0.00010000</i>
   <i type="int" name="NBLOCK">     1</i>
   <i type="int" name="KBLOCK">  1000</i>
   <i type="int" name="NPACO">   256</i>
   <i name="APACO">     10.00000000</i>
  </separator>
  <separator name="symmetry" >
   <i type="int" name="ISYM">     2</i>
   <i name="SYMPREC">      0.00001000</i>
  </separator>
  <separator name="dos" >
   <i type="int" name="LORBIT">     0</i>
   <v name="RWIGS">     -1.00000000     -1.00000000     -1.00000000     -1.00000000</v>
   <i type="int" name="NEDOS">   301</i>
   <i name="EMIN">     10.00000000</i>
   <i name="EMAX">    -10.00000000</i>
   <i name="EFERMI">      0.00000000</i>
  </separator>
  <separator name="writing" >
   <i type="int" name="NWRITE">     2</i>
   <i type="logical" name="LWAVE"> F  </i>
   <i type="logical" name="LDOWNSAMPLE"> F  </i>
   <i type="logical" name="LCHARG"> F  </i>
   <i type="logical" name="LPARD"> F  </i>
   <i type="logical" name="LVTOT"> F  </i>
   <i type="logical" name="LVHAR"> F  </i>
   <i type="logical" name="LELF"> F  </i>
   <i type="logical" name="LOPTICS"> F  </i>
   <v name="STM">      0.00000000      0.00000000      0.00000000      0.00000000      0.00000000      0.00000000      0.00000000</v>
  </separator>
  <separator name="performance" >
   <i type="int" name="NPAR">     4</i>
   <i type="int" name="NSIM">     4</i>
   <i type="int" name="NBLK">    -1</i>
   <i type="logical" name="LPLANE"> T  </i>
   <i type="logical" name="LSCALAPACK"> T  </i>
   <i type="logical" name="LSCAAWARE"> F  </i>
   <i type="logical" name="LSCALU"> F  </i>
   <i type="logical" name="LASYNC"> F  </i>
   <i type="logical" name="LORBITALREAL"> F  </i>
  </separator>
  <separator name="miscellaneous" >
   <i type="int" name="IDIOT">     3</i>
   <i type="int" name="PHON_NSTRUCT">    -1</i>
   <i type="logical" name="LMUSIC"> F  </i>
   <v name="POMASS">      7.01000000     30.97400000     32.06600000     35.45300000</v>
   <v name="DARWINR">      0.00000000      0.00000000      0.00000000      0.00000000</v>
   <v name="DARWINV">      1.00000000      1.00000000      1.00000000      1.00000000</v>
   <i type="logical" name="LCORR"> T  </i>
  </separator>
  <i type="logical" name="GGA_COMPAT"> T  </i>
  <i type="logical" name="LBERRY"> F  </i>
  <i type="int" name="ICORELEVEL">     0</i>
  <i type="logical" name="LDAU"> F  </i>
  <i type="int" name="I_CONSTRAINED_M">     0</i>
  <separator name="electronic exchange-correlation" >
   <i type="string" name="GGA">PE</i>
   <i type="int" name="VOSKOWN">     0</i>
   <i type="logical" name="LHFCALC"> F  </i>
   <i type="string" name="PRECFOCK"></i>
   <i type="logical" name="LSYMGRAD"> F  </i>
   <i type="logical" name="LHFONE"> F  </i>
   <i type="logical" name="LRHFCALC"> F  </i>
   <i type="logical" name="LTHOMAS"> F  </i>
   <i type="logical" name="LMODELHF"> F  </i>
   <i type="logical" name="LFOCKACE"> F  </i>
   <i name="ENCUT4O">     -1.00000000</i>
   <i type="int" name="EXXOEP">     0</i>
   <i type="int" name="FOURORBIT">     0</i>
   <i name="AEXX">      0.00000000</i>
   <i name="HFALPHA">      0.00000000</i>
   <i name="MCALPHA">      0.00000000</i>
   <i name="ALDAX">      1.00000000</i>
   <i name="AGGAX">      1.00000000</i>
   <i name="ALDAC">      1.00000000</i>
   <i name="AGGAC">      1.00000000</i>
   <i type="int" name="NKREDX">     1</i>
   <i type="int" name="NKREDY">     1</i>
   <i type="int" name="NKREDZ">     1</i>
   <i type="logical" name="SHIFTRED"> F  </i>
   <i type="logical" name="ODDONLY"> F  </i>
   <i type="logical" name="EVENONLY"> F  </i>
   <i type="int" name="LMAXFOCK">     0</i>
   <i type="int" name="NMAXFOCKAE">     0</i>
   <i type="logical" name="LFOCKAEDFT"> F  </i>
   <i name="HFSCREEN">      0.00000000</i>
   <i name="HFSCREENC">      0.00000000</i>
   <i type="int" name="NBANDSGWLOW">     0</i>
  </separator>
  <separator name="vdW DFT" >
   <i type="logical" name="LUSE_VDW"> F  </i>
   <i type="int" name="IVDW_NL">     1</i>
   <i type="logical" name="LSPIN_VDW"> F  </i>
   <i name="Zab_VDW">     -0.84910000</i>
   <i name="PARAM1">      0.12340000</i>
   <i name="PARAM2">      1.00000000</i>
   <i name="PARAM3">      0.00000000</i>
  </separator>
  <separator name="model GW" >
   <i type="int" name="MODEL_GW">     0</i>
   <i name="MODEL_EPS0">     10.60803955</i>
   <i name="MODEL_ALPHA">      1.00000000</i>
  </separator>
  <separator name="linear response parameters" >
   <i type="logical" name="LEPSILON"> F  </i>
   <i type="logical" name="LRPA"> F  </i>
   <i type="logical" name="LNABLA"> F  </i>
   <i type="logical" name="LVEL"> F  </i>
   <i name="CSHIFT">      0.10000000</i>
   <i name="OMEGAMAX">     -1.00000000</i>
   <i name="DEG_THRESHOLD">      0.00200000</i>
   <i name="RTIME">     -0.10000000</i>
   <i name="WPLASMAI">      0.00000000</i>
   <v name="DFIELD">      0.00000000      0.00000000      0.00000000</v>
   <v name="WPLASMA">      0.00000000      0.00000000      0.00000000      0.00000000      0.00000000      0.00000000      0.00000000      0.00000000      0.00000000</v>
  </separator>
  <separator name="orbital magnetization" >
   <i type="logical" name="NUCIND"> F  </i>
   <v name="MAGPOS">      0.00000000      0.00000000      0.00000000</v>
   <i type="logical" name="LNICSALL"> T  </i>
   <i type="logical" name="ORBITALMAG"> F  </i>
   <i type="logical" name="LMAGBLOCH"> F  </i>
   <i type="logical" name="LCHIMAG"> F  </i>
   <i type="logical" name="LGAUGE"> T  </i>
   <i type="int" name="MAGATOM">     0</i>
   <v name="MAGDIPOL">      0.00000000      0.00000000      0.00000000</v>
   <v name="AVECCONST">      0.00000000      0.00000000      0.00000000</v>
  </separator>
  <separator name="response functions" >
   <i type="logical" name="LALL_IN_ONE"> F  </i>
   <i type="int" name="IALL_IN_ONE">    -1</i>
   <i type="int" name="NBANDS_WAVE">    -1</i>
   <i type="logical" name="LFINITE_TEMPERATURE"> F  </i>
   <i type="logical" name="LADDER"> F  </i>
   <i type="logical" name="LRPAFORCE"> F  </i>
   <i type="logical" name="LFXC"> F  </i>
   <i type="logical" name="LHARTREE"> T  </i>
   <i type="int" name="IBSE">     0</i>
   <v type="int" name="KPOINT">    -1     0     0     0</v>
   <i type="logical" name="LTCTC"> F  </i>
   <i type="logical" name="LTCTE"> F  </i>
   <i type="logical" name="LTETE"> F  </i>
   <i type="logical" name="LTRIPLET"> F  </i>
   <i type="logical" name="LFXCEPS"> F  </i>
   <i type="logical" name="LFXHEG"> F  </i>
   <i type="int" name="NATURALO">     2</i>
   <i type="logical" name="LHOLEGF"> F  </i>
   <i type="logical" name="L2ORDER"> F  </i>
   <i type="logical" name="LDMP1"> F  </i>
   <i type="logical" name="LMP2LT"> F  </i>
   <i type="logical" name="LSMP2LT"> F  </i>
   <i type="logical" name="LGWLF"> F  </i>
   <i name="ENCUTGW">     -1.60000002</i>
   <i name="ENCUTGWSOFT">     -1.60000002</i>
   <i name="ENCUTLF">     -1.00000000</i>
   <i type="logical" name="LESF_SPLINES"> F  </i>
   <i type="int" name="LMAXMP2">    -1</i>
   <i name="SCISSOR">      0.00000000</i>
   <i type="int" name="NOMEGA">     0</i>
   <i type="int" name="NOMEGAR">     0</i>
   <i type="int" name="NBANDSGW">    -1</i>
   <i type="int" name="NBANDSO">    -1</i>
   <i type="int" name="NBANDSV">    -1</i>
   <i type="int" name="NELMGW">     1</i>
   <i type="int" name="NELMHF">     1</i>
   <i type="int" name="DIM">     3</i>
   <i type="int" name="IESPILON">     4</i>
   <i type="int" name="ANTIRES">     0</i>
   <i name="OMEGAMAX">    -30.00000000</i>
   <i name="OMEGAMIN">    -30.00000000</i>
   <i name="OMEGATL">   -200.00000000</i>
   <i type="int" name="OMEGAGRID">     0</i>
   <i name="CSHIFT">     -0.10000000</i>
   <i type="logical" name="LSELFENERGY"> F  </i>
   <i type="logical" name="LSPECTRAL"> F  </i>
   <i type="logical" name="LSPECTRALGW"> F  </i>
   <i type="logical" name="LSINGLES"> F  </i>
   <i type="logical" name="LFERMIGW"> F  </i>
   <i type="logical" name="ODDONLYGW"> F  </i>
   <i type="logical" name="EVENONLYGW"> F  </i>
   <i type="int" name="NKREDLFX">     1</i>
   <i type="int" name="NKREDLFY">     1</i>
   <i type="int" name="NKREDLFZ">     1</i>
   <i type="int" name="MAXMEM">  2800</i>
   <i type="int" name="TELESCOPE">     0</i>
   <i type="int" name="NTAUPAR">    -1</i>
   <i type="int" name="NOMEGAPAR">    -1</i>
   <i name="DAMP_NEWTON">      0.80000001</i>
   <i name="LAMBDA">      1.00000000</i>
  </separator>
  <separator name="External order field" >
   <i name="OFIELD_KAPPA">      0.00000000</i>
   <v name="OFIELD_K">      0.00000000      0.00000000      0.00000000</v>
   <i name="OFIELD_Q6_NEAR">      0.00000000</i>
   <i name="OFIELD_Q6_FAR">      0.00000000</i>
   <i name="OFIELD_A">      0.00000000</i>
  </separator>
  <separator name="optional k-points parameters" >
   <i type="int" name="KPOINTS_OPT_MODE">     1</i>
   <i type="logical" name="LKPOINTS_OPT"> F  </i>
  </separator>
 </parameters>
 <atominfo>
  <atoms>      52 </atoms>
  <types>       4 </types>
  <array name="atoms" >
   <dimension dim="1">ion</dimension>
   <field type="string">element</field>
   <field type="int">atomtype</field>
   <set>
    <rc><c>Li</c><c>   1</c></rc>
    <rc><c>Li</c><c>   1</c></rc>
    <rc><c>Li</c><c>   1</c></rc>
    <rc><c>Li</c><c>   1</c></rc>
    <rc><c>Li</c><c>   1</c></rc>
    <rc><c>Li</c><c>   1</c></rc>
    <rc><c>Li</c><c>   1</c></rc>
    <rc><c>Li</c><c>   1</c></rc>
    <rc><c>Li</c><c>   1</c></rc>
    <rc><c>Li</c><c>   1</c></rc>
    <rc><c>Li</c><c>   1</c></rc>
    <rc><c>Li</c><c>   1</c></rc>
    <rc><c>Li</c><c>   1</c></rc>
    <rc><c>Li</c><c>   1</c></rc>
    <rc><c>Li</c><c>   1</c></rc>
    <rc><c>Li</c><c>   1</c></rc>
    <rc><c>Li</c><c>   1</c></rc>
    <rc><c>Li</c><c>   1</c></rc>
    <rc><c>Li</c><c>   1</c></rc>
    <rc><c>Li</c><c>   1</c></rc>
    <rc><c>Li</c><c>   1</c></rc>
    <rc><c>Li</c><c>   1</c></rc>
    <rc><c>Li</c><c>   1</c></rc>
    <rc><c>Li</c><c>   1</c></rc>
    <rc><c>P </c><c>   2</c></rc>
    <rc><c>P </c><c>   2</c></rc>
    <rc><c>P </c><c>   2</c></rc>
    <rc><c>P </c><c>   2</c></rc>
    <rc><c>S </c><c>   3</c></rc>
    <rc><c>S </c><c>   3</c></rc>
    <rc><c>S </c><c>   3</c></rc>
    <rc><c>S </c><c>   3</c></rc>
    <rc><c>S </c><c>   3</c></rc>
    <rc><c>S </c><c>   3</c></rc>
    <rc><c>S </c><c>   3</c></rc>
    <rc><c>S </c><c>   3</c></rc>
    <rc><c>S </c><c>   3</c></rc>
    <rc><c>S </c><c>   3</c></rc>
    <rc><c>S </c><c>   3</c></rc>
    <rc><c>S </c><c>   3</c></rc>
    <rc><c>S </c><c>   3</c></rc>
    <rc><c>S </c><c>   3</c></rc>
    <rc><c>S </c><c>   3</c></rc>
    <rc><c>S </c><c>   3</c></rc>
    <rc><c>S </c><c>   3</c></rc>
    <rc><c>S </c><c>   3</c></rc>
    <rc><c>S </c><c>   3</c></rc>
    <rc><c>S </c><c>   3</c></rc>
    <rc><c>Cl</c><c>   4</c></rc>
    <rc><c>Cl</c><c>   4</c></rc>
    <rc><c>Cl</c><c>   4</c></rc>
    <rc><c>Cl</c><c>   4</c></rc>
   </set>
  </array>
  <array name="atomtypes" >
   <dimension dim="1">type</dimension>
   <field type="int">atomspertype</field>
   <field type="string">element</field>
   <field>mass</field>
   <field>valence</field>
   <field type="string">pseudopotential</field>
   <set>
    <rc><c>  24</c><c>Li</c><c>      7.01000000</c><c>      3.00000000</c><c>  PAW_PBE Li_sv_GW 25Mar2010            </c></rc>
    <rc><c>   4</c><c>P </c><c>     30.97400000</c><c>      5.00000000</c><c>  PAW_PBE P_GW 19Mar2012                </c></rc>
    <rc><c>  20</c><c>S </c><c>     32.06600000</c><c>      6.00000000</c><c>  PAW_PBE S_GW 19Mar2012                </c></rc>
    <rc><c>   4</c><c>Cl</c><c>     35.45300000</c><c>      7.00000000</c><c>  PAW_PBE Cl_GW 19Mar2012               </c></rc>
   </set>
  </array>
 </atominfo>
 <structure name="initialpos" >
  <crystal>
   <varray name="basis" >
    <v>       9.72364455       0.00000000       0.00000000 </v>
    <v>       0.00000000       9.72364455       0.00000000 </v>
    <v>       0.00000000       0.00000000       9.72364455 </v>
   </varray>
   <i name="volume">    919.36342785 </i>
   <varray name="rec_basis" >
    <v>       0.10284210       0.00000000       0.00000000 </v>
    <v>       0.00000000       0.10284210       0.00000000 </v>
    <v>       0.00000000       0.00000000       0.10284210 </v>
   </varray>
  </crystal>
  <varray name="positions" >
   <v>       0.97907562       0.21590625       0.21506983 </v>
   <v>       0.97907562       0.71506983       0.71590625 </v>
   <v>       0.03173161       0.26100450       0.76100450 </v>
   <v>       0.27969483       0.41181348       0.91181348 </v>
   <v>       0.21585518       0.09387168       0.93489850 </v>
   <v>       0.24099359       0.74583407       0.03397039 </v>
   <v>       0.78787780       0.20090173       0.02639307 </v>
   <v>       0.74986580       0.73809645       0.99965026 </v>
   <v>       0.07748441       0.93133734       0.22102453 </v>
   <v>       0.34659159       0.99705597       0.68493237 </v>
   <v>       0.82459532       0.97331724       0.81770695 </v>
   <v>       0.68566161       0.05011540       0.32621768 </v>
   <v>       0.07748441       0.72102453       0.43133734 </v>
   <v>       0.34659159       0.18493237       0.49705597 </v>
   <v>       0.68566161       0.82621768       0.55011540 </v>
   <v>       0.82459532       0.31770695       0.47331724 </v>
   <v>       0.21585518       0.43489850       0.59387168 </v>
   <v>       0.24099359       0.53397039       0.24583407 </v>
   <v>       0.74986580       0.49965026       0.23809645 </v>
   <v>       0.78787780       0.52639307       0.70090173 </v>
   <v>       0.49818509       0.30400185       0.80400185 </v>
   <v>       0.45092503       0.82405511       0.32405511 </v>
   <v>       0.52093793       0.31753940       0.17621288 </v>
   <v>       0.52093793       0.67621288       0.81753940 </v>
   <v>       0.50288648       0.51280668       0.50236096 </v>
   <v>       0.50288648       0.00236096       0.01280668 </v>
   <v>       0.00279325       0.50283447       0.00283447 </v>
   <v>       0.00296837       0.01273114       0.51273114 </v>
   <v>       0.12431482       0.88658394       0.62987896 </v>
   <v>       0.12431482       0.12987896       0.38658394 </v>
   <v>       0.88049699       0.88995960       0.38995960 </v>
   <v>       0.87425583       0.13110687       0.63110687 </v>
   <v>       0.91465686       0.63701595       0.13701595 </v>
   <v>       0.86515168       0.38953495       0.88953495 </v>
   <v>       0.13140557       0.60503796       0.86860691 </v>
   <v>       0.13140557       0.36860691       0.10503796 </v>
   <v>       0.62449091       0.10882545       0.87586448 </v>
   <v>       0.62210737       0.88705520       0.14201929 </v>
   <v>       0.37551321       0.12587192       0.12262766 </v>
   <v>       0.37916576       0.87666686       0.89181832 </v>
   <v>       0.62210737       0.64201929       0.38705520 </v>
   <v>       0.62449091       0.37586448       0.60882545 </v>
   <v>       0.37551321       0.62262766       0.62587192 </v>
   <v>       0.37916576       0.39181832       0.37666686 </v>
   <v>       0.74926760       0.75107111       0.76651227 </v>
   <v>       0.74926760       0.26651227       0.25107111 </v>
   <v>       0.23616997       0.76212988       0.26212988 </v>
   <v>       0.26968905       0.23655006       0.73655006 </v>
   <v>       0.98748521       0.03568334       0.01132046 </v>
   <v>       0.98748521       0.51132046       0.53568334 </v>
   <v>       0.50740127       0.99720643       0.49720643 </v>
   <v>       0.49777265       0.48419490       0.98419490 </v>
  </varray>
 </structure>
 <calculation>
  <scstep>
   <time name="dav">    1.68    1.71</time>
   <time name="total">    2.15    2.20</time>
   <energy>
    <i name="alphaZ">    295.26680685 </i>
    <i name="ewald">  -8697.85856144 </i>
    <i name="hartreedc">  -2180.83139172 </i>
    <i name="XCdc">    533.40545191 </i>
    <i name="pawpsdc">   8141.38806575 </i>
    <i name="pawaedc">  -8271.61346273 </i>
    <i name="eentropy">     -0.00859973 </i>
    <i name="bandstr">   -936.14002902 </i>
    <i name="atom">  12703.13999606 </i>
    <i name="e_fr_energy">   1586.74827592 </i>
    <i name="e_wo_entrp">   1586.75687565 </i>
    <i name="e_0_energy">   1586.75257579 </i>
   </energy>
  </scstep>
  <scstep>
   <time name="dav">    2.00    2.02</time>
   <time name="total">    2.00    2.02</time>
   <energy>
    <i name="e_fr_energy">    -53.70058863 </i>
    <i name="e_wo_entrp">    -53.70058863 </i>
    <i name="e_0_energy">    -53.70058863 </i>
   </energy>
  </scstep>
  <scstep>
   <time name="dav">    1.95    1.98</time>
   <time name="total">    1.96    1.98</time>
   <energy>
    <i name="e_fr_energy">   -227.83190172 </i>
    <i name="e_wo_entrp">   -227.83190172 </i>
    <i name="e_0_energy">   -227.83190172 </i>
   </energy>
  </scstep>
  <scstep>
   <time name="dav">    2.35    2.42</time>
   <time name="total">    2.35    2.42</time>
   <energy>
    <i name="e_fr_energy">   -241.13036652 </i>
    <i name="e_wo_entrp">   -241.13036652 </i>
    <i name="e_0_energy">   -241.13036652 </i>
   </energy>
  </scstep>
  <scstep>
   <time name="dav">    2.22    2.28</time>
   <time name="total">    2.22    2.28</time>
   <energy>
    <i name="e_fr_energy">   -241.37421593 </i>
    <i name="e_wo_entrp">   -241.37421593 </i>
    <i name="e_0_energy">   -241.37421593 </i>
   </energy>
  </scstep>
  <scstep>
   <time name="dav">    2.31    2.33</time>
   <time name="total">    2.31    2.33</time>
   <energy>
    <i name="e_fr_energy">   -241.38543512 </i>
    <i name="e_wo_entrp">   -241.38543512 </i>
    <i name="e_0_energy">   -241.38543512 </i>
   </energy>
  </scstep>
  <scstep>
   <time name="dav">    2.26    2.28</time>
   <time name="total">    2.26    2.28</time>
   <energy>
    <i name="e_fr_energy">   -241.38581986 </i>
    <i name="e_wo_entrp">   -241.38581986 </i>
    <i name="e_0_energy">   -241.38581986 </i>
   </energy>
  </scstep>
  <scstep>
   <time name="dav">    2.28    2.30</time>
   <time name="total">    2.28    2.30</time>
   <energy>
    <i name="e_fr_energy">   -241.38584231 </i>
    <i name="e_wo_entrp">   -241.38584231 </i>
    <i name="e_0_energy">   -241.38584231 </i>
   </energy>
  </scstep>
  <scstep>
   <time name="dav">    2.24    2.26</time>
   <time name="total">    2.24    2.26</time>
   <energy>
    <i name="e_fr_energy">   -241.38584376 </i>
    <i name="e_wo_entrp">   -241.38584376 </i>
    <i name="e_0_energy">   -241.38584376 </i>
   </energy>
  </scstep>
  <scstep>
   <time name="dav">    1.51    1.53</time>
   <time name="total">    1.65    1.70</time>
   <energy>
    <i name="e_fr_energy">   -241.38584382 </i>
    <i name="e_wo_entrp">   -241.38584382 </i>
    <i name="e_0_energy">   -241.38584382 </i>
   </energy>
  </scstep>
  <scstep>
   <time name="diag">    0.28    0.29</time>
   <time name="diis">    1.12    1.22</time>
   <time name="orth">    0.05    0.36</time>
   <time name="total">    2.04    2.48</time>
   <energy>
    <i name="e_fr_energy">   -233.79300017 </i>
    <i name="e_wo_entrp">   -233.79300017 </i>
    <i name="e_0_energy">   -233.79300017 </i>
   </energy>
  </scstep>
  <scstep>
   <time name="diag">    0.48    0.49</time>
   <time name="diis">    0.96    0.98</time>
   <time name="orth">    0.05    0.05</time>
   <time name="total">    2.08    2.15</time>
   <energy>
    <i name="e_fr_energy">   -255.38403080 </i>
    <i name="e_wo_entrp">   -255.38403080 </i>
    <i name="e_0_energy">   -255.38403080 </i>
   </energy>
  </scstep>
  <scstep>
   <time name="diag">    0.27    0.27</time>
   <time name="diis">    0.89    0.90</time>
   <time name="orth">    0.05    0.05</time>
   <time name="total">    1.80    1.84</time>
   <energy>
    <i name="e_fr_energy">   -257.89736215 </i>
    <i name="e_wo_entrp">   -257.89736215 </i>
    <i name="e_0_energy">   -257.89736215 </i>
   </energy>
  </scstep>
  <scstep>
   <time name="diag">    0.27    0.27</time>
   <time name="diis">    1.15    1.16</time>
   <time name="orth">    0.05    0.05</time>
   <time name="total">    2.04    2.08</time>
   <energy>
    <i name="e_fr_energy">   -258.09861829 </i>
    <i name="e_wo_entrp">   -258.09861829 </i>
    <i name="e_0_energy">   -258.09861829 </i>
   </energy>
  </scstep>
  <scstep>
   <time name="diag">    0.27    0.27</time>
   <time name="diis">    0.93    0.94</time>
   <time name="orth">    0.05    0.05</time>
   <time name="total">    1.83    1.86</time>
   <energy>
    <i name="e_fr_energy">   -258.06155331 </i>
    <i name="e_wo_entrp">   -258.06155331 </i>
    <i name="e_0_energy">   -258.06155331 </i>
   </energy>
  </scstep>
  <scstep>
   <time name="diag">    0.27    0.27</time>
   <time name="diis">    0.97    0.98</time>
   <time name="orth">    0.05    0.05</time>
   <time name="total">    1.87    1.90</time>
   <energy>
    <i name="e_fr_energy">   -258.08339837 </i>
    <i name="e_wo_entrp">   -258.08339837 </i>
    <i name="e_0_energy">   -258.08339837 </i>
   </energy>
  </scstep>
  <scstep>
   <time name="diag">    0.27    0.27</time>
   <time name="diis">    1.09    1.10</time>
   <time name="orth">    0.05    0.05</time>
   <time name="total">    1.98    2.01</time>
   <energy>
    <i name="e_fr_energy">   -258.08912458 </i>
    <i name="e_wo_entrp">   -258.08912458 </i>
    <i name="e_0_energy">   -258.08912458 </i>
   </energy>
  </scstep>
  <scstep>
   <time name="diag">    0.27    0.27</time>
   <time name="diis">    1.03    1.04</time>
   <time name="orth">    0.05    0.05</time>
   <time name="total">    1.93    1.95</time>
   <energy>
    <i name="e_fr_energy">   -258.09043669 </i>
    <i name="e_wo_entrp">   -258.09043669 </i>
    <i name="e_0_energy">   -258.09043669 </i>
   </energy>
  </scstep>
  <scstep>
   <time name="diag">    0.27    0.27</time>
   <time name="diis">    1.20    1.22</time>
   <time name="orth">    0.05    0.05</time>
   <time name="total">    2.09    2.12</time>
   <energy>
    <i name="e_fr_energy">   -258.09096345 </i>
    <i name="e_wo_entrp">   -258.09096345 </i>
    <i name="e_0_energy">   -258.09096345 </i>
   </energy>
  </scstep>
  <scstep>
   <time name="diag">    0.27    0.27</time>
   <time name="diis">    1.19    1.20</time>
   <time name="orth">    0.05    0.05</time>
   <time name="total">    2.08    2.10</time>
   <energy>
    <i name="e_fr_energy">   -258.09106278 </i>
    <i name="e_wo_entrp">   -258.09106278 </i>
    <i name="e_0_energy">   -258.09106278 </i>
   </energy>
  </scstep>
  <scstep>
   <time name="diag">    0.27    0.27</time>
   <time name="diis">    1.01    1.02</time>
   <time name="orth">    0.05    0.05</time>
   <time name="total">    1.90    1.91</time>
   <energy>
    <i name="e_fr_energy">   -258.09108354 </i>
    <i name="e_wo_entrp">   -258.09108354 </i>
    <i name="e_0_energy">   -258.09108354 </i>
   </energy>
  </scstep>
  <scstep>
   <time name="diag">    0.27    0.27</time>
   <time name="diis">    1.17    1.18</time>
   <time name="orth">    0.05    0.05</time>
   <time name="total">    2.06    2.08</time>
   <energy>
    <i name="e_fr_energy">   -258.09109288 </i>
    <i name="e_wo_entrp">   -258.09109288 </i>
    <i name="e_0_energy">   -258.09109288 </i>
   </energy>
  </scstep>
  <scstep>
   <time name="diag">    0.27    0.27</time>
   <time name="diis">    1.03    1.04</time>
   <time name="orth">    0.05    0.05</time>
   <time name="total">    1.92    1.93</time>
   <energy>
    <i name="e_fr_energy">   -258.09109264 </i>
    <i name="e_wo_entrp">   -258.09109264 </i>
    <i name="e_0_energy">   -258.09109264 </i>
   </energy>
  </scstep>
  <scstep>
   <time name="diag">    0.27    0.27</time>
   <time name="diis">    0.78    0.79</time>
   <time name="orth">    0.05    0.05</time>
   <time name="total">    1.56    1.58</time>
   <energy>
    <i name="alphaZ">    295.26680685 </i>
    <i name="ewald">  -8697.85856144 </i>
    <i name="hartreedc">  -2289.89045035 </i>
    <i name="XCdc">    537.47332464 </i>
    <i name="pawpsdc">   9824.23262319 </i>
    <i name="pawaedc">  -9968.30690013 </i>
    <i name="eentropy">     -0.00000000 </i>
    <i name="bandstr">  -2662.14793054 </i>
    <i name="atom">  12703.13999606 </i>
    <i name="e_fr_energy">   -258.09109171 </i>
    <i name="e_wo_entrp">   -258.09109171 </i>
    <i name="e_0_energy">   -258.09109171 </i>
   </energy>
  </scstep>
  <structure>
   <crystal>
    <varray name="basis" >
     <v>       9.72364455       0.00000000       0.00000000 </v>
     <v>       0.00000000       9.72364455       0.00000000 </v>
     <v>       0.00000000       0.00000000       9.72364455 </v>
    </varray>
    <i name="volume">    919.36342785 </i>
    <varray name="rec_basis" >
     <v>       0.10284210       0.00000000       0.00000000 </v>
     <v>       0.00000000       0.10284210       0.00000000 </v>
     <v>       0.00000000       0.00000000       0.10284210 </v>
    </varray>
   </crystal>
   <varray name="positions" >
    <v>       0.97907562       0.21590625       0.21506983 </v>
    <v>       0.97907562       0.71506983       0.71590625 </v>
    <v>       0.03173161       0.26100450       0.76100450 </v>
    <v>       0.27969483       0.41181348       0.91181348 </v>
    <v>       0.21585518       0.09387168       0.93489850 </v>
    <v>       0.24099359       0.74583407       0.03397039 </v>
    <v>       0.78787780       0.20090173       0.02639307 </v>
    <v>       0.74986580       0.73809645       0.99965026 </v>
    <v>       0.07748441       0.93133734       0.22102453 </v>
    <v>       0.34659159       0.99705597       0.68493237 </v>
    <v>       0.82459532       0.97331724       0.81770695 </v>
    <v>       0.68566161       0.05011540       0.32621768 </v>
    <v>       0.07748441       0.72102453       0.43133734 </v>
    <v>       0.34659159       0.18493237       0.49705597 </v>
    <v>       0.68566161       0.82621768       0.55011540 </v>
    <v>       0.82459532       0.31770695       0.47331724 </v>
    <v>       0.21585518       0.43489850       0.59387168 </v>
    <v>       0.24099359       0.53397039       0.24583407 </v>
    <v>       0.74986580       0.49965026       0.23809645 </v>
    <v>       0.78787780       0.52639307       0.70090173 </v>
    <v>       0.49818509       0.30400185       0.80400185 </v>
    <v>       0.45092503       0.82405511       0.32405511 </v>
    <v>       0.52093793       0.31753940       0.17621288 </v>
    <v>       0.52093793       0.67621288       0.81753940 </v>
    <v>       0.50288648       0.51280668       0.50236096 </v>
    <v>       0.50288648       0.00236096       0.01280668 </v>
    <v>       0.00279325       0.50283447       0.00283447 </v>
    <v>       0.00296837       0.01273114       0.51273114 </v>
    <v>       0.12431482       0.88658394       0.62987896 </v>
    <v>       0.12431482       0.12987896       0.38658394 </v>
    <v>       0.88049699       0.88995960       0.38995960 </v>
    <v>       0.87425583       0.13110687       0.63110687 </v>
    <v>       0.91465686       0.63701595       0.13701595 </v>
    <v>       0.86515168       0.38953495       0.88953495 </v>
    <v>       0.13140557       0.60503796       0.86860691 </v>
    <v>       0.13140557       0.36860691       0.10503796 </v>
    <v>       0.62449091       0.10882545       0.87586448 </v>
    <v>       0.62210737       0.88705520       0.14201929 </v>
    <v>       0.37551321       0.12587192       0.12262766 </v>
    <v>       0.37916576       0.87666686       0.89181832 </v>
    <v>       0.62210737       0.64201929       0.38705520 </v>
    <v>       0.62449091       0.37586448       0.60882545 </v>
    <v>       0.37551321       0.62262766       0.62587192 </v>
    <v>       0.37916576       0.39181832       0.37666686 </v>
    <v>       0.74926760       0.75107111       0.76651227 </v>
    <v>       0.74926760       0.26651227       0.25107111 </v>
    <v>       0.23616997       0.76212988       0.26212988 </v>
    <v>       0.26968905       0.23655006       0.73655006 </v>
    <v>       0.98748521       0.03568334       0.01132046 </v>
    <v>       0.98748521       0.51132046       0.53568334 </v>
    <v>       0.50740127       0.99720643       0.49720643 </v>
    <v>       0.49777265       0.48419490       0.98419490 </v>
   </varray>
  </structure>
  <varray name="forces" >
   <v>      -0.00028957      -0.00085095      -0.00053522 </v>
   <v>      -0.00028957      -0.00053522      -0.00085095 </v>
   <v>      -0.00046095      -0.00019054      -0.00019054 </v>
   <v>       0.00091066       0.00025953       0.00025953 </v>
   <v>      -0.00003751       0.00078703       0.00091857 </v>
   <v>      -0.00148370      -0.00010243      -0.00001440 </v>
   <v>      -0.00040910      -0.00087598      -0.00016473 </v>
   <v>       0.00023388      -0.00092510       0.00015030 </v>
   <v>       0.00013734      -0.00011621      -0.00004793 </v>
   <v>       0.00036971       0.00025666       0.00047599 </v>
   <v>       0.00067375      -0.00048380       0.00033065 </v>
   <v>      -0.00020552       0.00016342       0.00051888 </v>
   <v>       0.00013734      -0.00004793      -0.00011621 </v>
   <v>       0.00036971       0.00047599       0.00025666 </v>
   <v>      -0.00020552       0.00051888       0.00016342 </v>
   <v>       0.00067375       0.00033065      -0.00048380 </v>
   <v>      -0.00003751       0.00091857       0.00078703 </v>
   <v>      -0.00148370      -0.00001440      -0.00010243 </v>
   <v>       0.00023388       0.00015030      -0.00092510 </v>
   <v>      -0.00040910      -0.00016473      -0.00087598 </v>
   <v>       0.00052794       0.00055029       0.00055029 </v>
   <v>       0.00076097       0.00028762       0.00028762 </v>
   <v>      -0.00027937       0.00072114       0.00049645 </v>
   <v>      -0.00027937       0.00049645       0.00072114 </v>
   <v>      -0.00002371       0.00025344      -0.00008284 </v>
   <v>      -0.00002371      -0.00008284       0.00025344 </v>
   <v>       0.00005194      -0.00029094      -0.00029094 </v>
   <v>      -0.00006285      -0.00010751      -0.00010751 </v>
   <v>      -0.00011010       0.00020152       0.00007201 </v>
   <v>      -0.00011010       0.00007201       0.00020152 </v>
   <v>       0.00023548      -0.00020419      -0.00020419 </v>
   <v>      -0.00061016      -0.00048298      -0.00048298 </v>
   <v>       0.00153640      -0.00000599      -0.00000599 </v>
   <v>      -0.00073851       0.00015472       0.00015472 </v>
   <v>       0.00003431      -0.00094048      -0.00087168 </v>
   <v>       0.00003431      -0.00087168      -0.00094048 </v>
   <v>      -0.00056010      -0.00065478      -0.00040566 </v>
   <v>       0.00042712       0.00009527      -0.00011730 </v>
   <v>       0.00045321      -0.00025866       0.00106036 </v>
   <v>      -0.00070693       0.00019088       0.00077980 </v>
   <v>       0.00042712      -0.00011730       0.00009527 </v>
   <v>      -0.00056010      -0.00040566      -0.00065478 </v>
   <v>       0.00045321       0.00106036      -0.00025866 </v>
   <v>      -0.00070693       0.00077980       0.00019088 </v>
   <v>      -0.00015988      -0.00020241       0.00001819 </v>
   <v>      -0.00015988       0.00001819      -0.00020241 </v>
   <v>       0.00068668       0.00025363       0.00025363 </v>
   <v>       0.00011234       0.00027425       0.00027425 </v>
   <v>      -0.00029573      -0.00145722      -0.00048292 </v>
   <v>      -0.00029573      -0.00048292      -0.00145722 </v>
   <v>       0.00043501       0.00064754       0.00064754 </v>
   <v>       0.00107884       0.00095474       0.00095474 </v>
  </varray>
  <varray name="stress" >
   <v>      -1.73141978       1.38384344       1.38384344 </v>
   <v>       1.38384406       0.88058453      -4.88876878 </v>
   <v>       1.38384406      -4.88876878       0.88058453 </v>
  </varray>
  <energy>
   <i name="e_fr_energy">   -271.37356434 </i>
   <i name="e_wo_entrp">   -271.37356434 </i>
   <i name="e_0_energy">   -271.37356434 </i>
  </energy>
  <time name="totalsc">   51.34   52.55</time>
 </calculation>
 <calculation>
  <scstep>
   <time name="dav">    1.70    1.71</time>
   <time name="total">    2.27    2.32</time>
   <energy>
    <i name="alphaZ">    295.26680685 </i>
    <i name="ewald">  -8697.86512913 </i>
    <i name="hartreedc">  -2289.88857404 </i>
    <i name="XCdc">    537.47324588 </i>
    <i name="pawpsdc">   9824.20604603 </i>
    <i name="pawaedc">  -9968.28016486 </i>
    <i name="eentropy">     -0.00000000 </i>
    <i name="bandstr">  -2662.14331993 </i>
    <i name="atom">  12703.13999606 </i>
    <i name="e_fr_energy">   -258.09109314 </i>
    <i name="e_wo_entrp">   -258.09109314 </i>
    <i name="e_0_energy">   -258.09109314 </i>
   </energy>
  </scstep>
  <scstep>
   <time name="diag">    0.28    0.28</time>
   <time name="diis">    0.64    0.64</time>
   <time name="orth">    0.05    0.05</time>
   <time name="total">    1.41    1.42</time>
   <energy>
    <i name="alphaZ">    295.26680685 </i>
    <i name="ewald">  -8697.86512913 </i>
    <i name="hartreedc">  -2289.89103083 </i>
    <i name="XCdc">    537.47313658 </i>
    <i name="pawpsdc">   9824.18747890 </i>
    <i name="pawaedc">  -9968.26116703 </i>
    <i name="eentropy">     -0.00000000 </i>
    <i name="bandstr">  -2662.14118480 </i>
    <i name="atom">  12703.13999606 </i>
    <i name="e_fr_energy">   -258.09109340 </i>
    <i name="e_wo_entrp">   -258.09109340 </i>
    <i name="e_0_energy">   -258.09109340 </i>
   </energy>
  </scstep>
  <structure>
   <crystal>
    <varray name="basis" >
     <v>       9.72364455       0.00000000       0.00000000 </v>
     <v>       0.00000000       9.72364455       0.00000000 </v>
     <v>       0.00000000       0.00000000       9.72364455 </v>
    </varray>
    <i name="volume">    919.36342785 </i>
    <varray name="rec_basis" >
     <v>       0.10284210       0.00000000       0.00000000 </v>
     <v>       0.00000000       0.10284210       0.00000000 </v>
     <v>       0.00000000       0.00000000       0.10284210 </v>
    </varray>
   </crystal>
   <varray name="positions" >
    <v>       0.97907504       0.21590456       0.21506876 </v>
    <v>       0.97907504       0.71506876       0.71590456 </v>
    <v>       0.03173069       0.26100412       0.76100412 </v>
    <v>       0.27969664       0.41181400       0.91181400 </v>
    <v>       0.21585510       0.09387325       0.93490032 </v>
    <v>       0.24099064       0.74583386       0.03397036 </v>
    <v>       0.78787699       0.20089999       0.02639275 </v>
    <v>       0.74986626       0.73809461       0.99965056 </v>
    <v>       0.07748468       0.93133711       0.22102444 </v>
    <v>       0.34659232       0.99705648       0.68493332 </v>
    <v>       0.82459666       0.97331628       0.81770760 </v>
    <v>       0.68566120       0.05011573       0.32621871 </v>
    <v>       0.07748468       0.72102444       0.43133711 </v>
    <v>       0.34659232       0.18493332       0.49705648 </v>
    <v>       0.68566120       0.82621871       0.55011573 </v>
    <v>       0.82459666       0.31770760       0.47331628 </v>
    <v>       0.21585510       0.43490032       0.59387325 </v>
    <v>       0.24099064       0.53397036       0.24583386 </v>
    <v>       0.74986626       0.49965056       0.23809461 </v>
    <v>       0.78787699       0.52639275       0.70089999 </v>
    <v>       0.49818614       0.30400294       0.80400294 </v>
    <v>       0.45092654       0.82405569       0.32405569 </v>
    <v>       0.52093737       0.31754083       0.17621386 </v>
    <v>       0.52093737       0.67621386       0.81754083 </v>
    <v>       0.50288643       0.51280719       0.50236080 </v>
    <v>       0.50288643       0.00236080       0.01280719 </v>
    <v>       0.00279335       0.50283389       0.00283389 </v>
    <v>       0.00296824       0.01273092       0.51273092 </v>
    <v>       0.12431460       0.88658434       0.62987910 </v>
    <v>       0.12431460       0.12987910       0.38658434 </v>
    <v>       0.88049746       0.88995920       0.38995920 </v>
    <v>       0.87425462       0.13110591       0.63110591 </v>
    <v>       0.91465991       0.63701594       0.13701594 </v>
    <v>       0.86515021       0.38953526       0.88953526 </v>
    <v>       0.13140564       0.60503609       0.86860518 </v>
    <v>       0.13140564       0.36860518       0.10503609 </v>
    <v>       0.62448979       0.10882415       0.87586367 </v>
    <v>       0.62210821       0.88705539       0.14201905 </v>
    <v>       0.37551411       0.12587141       0.12262977 </v>
    <v>       0.37916435       0.87666724       0.89181987 </v>
    <v>       0.62210821       0.64201905       0.38705539 </v>
    <v>       0.62448979       0.37586367       0.60882415 </v>
    <v>       0.37551411       0.62262977       0.62587141 </v>
    <v>       0.37916435       0.39181987       0.37666724 </v>
    <v>       0.74926728       0.75107070       0.76651231 </v>
    <v>       0.74926728       0.26651231       0.25107070 </v>
    <v>       0.23617133       0.76213038       0.26213038 </v>
    <v>       0.26968927       0.23655061       0.73655061 </v>
    <v>       0.98748463       0.03568045       0.01131950 </v>
    <v>       0.98748463       0.51131950       0.53568045 </v>
    <v>       0.50740213       0.99720771       0.49720771 </v>
    <v>       0.49777479       0.48419680       0.98419680 </v>
   </varray>
  </structure>
  <varray name="forces" >
   <v>      -0.00011396      -0.00049189      -0.00029971 </v>
   <v>      -0.00011396      -0.00029971      -0.00049189 </v>
   <v>      -0.00023255      -0.00009628      -0.00009628 </v>
   <v>       0.00053878       0.00016794       0.00016794 </v>
   <v>      -0.00000307       0.00047831       0.00056977 </v>
   <v>      -0.00086715      -0.00007547      -0.00000860 </v>
   <v>      -0.00022032      -0.00049540      -0.00012380 </v>
   <v>       0.00016675      -0.00054945       0.00009959 </v>
   <v>       0.00010189      -0.00005668       0.00000616 </v>
   <v>       0.00021032       0.00014427       0.00027589 </v>
   <v>       0.00041461      -0.00028239       0.00018106 </v>
   <v>      -0.00010825       0.00009402       0.00029143 </v>
   <v>       0.00010189       0.00000616      -0.00005668 </v>
   <v>       0.00021032       0.00027589       0.00014427 </v>
   <v>      -0.00010825       0.00029143       0.00009402 </v>
   <v>       0.00041461       0.00018106      -0.00028239 </v>
   <v>      -0.00000307       0.00056977       0.00047831 </v>
   <v>      -0.00086715      -0.00000860      -0.00007547 </v>
   <v>       0.00016675       0.00009959      -0.00054945 </v>
   <v>      -0.00022032      -0.00012380      -0.00049540 </v>
   <v>       0.00033940       0.00033313       0.00033313 </v>
   <v>       0.00049953       0.00018278       0.00018278 </v>
   <v>      -0.00017119       0.00040543       0.00029172 </v>
   <v>      -0.00017119       0.00029172       0.00040543 </v>
   <v>      -0.00006790       0.00026569       0.00000340 </v>
   <v>      -0.00006790       0.00000340       0.00026569 </v>
   <v>       0.00014261      -0.00040167      -0.00040167 </v>
   <v>      -0.00005806      -0.00015670      -0.00015670 </v>
   <v>      -0.00007773      -0.00004069       0.00007124 </v>
   <v>      -0.00007773       0.00007124      -0.00004069 </v>
   <v>       0.00016383      -0.00016709      -0.00016709 </v>
   <v>      -0.00038306      -0.00018740      -0.00018740 </v>
   <v>       0.00085211       0.00004232       0.00004232 </v>
   <v>      -0.00039484      -0.00002553      -0.00002553 </v>
   <v>       0.00010674      -0.00059731      -0.00054933 </v>
   <v>       0.00010674      -0.00054933      -0.00059731 </v>
   <v>      -0.00029549      -0.00025040      -0.00017186 </v>
   <v>       0.00040007       0.00002198       0.00001315 </v>
   <v>       0.00025060      -0.00007993       0.00059162 </v>
   <v>      -0.00052595       0.00011777       0.00046736 </v>
   <v>       0.00040007       0.00001315       0.00002198 </v>
   <v>      -0.00029549      -0.00017186      -0.00025040 </v>
   <v>       0.00025060       0.00059162      -0.00007993 </v>
   <v>      -0.00052595       0.00046736       0.00011777 </v>
   <v>       0.00006020      -0.00022150      -0.00003865 </v>
   <v>       0.00006020      -0.00003865      -0.00022150 </v>
   <v>       0.00025124       0.00004859       0.00004859 </v>
   <v>       0.00002481       0.00027836       0.00027836 </v>
   <v>      -0.00011095       0.00004782       0.00008073 </v>
   <v>      -0.00011095       0.00008073       0.00004782 </v>
   <v>       0.00019784      -0.00004874      -0.00004874 </v>
   <v>      -0.00024003      -0.00015503      -0.00015503 </v>
  </varray>
  <varray name="stress" >
   <v>      -1.73909169       1.38371388       1.38371388 </v>
   <v>       1.38371439       0.87286357      -4.88923442 </v>
   <v>       1.38371439      -4.88923442       0.87286357 </v>
  </varray>
  <energy>
   <i name="e_fr_energy">   -271.37356558 </i>
   <i name="e_wo_entrp">   -271.37356558 </i>
   <i name="e_0_energy">   -271.37356558 </i>
  </energy>
  <time name="totalsc">    6.23    6.37</time>
  <eigenvalues>
   <array>
    <dimension dim="1">band</dimension>
    <dimension dim="2">kpoint</dimension>
    <dimension dim="3">spin</dimension>
    <field>eigene</field>
    <field>occ</field>
    <set>
     <set comment="spin 1">
      <set comment="kpoint 1">
       <r>  -42.8771    1.0000 </r>
       <r>  -42.8769    1.0000 </r>
       <r>  -42.8361    1.0000 </r>
       <r>  -42.8175    1.0000 </r>
       <r>  -42.7271    1.0000 </r>
       <r>  -42.6564    1.0000 </r>
       <r>  -42.6564    1.0000 </r>
       <r>  -42.6244    1.0000 </r>
       <r>  -42.6211    1.0000 </r>
       <r>  -42.6112    1.0000 </r>
       <r>  -42.6110    1.0000 </r>
       <r>  -42.6094    1.0000 </r>
       <r>  -42.5400    1.0000 </r>
       <r>  -42.5400    1.0000 </r>
       <r>  -42.5131    1.0000 </r>
       <r>  -42.5069    1.0000 </r>
       <r>  -42.4839    1.0000 </r>
       <r>  -42.4735    1.0000 </r>
       <r>  -42.4718    1.0000 </r>
       <r>  -42.4075    1.0000 </r>
       <r>  -42.4074    1.0000 </r>
       <r>  -42.1722    1.0000 </r>
       <r>  -42.1663    1.0000 </r>
       <r>  -42.0830    1.0000 </r>
       <r>  -13.2136    1.0000 </r>
       <r>  -13.1794    1.0000 </r>
       <r>  -13.0937    1.0000 </r>
       <r>  -13.0780    1.0000 </r>
       <r>  -12.7512    1.0000 </r>
       <r>  -12.7451    1.0000 </r>
       <r>  -12.6847    1.0000 </r>
       <r>  -12.4508    1.0000 </r>
       <r>  -10.4208    1.0000 </r>
       <r>  -10.3518    1.0000 </r>
       <r>  -10.3509    1.0000 </r>
       <r>  -10.2688    1.0000 </r>
       <r>  -10.2044    1.0000 </r>
       <r>  -10.1604    1.0000 </r>
       <r>  -10.1562    1.0000 </r>
       <r>  -10.1238    1.0000 </r>
       <r>  -10.0974    1.0000 </r>
       <r>  -10.0769    1.0000 </r>
       <r>  -10.0251    1.0000 </r>
       <r>   -9.9892    1.0000 </r>
       <r>   -8.7513    1.0000 </r>
       <r>   -8.6277    1.0000 </r>
       <r>   -8.6239    1.0000 </r>
       <r>   -7.8996    1.0000 </r>
       <r>   -6.2083    1.0000 </r>
       <r>   -5.8264    1.0000 </r>
       <r>   -5.7534    1.0000 </r>
       <r>   -5.7380    1.0000 </r>
       <r>   -3.3765    1.0000 </r>
       <r>   -3.2669    1.0000 </r>
       <r>   -3.2630    1.0000 </r>
       <r>   -2.9819    1.0000 </r>
       <r>   -2.8208    1.0000 </r>
       <r>   -2.7847    1.0000 </r>
       <r>   -2.6458    1.0000 </r>
       <r>   -2.5944    1.0000 </r>
       <r>   -2.5943    1.0000 </r>
       <r>   -2.5568    1.0000 </r>
       <r>   -2.4732    1.0000 </r>
       <r>   -2.4571    1.0000 </r>
       <r>   -1.7341    1.0000 </r>
       <r>   -1.6308    1.0000 </r>
       <r>   -1.5849    1.0000 </r>
       <r>   -1.4822    1.0000 </r>
       <r>   -1.4175    1.0000 </r>
       <r>   -1.3905    1.0000 </r>
       <r>   -1.3390    1.0000 </r>
       <r>   -1.3048    1.0000 </r>
       <r>   -1.2010    1.0000 </r>
       <r>   -1.1940    1.0000 </r>
       <r>   -1.0951    1.0000 </r>
       <r>   -0.9900    1.0000 </r>
       <r>   -0.7047    1.0000 </r>
       <r>   -0.6635    1.0000 </r>
       <r>   -0.5893    1.0000 </r>
       <r>   -0.4685    1.0000 </r>
       <r>   -0.4389    1.0000 </r>
       <r>   -0.2841    1.0000 </r>
       <r>   -0.2831    1.0000 </r>
       <r>   -0.2025    1.0000 </r>
       <r>   -0.1751    1.0000 </r>
       <r>   -0.1507    1.0000 </r>
       <r>   -0.1126    1.0000 </r>
       <r>   -0.0463    1.0000 </r>
       <r>   -0.0256    1.0000 </r>
       <r>   -0.0121    1.0000 </r>
       <r>    0.0601    1.0000 </r>
       <r>    0.1022    1.0000 </r>
       <r>    0.1336    1.0000 </r>
       <r>    0.1809    1.0000 </r>
       <r>    0.2533    1.0000 </r>
       <r>    0.2717    1.0000 </r>
       <r>    0.5405    1.0000 </r>
       <r>    0.6206    1.0000 </r>
       <r>    0.6323    1.0000 </r>
       <r>    0.7160    1.0000 </r>
       <r>    0.7884    1.0000 </r>
       <r>    0.8022    1.0000 </r>
       <r>    0.8724    1.0000 </r>
       <r>    0.8727    1.0000 </r>
       <r>    0.8962    1.0000 </r>
       <r>    0.9504    1.0000 </r>
       <r>    1.0014    1.0000 </r>
       <r>    1.0158    1.0000 </r>
       <r>    1.0686    1.0000 </r>
       <r>    1.1147    1.0000 </r>
       <r>    1.1657    1.0000 </r>
       <r>    1.2089    1.0000 </r>
       <r>    1.2328    1.0000 </r>
       <r>    1.2656    1.0000 </r>
       <r>    1.3890    1.0000 </r>
       <r>    1.4775    1.0000 </r>
       <r>    1.5915    1.0000 </r>
       <r>    1.6049    1.0000 </r>
       <r>    1.6860    1.0000 </r>
       <r>    1.8976    1.0000 </r>
       <r>    4.3002    0.0000 </r>
       <r>    5.0783    0.0000 </r>
       <r>    5.1811    0.0000 </r>
       <r>    5.1972    0.0000 </r>
       <r>    5.6893    0.0000 </r>
       <r>    5.8600    0.0000 </r>
       <r>    5.8902    0.0000 </r>
       <r>    5.9387    0.0000 </r>
       <r>    5.9539    0.0000 </r>
       <r>    6.1776    0.0000 </r>
       <r>    6.2781    0.0000 </r>
       <r>    6.2850    0.0000 </r>
       <r>    6.4560    0.0000 </r>
       <r>    6.7256    0.0000 </r>
       <r>    6.7301    0.0000 </r>
       <r>    6.8639    0.0000 </r>
       <r>    6.9071    0.0000 </r>
       <r>    7.0916    0.0000 </r>
       <r>    7.2005    0.0000 </r>
       <r>    7.3520    0.0000 </r>
       <r>    7.5043    0.0000 </r>
       <r>    7.5641    0.0000 </r>
       <r>    7.5912    0.0000 </r>
       <r>    7.6021    0.0000 </r>
       <r>    7.7188    0.0000 </r>
       <r>    7.8058    0.0000 </r>
       <r>    7.9571    0.0000 </r>
       <r>    7.9909    0.0000 </r>
       <r>    8.0351    0.0000 </r>
       <r>    8.1275    0.0000 </r>
       <r>    8.1597    0.0000 </r>
       <r>    8.2586    0.0000 </r>
       <r>    8.4446    0.0000 </r>
       <r>    8.4647    0.0000 </r>
       <r>    8.5287    0.0000 </r>
       <r>    8.5879    0.0000 </r>
       <r>    8.6807    0.0000 </r>
       <r>    8.6961    0.0000 </r>
       <r>    8.7560    0.0000 </r>
       <r>    8.8624    0.0000 </r>
       <r>    8.8642    0.0000 </r>
       <r>    8.9047    0.0000 </r>
       <r>    8.9722    0.0000 </r>
       <r>    9.0086    0.0000 </r>
       <r>    9.1003    0.0000 </r>
       <r>    9.1042    0.0000 </r>
       <r>    9.1687    0.0000 </r>
       <r>    9.2607    0.0000 </r>
       <r>    9.3070    0.0000 </r>
       <r>    9.3947    0.0000 </r>
       <r>    9.4434    0.0000 </r>
       <r>    9.4831    0.0000 </r>
       <r>    9.5038    0.0000 </r>
       <r>    9.5667    0.0000 </r>
       <r>    9.6506    0.0000 </r>
       <r>    9.7005    0.0000 </r>
      </set>
      <set comment="kpoint 2">
       <r>  -42.8771    1.0000 </r>
       <r>  -42.8769    1.0000 </r>
       <r>  -42.8361    1.0000 </r>
       <r>  -42.8175    1.0000 </r>
       <r>  -42.7271    1.0000 </r>
       <r>  -42.6564    1.0000 </r>
       <r>  -42.6564    1.0000 </r>
       <r>  -42.6244    1.0000 </r>
       <r>  -42.6211    1.0000 </r>
       <r>  -42.6111    1.0000 </r>
       <r>  -42.6110    1.0000 </r>
       <r>  -42.6094    1.0000 </r>
       <r>  -42.5400    1.0000 </r>
       <r>  -42.5400    1.0000 </r>
       <r>  -42.5131    1.0000 </r>
       <r>  -42.5069    1.0000 </r>
       <r>  -42.4839    1.0000 </r>
       <r>  -42.4735    1.0000 </r>
       <r>  -42.4718    1.0000 </r>
       <r>  -42.4075    1.0000 </r>
       <r>  -42.4074    1.0000 </r>
       <r>  -42.1722    1.0000 </r>
       <r>  -42.1663    1.0000 </r>
       <r>  -42.0830    1.0000 </r>
       <r>  -13.2136    1.0000 </r>
       <r>  -13.1794    1.0000 </r>
       <r>  -13.0936    1.0000 </r>
       <r>  -13.0779    1.0000 </r>
       <r>  -12.7513    1.0000 </r>
       <r>  -12.7451    1.0000 </r>
       <r>  -12.6847    1.0000 </r>
       <r>  -12.4508    1.0000 </r>
       <r>  -10.4052    1.0000 </r>
       <r>  -10.3815    1.0000 </r>
       <r>  -10.3510    1.0000 </r>
       <r>  -10.2589    1.0000 </r>
       <r>  -10.2089    1.0000 </r>
       <r>  -10.1575    1.0000 </r>
       <r>  -10.1226    1.0000 </r>
       <r>  -10.1212    1.0000 </r>
       <r>  -10.1110    1.0000 </r>
       <r>  -10.0784    1.0000 </r>
       <r>  -10.0399    1.0000 </r>
       <r>   -9.9902    1.0000 </r>
       <r>   -8.7521    1.0000 </r>
       <r>   -8.6272    1.0000 </r>
       <r>   -8.6238    1.0000 </r>
       <r>   -7.8994    1.0000 </r>
       <r>   -6.1940    1.0000 </r>
       <r>   -5.8457    1.0000 </r>
       <r>   -5.7500    1.0000 </r>
       <r>   -5.7384    1.0000 </r>
       <r>   -3.3287    1.0000 </r>
       <r>   -3.3105    1.0000 </r>
       <r>   -3.2649    1.0000 </r>
       <r>   -2.9590    1.0000 </r>
       <r>   -2.8409    1.0000 </r>
       <r>   -2.8064    1.0000 </r>
       <r>   -2.6213    1.0000 </r>
       <r>   -2.6209    1.0000 </r>
       <r>   -2.5979    1.0000 </r>
       <r>   -2.5841    1.0000 </r>
       <r>   -2.4584    1.0000 </r>
       <r>   -2.4082    1.0000 </r>
       <r>   -1.7387    1.0000 </r>
       <r>   -1.6295    1.0000 </r>
       <r>   -1.5771    1.0000 </r>
       <r>   -1.4765    1.0000 </r>
       <r>   -1.4097    1.0000 </r>
       <r>   -1.4068    1.0000 </r>
       <r>   -1.3370    1.0000 </r>
       <r>   -1.3101    1.0000 </r>
       <r>   -1.2170    1.0000 </r>
       <r>   -1.2003    1.0000 </r>
       <r>   -1.0983    1.0000 </r>
       <r>   -0.9928    1.0000 </r>
       <r>   -0.6933    1.0000 </r>
       <r>   -0.6363    1.0000 </r>
       <r>   -0.5841    1.0000 </r>
       <r>   -0.4644    1.0000 </r>
       <r>   -0.4503    1.0000 </r>
       <r>   -0.3164    1.0000 </r>
       <r>   -0.2351    1.0000 </r>
       <r>   -0.2029    1.0000 </r>
       <r>   -0.1978    1.0000 </r>
       <r>   -0.1728    1.0000 </r>
       <r>   -0.1378    1.0000 </r>
       <r>   -0.0412    1.0000 </r>
       <r>   -0.0123    1.0000 </r>
       <r>    0.0316    1.0000 </r>
       <r>    0.0458    1.0000 </r>
       <r>    0.0831    1.0000 </r>
       <r>    0.1215    1.0000 </r>
       <r>    0.1641    1.0000 </r>
       <r>    0.2141    1.0000 </r>
       <r>    0.2432    1.0000 </r>
       <r>    0.5382    1.0000 </r>
       <r>    0.6613    1.0000 </r>
       <r>    0.6638    1.0000 </r>
       <r>    0.7031    1.0000 </r>
       <r>    0.7961    1.0000 </r>
       <r>    0.8018    1.0000 </r>
       <r>    0.8644    1.0000 </r>
       <r>    0.9227    1.0000 </r>
       <r>    0.9672    1.0000 </r>
       <r>    0.9773    1.0000 </r>
       <r>    0.9947    1.0000 </r>
       <r>    1.0550    1.0000 </r>
       <r>    1.0817    1.0000 </r>
       <r>    1.1583    1.0000 </r>
       <r>    1.1615    1.0000 </r>
       <r>    1.2026    1.0000 </r>
       <r>    1.2230    1.0000 </r>
       <r>    1.3050    1.0000 </r>
       <r>    1.3585    1.0000 </r>
       <r>    1.3900    1.0000 </r>
       <r>    1.5156    1.0000 </r>
       <r>    1.5767    1.0000 </r>
       <r>    1.6659    1.0000 </r>
       <r>    1.9115    1.0000 </r>
       <r>    4.3064    0.0000 </r>
       <r>    5.1093    0.0000 </r>
       <r>    5.1690    0.0000 </r>
       <r>    5.1906    0.0000 </r>
       <r>    5.7848    0.0000 </r>
       <r>    5.8770    0.0000 </r>
       <r>    5.8963    0.0000 </r>
       <r>    5.9288    0.0000 </r>
       <r>    6.0078    0.0000 </r>
       <r>    6.0308    0.0000 </r>
       <r>    6.3746    0.0000 </r>
       <r>    6.4709    0.0000 </r>
       <r>    6.4806    0.0000 </r>
       <r>    6.5989    0.0000 </r>
       <r>    6.6411    0.0000 </r>
       <r>    6.6550    0.0000 </r>
       <r>    6.8675    0.0000 </r>
       <r>    7.1709    0.0000 </r>
       <r>    7.2343    0.0000 </r>
       <r>    7.3208    0.0000 </r>
       <r>    7.4352    0.0000 </r>
       <r>    7.4847    0.0000 </r>
       <r>    7.5463    0.0000 </r>
       <r>    7.6539    0.0000 </r>
       <r>    7.7889    0.0000 </r>
       <r>    7.8371    0.0000 </r>
       <r>    7.8655    0.0000 </r>
       <r>    7.9564    0.0000 </r>
       <r>    8.0259    0.0000 </r>
       <r>    8.1529    0.0000 </r>
       <r>    8.2167    0.0000 </r>
       <r>    8.3185    0.0000 </r>
       <r>    8.3467    0.0000 </r>
       <r>    8.4506    0.0000 </r>
       <r>    8.4625    0.0000 </r>
       <r>    8.6169    0.0000 </r>
       <r>    8.7149    0.0000 </r>
       <r>    8.7690    0.0000 </r>
       <r>    8.8114    0.0000 </r>
       <r>    8.8435    0.0000 </r>
       <r>    8.9061    0.0000 </r>
       <r>    8.9926    0.0000 </r>
       <r>    9.0265    0.0000 </r>
       <r>    9.0381    0.0000 </r>
       <r>    9.1486    0.0000 </r>
       <r>    9.1562    0.0000 </r>
       <r>    9.1845    0.0000 </r>
       <r>    9.2708    0.0000 </r>
       <r>    9.2868    0.0000 </r>
       <r>    9.3457    0.0000 </r>
       <r>    9.4095    0.0000 </r>
       <r>    9.4365    0.0000 </r>
       <r>    9.5550    0.0000 </r>
       <r>    9.6428    0.0000 </r>
       <r>    9.6628    0.0000 </r>
       <r>    9.7377    0.0000 </r>
      </set>
      <set comment="kpoint 3">
       <r>  -42.8771    1.0000 </r>
       <r>  -42.8769    1.0000 </r>
       <r>  -42.8360    1.0000 </r>
       <r>  -42.8176    1.0000 </r>
       <r>  -42.7271    1.0000 </r>
       <r>  -42.6564    1.0000 </r>
       <r>  -42.6564    1.0000 </r>
       <r>  -42.6244    1.0000 </r>
       <r>  -42.6211    1.0000 </r>
       <r>  -42.6111    1.0000 </r>
       <r>  -42.6110    1.0000 </r>
       <r>  -42.6094    1.0000 </r>
       <r>  -42.5400    1.0000 </r>
       <r>  -42.5400    1.0000 </r>
       <r>  -42.5130    1.0000 </r>
       <r>  -42.5069    1.0000 </r>
       <r>  -42.4839    1.0000 </r>
       <r>  -42.4734    1.0000 </r>
       <r>  -42.4718    1.0000 </r>
       <r>  -42.4075    1.0000 </r>
       <r>  -42.4074    1.0000 </r>
       <r>  -42.1722    1.0000 </r>
       <r>  -42.1663    1.0000 </r>
       <r>  -42.0830    1.0000 </r>
       <r>  -13.2143    1.0000 </r>
       <r>  -13.1785    1.0000 </r>
       <r>  -13.0936    1.0000 </r>
       <r>  -13.0781    1.0000 </r>
       <r>  -12.7510    1.0000 </r>
       <r>  -12.7453    1.0000 </r>
       <r>  -12.6847    1.0000 </r>
       <r>  -12.4508    1.0000 </r>
       <r>  -10.4122    1.0000 </r>
       <r>  -10.3796    1.0000 </r>
       <r>  -10.3460    1.0000 </r>
       <r>  -10.2469    1.0000 </r>
       <r>  -10.2018    1.0000 </r>
       <r>  -10.1674    1.0000 </r>
       <r>  -10.1565    1.0000 </r>
       <r>  -10.1181    1.0000 </r>
       <r>  -10.0969    1.0000 </r>
       <r>  -10.0868    1.0000 </r>
       <r>  -10.0264    1.0000 </r>
       <r>   -9.9872    1.0000 </r>
       <r>   -8.7514    1.0000 </r>
       <r>   -8.6270    1.0000 </r>
       <r>   -8.6244    1.0000 </r>
       <r>   -7.8998    1.0000 </r>
       <r>   -6.2012    1.0000 </r>
       <r>   -5.8350    1.0000 </r>
       <r>   -5.7832    1.0000 </r>
       <r>   -5.7078    1.0000 </r>
       <r>   -3.3406    1.0000 </r>
       <r>   -3.3082    1.0000 </r>
       <r>   -3.2562    1.0000 </r>
       <r>   -2.9696    1.0000 </r>
       <r>   -2.8382    1.0000 </r>
       <r>   -2.8131    1.0000 </r>
       <r>   -2.6383    1.0000 </r>
       <r>   -2.6096    1.0000 </r>
       <r>   -2.5559    1.0000 </r>
       <r>   -2.5322    1.0000 </r>
       <r>   -2.4845    1.0000 </r>
       <r>   -2.4592    1.0000 </r>
       <r>   -1.7320    1.0000 </r>
       <r>   -1.6095    1.0000 </r>
       <r>   -1.5990    1.0000 </r>
       <r>   -1.4614    1.0000 </r>
       <r>   -1.4240    1.0000 </r>
       <r>   -1.4025    1.0000 </r>
       <r>   -1.3423    1.0000 </r>
       <r>   -1.3257    1.0000 </r>
       <r>   -1.2036    1.0000 </r>
       <r>   -1.1852    1.0000 </r>
       <r>   -1.0925    1.0000 </r>
       <r>   -1.0105    1.0000 </r>
       <r>   -0.6902    1.0000 </r>
       <r>   -0.6398    1.0000 </r>
       <r>   -0.5842    1.0000 </r>
       <r>   -0.4959    1.0000 </r>
       <r>   -0.4226    1.0000 </r>
       <r>   -0.3356    1.0000 </r>
       <r>   -0.2669    1.0000 </r>
       <r>   -0.2217    1.0000 </r>
       <r>   -0.1667    1.0000 </r>
       <r>   -0.1206    1.0000 </r>
       <r>   -0.1021    1.0000 </r>
       <r>   -0.0772    1.0000 </r>
       <r>   -0.0233    1.0000 </r>
       <r>    0.0104    1.0000 </r>
       <r>    0.0580    1.0000 </r>
       <r>    0.0691    1.0000 </r>
       <r>    0.1398    1.0000 </r>
       <r>    0.1758    1.0000 </r>
       <r>    0.2133    1.0000 </r>
       <r>    0.2898    1.0000 </r>
       <r>    0.5590    1.0000 </r>
       <r>    0.6084    1.0000 </r>
       <r>    0.6403    1.0000 </r>
       <r>    0.7058    1.0000 </r>
       <r>    0.7322    1.0000 </r>
       <r>    0.8175    1.0000 </r>
       <r>    0.8408    1.0000 </r>
       <r>    0.9001    1.0000 </r>
       <r>    0.9475    1.0000 </r>
       <r>    0.9777    1.0000 </r>
       <r>    1.0295    1.0000 </r>
       <r>    1.0421    1.0000 </r>
       <r>    1.0813    1.0000 </r>
       <r>    1.1355    1.0000 </r>
       <r>    1.1793    1.0000 </r>
       <r>    1.2272    1.0000 </r>
       <r>    1.2513    1.0000 </r>
       <r>    1.3016    1.0000 </r>
       <r>    1.3466    1.0000 </r>
       <r>    1.4269    1.0000 </r>
       <r>    1.5467    1.0000 </r>
       <r>    1.5921    1.0000 </r>
       <r>    1.6597    1.0000 </r>
       <r>    1.9111    1.0000 </r>
       <r>    4.3003    0.0000 </r>
       <r>    5.0610    0.0000 </r>
       <r>    5.1519    0.0000 </r>
       <r>    5.2398    0.0000 </r>
       <r>    5.7679    0.0000 </r>
       <r>    5.8036    0.0000 </r>
       <r>    5.8908    0.0000 </r>
       <r>    5.9352    0.0000 </r>
       <r>    5.9619    0.0000 </r>
       <r>    6.1533    0.0000 </r>
       <r>    6.3310    0.0000 </r>
       <r>    6.3880    0.0000 </r>
       <r>    6.4732    0.0000 </r>
       <r>    6.6470    0.0000 </r>
       <r>    6.7240    0.0000 </r>
       <r>    6.7536    0.0000 </r>
       <r>    6.8710    0.0000 </r>
       <r>    7.1245    0.0000 </r>
       <r>    7.2147    0.0000 </r>
       <r>    7.4192    0.0000 </r>
       <r>    7.4739    0.0000 </r>
       <r>    7.5162    0.0000 </r>
       <r>    7.5652    0.0000 </r>
       <r>    7.6541    0.0000 </r>
       <r>    7.7301    0.0000 </r>
       <r>    7.7799    0.0000 </r>
       <r>    7.9145    0.0000 </r>
       <r>    7.9579    0.0000 </r>
       <r>    8.0111    0.0000 </r>
       <r>    8.0769    0.0000 </r>
       <r>    8.1743    0.0000 </r>
       <r>    8.1918    0.0000 </r>
       <r>    8.3469    0.0000 </r>
       <r>    8.4586    0.0000 </r>
       <r>    8.4851    0.0000 </r>
       <r>    8.5834    0.0000 </r>
       <r>    8.6426    0.0000 </r>
       <r>    8.7144    0.0000 </r>
       <r>    8.8366    0.0000 </r>
       <r>    8.8530    0.0000 </r>
       <r>    8.9344    0.0000 </r>
       <r>    8.9852    0.0000 </r>
       <r>    9.0369    0.0000 </r>
       <r>    9.0654    0.0000 </r>
       <r>    9.0870    0.0000 </r>
       <r>    9.1897    0.0000 </r>
       <r>    9.2426    0.0000 </r>
       <r>    9.2778    0.0000 </r>
       <r>    9.3126    0.0000 </r>
       <r>    9.3581    0.0000 </r>
       <r>    9.4503    0.0000 </r>
       <r>    9.4928    0.0000 </r>
       <r>    9.6085    0.0000 </r>
       <r>    9.6589    0.0000 </r>
       <r>    9.7264    0.0000 </r>
       <r>    9.7699    0.0000 </r>
      </set>
     </set>
     <set comment="spin 2">
      <set comment="kpoint 1">
       <r>  -42.8771    1.0000 </r>
       <r>  -42.8769    1.0000 </r>
       <r>  -42.8361    1.0000 </r>
       <r>  -42.8175    1.0000 </r>
       <r>  -42.7271    1.0000 </r>
       <r>  -42.6564    1.0000 </r>
       <r>  -42.6564    1.0000 </r>
       <r>  -42.6245    1.0000 </r>
       <r>  -42.6211    1.0000 </r>
       <r>  -42.6112    1.0000 </r>
       <r>  -42.6110    1.0000 </r>
       <r>  -42.6094    1.0000 </r>
       <r>  -42.5400    1.0000 </r>
       <r>  -42.5400    1.0000 </r>
       <r>  -42.5131    1.0000 </r>
       <r>  -42.5069    1.0000 </r>
       <r>  -42.4839    1.0000 </r>
       <r>  -42.4735    1.0000 </r>
       <r>  -42.4718    1.0000 </r>
       <r>  -42.4075    1.0000 </r>
       <r>  -42.4074    1.0000 </r>
       <r>  -42.1722    1.0000 </r>
       <r>  -42.1663    1.0000 </r>
       <r>  -42.0830    1.0000 </r>
       <r>  -13.2136    1.0000 </r>
       <r>  -13.1794    1.0000 </r>
       <r>  -13.0937    1.0000 </r>
       <r>  -13.0780    1.0000 </r>
       <r>  -12.7512    1.0000 </r>
       <r>  -12.7451    1.0000 </r>
       <r>  -12.6847    1.0000 </r>
       <r>  -12.4508    1.0000 </r>
       <r>  -10.4208    1.0000 </r>
       <r>  -10.3518    1.0000 </r>
       <r>  -10.3509    1.0000 </r>
       <r>  -10.2688    1.0000 </r>
       <r>  -10.2044    1.0000 </r>
       <r>  -10.1604    1.0000 </r>
       <r>  -10.1562    1.0000 </r>
       <r>  -10.1238    1.0000 </r>
       <r>  -10.0974    1.0000 </r>
       <r>  -10.0769    1.0000 </r>
       <r>  -10.0251    1.0000 </r>
       <r>   -9.9892    1.0000 </r>
       <r>   -8.7513    1.0000 </r>
       <r>   -8.6277    1.0000 </r>
       <r>   -8.6239    1.0000 </r>
       <r>   -7.8996    1.0000 </r>
       <r>   -6.2083    1.0000 </r>
       <r>   -5.8264    1.0000 </r>
       <r>   -5.7534    1.0000 </r>
       <r>   -5.7380    1.0000 </r>
       <r>   -3.3765    1.0000 </r>
       <r>   -3.2669    1.0000 </r>
       <r>   -3.2630    1.0000 </r>
       <r>   -2.9819    1.0000 </r>
       <r>   -2.8208    1.0000 </r>
       <r>   -2.7847    1.0000 </r>
       <r>   -2.6458    1.0000 </r>
       <r>   -2.5944    1.0000 </r>
       <r>   -2.5943    1.0000 </r>
       <r>   -2.5568    1.0000 </r>
       <r>   -2.4732    1.0000 </r>
       <r>   -2.4571    1.0000 </r>
       <r>   -1.7341    1.0000 </r>
       <r>   -1.6308    1.0000 </r>
       <r>   -1.5849    1.0000 </r>
       <r>   -1.4822    1.0000 </r>
       <r>   -1.4175    1.0000 </r>
       <r>   -1.3905    1.0000 </r>
       <r>   -1.3390    1.0000 </r>
       <r>   -1.3048    1.0000 </r>
       <r>   -1.2010    1.0000 </r>
       <r>   -1.1940    1.0000 </r>
       <r>   -1.0951    1.0000 </r>
       <r>   -0.9900    1.0000 </r>
       <r>   -0.7047    1.0000 </r>
       <r>   -0.6635    1.0000 </r>
       <r>   -0.5893    1.0000 </r>
       <r>   -0.4685    1.0000 </r>
       <r>   -0.4389    1.0000 </r>
       <r>   -0.2841    1.0000 </r>
       <r>   -0.2831    1.0000 </r>
       <r>   -0.2025    1.0000 </r>
       <r>   -0.1751    1.0000 </r>
       <r>   -0.1507    1.0000 </r>
       <r>   -0.1126    1.0000 </r>
       <r>   -0.0464    1.0000 </r>
       <r>   -0.0256    1.0000 </r>
       <r>   -0.0121    1.0000 </r>
       <r>    0.0601    1.0000 </r>
       <r>    0.1022    1.0000 </r>
       <r>    0.1336    1.0000 </r>
       <r>    0.1809    1.0000 </r>
       <r>    0.2533    1.0000 </r>
       <r>    0.2717    1.0000 </r>
       <r>    0.5405    1.0000 </r>
       <r>    0.6206    1.0000 </r>
       <r>    0.6323    1.0000 </r>
       <r>    0.7160    1.0000 </r>
       <r>    0.7884    1.0000 </r>
       <r>    0.8022    1.0000 </r>
       <r>    0.8724    1.0000 </r>
       <r>    0.8727    1.0000 </r>
       <r>    0.8962    1.0000 </r>
       <r>    0.9504    1.0000 </r>
       <r>    1.0014    1.0000 </r>
       <r>    1.0158    1.0000 </r>
       <r>    1.0686    1.0000 </r>
       <r>    1.1147    1.0000 </r>
       <r>    1.1657    1.0000 </r>
       <r>    1.2089    1.0000 </r>
       <r>    1.2328    1.0000 </r>
       <r>    1.2656    1.0000 </r>
       <r>    1.3890    1.0000 </r>
       <r>    1.4775    1.0000 </r>
       <r>    1.5915    1.0000 </r>
       <r>    1.6049    1.0000 </r>
       <r>    1.6860    1.0000 </r>
       <r>    1.8976    1.0000 </r>
       <r>    4.3002    0.0000 </r>
       <r>    5.0783    0.0000 </r>
       <r>    5.1811    0.0000 </r>
       <r>    5.1972    0.0000 </r>
       <r>    5.6893    0.0000 </r>
       <r>    5.8600    0.0000 </r>
       <r>    5.8902    0.0000 </r>
       <r>    5.9387    0.0000 </r>
       <r>    5.9538    0.0000 </r>
       <r>    6.1776    0.0000 </r>
       <r>    6.2781    0.0000 </r>
       <r>    6.2850    0.0000 </r>
       <r>    6.4560    0.0000 </r>
       <r>    6.7255    0.0000 </r>
       <r>    6.7301    0.0000 </r>
       <r>    6.8639    0.0000 </r>
       <r>    6.9071    0.0000 </r>
       <r>    7.0916    0.0000 </r>
       <r>    7.2005    0.0000 </r>
       <r>    7.3520    0.0000 </r>
       <r>    7.5043    0.0000 </r>
       <r>    7.5641    0.0000 </r>
       <r>    7.5912    0.0000 </r>
       <r>    7.6021    0.0000 </r>
       <r>    7.7187    0.0000 </r>
       <r>    7.8057    0.0000 </r>
       <r>    7.9570    0.0000 </r>
       <r>    7.9908    0.0000 </r>
       <r>    8.0350    0.0000 </r>
       <r>    8.1274    0.0000 </r>
       <r>    8.1595    0.0000 </r>
       <r>    8.2584    0.0000 </r>
       <r>    8.4447    0.0000 </r>
       <r>    8.4645    0.0000 </r>
       <r>    8.5283    0.0000 </r>
       <r>    8.5878    0.0000 </r>
       <r>    8.6805    0.0000 </r>
[...]
       <r>     7.8844    11.5274   146.2394 </r>
       <r>     8.0779    15.5663   149.2543 </r>
       <r>     8.2713    12.5443   151.6836 </r>
       <r>     8.4648    10.9255   153.7987 </r>
       <r>     8.6583    13.5854   156.4272 </r>
       <r>     8.8518    15.4925   159.4249 </r>
       <r>     9.0453    19.8953   163.2742 </r>
       <r>     9.2387    18.1086   166.7806 </r>
       <r>     9.4322    19.1180   170.4862 </r>
       <r>     9.6257    14.3700   173.2666 </r>
       <r>     9.8192    14.0973   175.9949 </r>
       <r>    10.0126     0.0000   176.0000 </r>
       <r>    10.2061     0.0000   176.0000 </r>
       <r>    10.3996     0.0000   176.0000 </r>
       <r>    10.5931     0.0000   176.0000 </r>
       <r>    10.7866     0.0000   176.0000 </r>
       <r>    10.9800     0.0000   176.0000 </r>
       <r>    11.1735     0.0000   176.0000 </r>
       <r>    11.3670     0.0000   176.0000 </r>
       <r>    11.5605     0.0000   176.0000 </r>
       <r>    11.7539     0.0000   176.0000 </r>
       <r>    11.9474     0.0000   176.0000 </r>
       <r>    12.1409     0.0000   176.0000 </r>
       <r>    12.3344     0.0000   176.0000 </r>
       <r>    12.5279     0.0000   176.0000 </r>
      </set>
      <set comment="spin 2">
       <r>   -45.5154     0.0000     0.0000 </r>
       <r>   -45.3220     0.0000     0.0000 </r>
       <r>   -45.1285     0.0000     0.0000 </r>
       <r>   -44.9350     0.0000     0.0000 </r>
       <r>   -44.7415     0.0000     0.0000 </r>
       <r>   -44.5481     0.0000     0.0000 </r>
       <r>   -44.3546     0.0000     0.0000 </r>
       <r>   -44.1611     0.0000     0.0000 </r>
       <r>   -43.9676     0.0000     0.0000 </r>
       <r>   -43.7741     0.0000     0.0000 </r>
       <r>   -43.5807     0.0000     0.0000 </r>
       <r>   -43.3872     0.0000     0.0000 </r>
       <r>   -43.1937     0.0000     0.0000 </r>
       <r>   -43.0002     0.0000     0.0000 </r>
       <r>   -42.8068    18.6597     3.6102 </r>
       <r>   -42.6133    31.2056     9.6488 </r>
       <r>   -42.4198    51.1577    19.5466 </r>
       <r>   -42.2263     7.4789    21.0077 </r>
       <r>   -42.0328    15.4191    23.9910 </r>
       <r>   -41.8394     0.0000    24.0000 </r>
       <r>   -41.6459     0.0000    24.0000 </r>
       <r>   -41.4524     0.0000    24.0000 </r>
       <r>   -41.2589     0.0000    24.0000 </r>
       <r>   -41.0655     0.0000    24.0000 </r>
       <r>   -40.8720     0.0000    24.0000 </r>
       <r>   -40.6785     0.0000    24.0000 </r>
       <r>   -40.4850     0.0000    24.0000 </r>
       <r>   -40.2915     0.0000    24.0000 </r>
       <r>   -40.0981     0.0000    24.0000 </r>
       <r>   -39.9046     0.0000    24.0000 </r>
       <r>   -39.7111     0.0000    24.0000 </r>
       <r>   -39.5176     0.0000    24.0000 </r>
       <r>   -39.3242     0.0000    24.0000 </r>
       <r>   -39.1307     0.0000    24.0000 </r>
       <r>   -38.9372     0.0000    24.0000 </r>
       <r>   -38.7437     0.0000    24.0000 </r>
       <r>   -38.5502     0.0000    24.0000 </r>
       <r>   -38.3568     0.0000    24.0000 </r>
       <r>   -38.1633     0.0000    24.0000 </r>
       <r>   -37.9698     0.0000    24.0000 </r>
       <r>   -37.7763     0.0000    24.0000 </r>
       <r>   -37.5829     0.0000    24.0000 </r>
       <r>   -37.3894     0.0000    24.0000 </r>
       <r>   -37.1959     0.0000    24.0000 </r>
       <r>   -37.0024     0.0000    24.0000 </r>
       <r>   -36.8089     0.0000    24.0000 </r>
       <r>   -36.6155     0.0000    24.0000 </r>
       <r>   -36.4220     0.0000    24.0000 </r>
       <r>   -36.2285     0.0000    24.0000 </r>
       <r>   -36.0350     0.0000    24.0000 </r>
       <r>   -35.8416     0.0000    24.0000 </r>
       <r>   -35.6481     0.0000    24.0000 </r>
       <r>   -35.4546     0.0000    24.0000 </r>
       <r>   -35.2611     0.0000    24.0000 </r>
       <r>   -35.0676     0.0000    24.0000 </r>
       <r>   -34.8742     0.0000    24.0000 </r>
       <r>   -34.6807     0.0000    24.0000 </r>
       <r>   -34.4872     0.0000    24.0000 </r>
       <r>   -34.2937     0.0000    24.0000 </r>
       <r>   -34.1003     0.0000    24.0000 </r>
       <r>   -33.9068     0.0000    24.0000 </r>
       <r>   -33.7133     0.0000    24.0000 </r>
       <r>   -33.5198     0.0000    24.0000 </r>
       <r>   -33.3263     0.0000    24.0000 </r>
       <r>   -33.1329     0.0000    24.0000 </r>
       <r>   -32.9394     0.0000    24.0000 </r>
       <r>   -32.7459     0.0000    24.0000 </r>
       <r>   -32.5524     0.0000    24.0000 </r>
       <r>   -32.3590     0.0000    24.0000 </r>
       <r>   -32.1655     0.0000    24.0000 </r>
       <r>   -31.9720     0.0000    24.0000 </r>
       <r>   -31.7785     0.0000    24.0000 </r>
       <r>   -31.5850     0.0000    24.0000 </r>
       <r>   -31.3916     0.0000    24.0000 </r>
       <r>   -31.1981     0.0000    24.0000 </r>
       <r>   -31.0046     0.0000    24.0000 </r>
       <r>   -30.8111     0.0000    24.0000 </r>
       <r>   -30.6177     0.0000    24.0000 </r>
       <r>   -30.4242     0.0000    24.0000 </r>
       <r>   -30.2307     0.0000    24.0000 </r>
       <r>   -30.0372     0.0000    24.0000 </r>
       <r>   -29.8438     0.0000    24.0000 </r>
       <r>   -29.6503     0.0000    24.0000 </r>
       <r>   -29.4568     0.0000    24.0000 </r>
       <r>   -29.2633     0.0000    24.0000 </r>
       <r>   -29.0698     0.0000    24.0000 </r>
       <r>   -28.8764     0.0000    24.0000 </r>
       <r>   -28.6829     0.0000    24.0000 </r>
       <r>   -28.4894     0.0000    24.0000 </r>
       <r>   -28.2959     0.0000    24.0000 </r>
       <r>   -28.1025     0.0000    24.0000 </r>
       <r>   -27.9090     0.0000    24.0000 </r>
       <r>   -27.7155     0.0000    24.0000 </r>
       <r>   -27.5220     0.0000    24.0000 </r>
       <r>   -27.3285     0.0000    24.0000 </r>
       <r>   -27.1351     0.0000    24.0000 </r>
       <r>   -26.9416     0.0000    24.0000 </r>
       <r>   -26.7481     0.0000    24.0000 </r>
       <r>   -26.5546     0.0000    24.0000 </r>
       <r>   -26.3612     0.0000    24.0000 </r>
       <r>   -26.1677     0.0000    24.0000 </r>
       <r>   -25.9742     0.0000    24.0000 </r>
       <r>   -25.7807     0.0000    24.0000 </r>
       <r>   -25.5872     0.0000    24.0000 </r>
       <r>   -25.3938     0.0000    24.0000 </r>
       <r>   -25.2003     0.0000    24.0000 </r>
       <r>   -25.0068     0.0000    24.0000 </r>
       <r>   -24.8133     0.0000    24.0000 </r>
       <r>   -24.6199     0.0000    24.0000 </r>
       <r>   -24.4264     0.0000    24.0000 </r>
       <r>   -24.2329     0.0000    24.0000 </r>
       <r>   -24.0394     0.0000    24.0000 </r>
       <r>   -23.8459     0.0000    24.0000 </r>
       <r>   -23.6525     0.0000    24.0000 </r>
       <r>   -23.4590     0.0000    24.0000 </r>
       <r>   -23.2655     0.0000    24.0000 </r>
       <r>   -23.0720     0.0000    24.0000 </r>
       <r>   -22.8786     0.0000    24.0000 </r>
       <r>   -22.6851     0.0000    24.0000 </r>
       <r>   -22.4916     0.0000    24.0000 </r>
       <r>   -22.2981     0.0000    24.0000 </r>
       <r>   -22.1046     0.0000    24.0000 </r>
       <r>   -21.9112     0.0000    24.0000 </r>
       <r>   -21.7177     0.0000    24.0000 </r>
       <r>   -21.5242     0.0000    24.0000 </r>
       <r>   -21.3307     0.0000    24.0000 </r>
       <r>   -21.1373     0.0000    24.0000 </r>
       <r>   -20.9438     0.0000    24.0000 </r>
       <r>   -20.7503     0.0000    24.0000 </r>
       <r>   -20.5568     0.0000    24.0000 </r>
       <r>   -20.3633     0.0000    24.0000 </r>
       <r>   -20.1699     0.0000    24.0000 </r>
       <r>   -19.9764     0.0000    24.0000 </r>
       <r>   -19.7829     0.0000    24.0000 </r>
       <r>   -19.5894     0.0000    24.0000 </r>
       <r>   -19.3960     0.0000    24.0000 </r>
       <r>   -19.2025     0.0000    24.0000 </r>
       <r>   -19.0090     0.0000    24.0000 </r>
       <r>   -18.8155     0.0000    24.0000 </r>
       <r>   -18.6220     0.0000    24.0000 </r>
       <r>   -18.4286     0.0000    24.0000 </r>
       <r>   -18.2351     0.0000    24.0000 </r>
       <r>   -18.0416     0.0000    24.0000 </r>
       <r>   -17.8481     0.0000    24.0000 </r>
       <r>   -17.6547     0.0000    24.0000 </r>
       <r>   -17.4612     0.0000    24.0000 </r>
       <r>   -17.2677     0.0000    24.0000 </r>
       <r>   -17.0742     0.0000    24.0000 </r>
       <r>   -16.8807     0.0000    24.0000 </r>
       <r>   -16.6873     0.0000    24.0000 </r>
       <r>   -16.4938     0.0000    24.0000 </r>
       <r>   -16.3003     0.0000    24.0000 </r>
       <r>   -16.1068     0.0000    24.0000 </r>
       <r>   -15.9134     0.0000    24.0000 </r>
       <r>   -15.7199     0.0000    24.0000 </r>
       <r>   -15.5264     0.0000    24.0000 </r>
       <r>   -15.3329     0.0000    24.0000 </r>
       <r>   -15.1394     0.0000    24.0000 </r>
       <r>   -14.9460     0.0000    24.0000 </r>
       <r>   -14.7525     0.0000    24.0000 </r>
       <r>   -14.5590     0.0000    24.0000 </r>
       <r>   -14.3655     0.0000    24.0000 </r>
       <r>   -14.1721     0.0000    24.0000 </r>
       <r>   -13.9786     0.0000    24.0000 </r>
       <r>   -13.7851     0.0000    24.0000 </r>
       <r>   -13.5916     0.0000    24.0000 </r>
       <r>   -13.3982     0.0000    24.0000 </r>
       <r>   -13.2047     4.0399    24.7816 </r>
       <r>   -13.0112    16.6299    27.9991 </r>
       <r>   -12.8177     0.0060    28.0012 </r>
       <r>   -12.6242    15.4884    30.9978 </r>
       <r>   -12.4308     4.2770    31.8275 </r>
       <r>   -12.2373     0.8916    32.0000 </r>
       <r>   -12.0438     0.0000    32.0000 </r>
       <r>   -11.8503     0.0000    32.0000 </r>
       <r>   -11.6569     0.0000    32.0000 </r>
       <r>   -11.4634     0.0000    32.0000 </r>
       <r>   -11.2699     0.0000    32.0000 </r>
       <r>   -11.0764     0.0000    32.0000 </r>
       <r>   -10.8829     0.0000    32.0000 </r>
       <r>   -10.6895     0.0000    32.0000 </r>
       <r>   -10.4960     0.0004    32.0001 </r>
       <r>   -10.3025    15.5204    35.0029 </r>
       <r>   -10.1090    26.1920    40.0787 </r>
       <r>    -9.9156    20.1843    43.9997 </r>
       <r>    -9.7221     0.0000    44.0000 </r>
       <r>    -9.5286     0.0000    44.0000 </r>
       <r>    -9.3351     0.0000    44.0000 </r>
       <r>    -9.1416     0.0000    44.0000 </r>
       <r>    -8.9482     0.0000    44.0000 </r>
       <r>    -8.7547     2.2836    44.4418 </r>
       <r>    -8.5612    13.2095    46.9976 </r>
       <r>    -8.3677     0.0000    47.0000 </r>
       <r>    -8.1743     0.0000    47.0000 </r>
       <r>    -7.9808     0.0003    47.0001 </r>
       <r>    -7.7873     5.1682    48.0000 </r>
       <r>    -7.5938     0.0000    48.0000 </r>
       <r>    -7.4003     0.0000    48.0000 </r>
       <r>    -7.2069     0.0000    48.0000 </r>
       <r>    -7.0134     0.0000    48.0000 </r>
       <r>    -6.8199     0.0000    48.0000 </r>
       <r>    -6.6264     0.0000    48.0000 </r>
       <r>    -6.4330     0.0000    48.0000 </r>
       <r>    -6.2395     0.2047    48.0396 </r>
       <r>    -6.0460     4.9639    49.0000 </r>
       <r>    -5.8525     1.1527    49.2230 </r>
       <r>    -5.6590    14.3250    51.9946 </r>
       <r>    -5.4656     0.0000    52.0000 </r>
       <r>    -5.2721     0.0000    52.0000 </r>
       <r>    -5.0786     0.0000    52.0000 </r>
       <r>    -4.8851     0.0000    52.0000 </r>
       <r>    -4.6917     0.0000    52.0000 </r>
       <r>    -4.4982     0.0000    52.0000 </r>
       <r>    -4.3047     0.0000    52.0000 </r>
       <r>    -4.1112     0.0000    52.0000 </r>
       <r>    -3.9177     0.0000    52.0000 </r>
       <r>    -3.7243     0.0000    52.0000 </r>
       <r>    -3.5308     0.0000    52.0000 </r>
       <r>    -3.3373     3.4972    52.6766 </r>
       <r>    -3.1438    12.0084    55.0000 </r>
       <r>    -2.9504     4.1670    55.8062 </r>
       <r>    -2.7569    11.1914    57.9715 </r>
       <r>    -2.5634    15.4308    60.9618 </r>
       <r>    -2.3699    15.6478    63.9911 </r>
       <r>    -2.1764     0.0460    64.0000 </r>
       <r>    -1.9830     0.0000    64.0000 </r>
       <r>    -1.7895     0.0253    64.0049 </r>
       <r>    -1.5960    11.5554    66.2406 </r>
       <r>    -1.4025    15.4799    69.2356 </r>
       <r>    -1.2091    17.6853    72.6588 </r>
       <r>    -1.0156    13.4783    75.2665 </r>
       <r>    -0.8221     3.7904    76.0000 </r>
       <r>    -0.6286     9.1399    77.7684 </r>
       <r>    -0.4351    13.7751    80.4348 </r>
       <r>    -0.2417    12.6470    82.8828 </r>
       <r>    -0.0482    25.3276    87.7831 </r>
       <r>     0.1453    25.8435    92.7865 </r>
       <r>     0.3388    16.5782    95.9945 </r>
       <r>     0.5322     1.2212    96.2363 </r>
       <r>     0.7257    19.3815    99.9862 </r>
       <r>     0.9192    20.9597   104.0422 </r>
       <r>     1.1127    26.2862   109.1362 </r>
       <r>     1.3061    23.4779   113.6797 </r>
       <r>     1.4996    12.1117   116.0256 </r>
       <r>     1.6931    14.6178   118.8539 </r>
       <r>     1.8866     1.6200   119.1674 </r>
       <r>     2.0801     4.3034   120.0000 </r>
       <r>     2.2735     0.0000   120.0000 </r>
       <r>     2.4670     0.0000   120.0000 </r>
       <r>     2.6605     0.0000   120.0000 </r>
       <r>     2.8540     0.0000   120.0000 </r>
       <r>     3.0474     0.0000   120.0000 </r>
       <r>     3.2409     0.0000   120.0000 </r>
       <r>     3.4344     0.0000   120.0000 </r>
       <r>     3.6279     0.0000   120.0000 </r>
       <r>     3.8214     0.0000   120.0000 </r>
       <r>     4.0148     0.0000   120.0000 </r>
       <r>     4.2083     0.0000   120.0000 </r>
       <r>     4.4018     5.1685   121.0000 </r>
       <r>     4.5953     0.0000   121.0000 </r>
       <r>     4.7887     0.0000   121.0000 </r>
       <r>     4.9822     0.0003   121.0001 </r>
       <r>     5.1757     9.2515   122.7900 </r>
       <r>     5.3692     6.2528   124.0000 </r>
       <r>     5.5627     0.0000   124.0000 </r>
       <r>     5.7561     2.1863   124.4230 </r>
       <r>     5.9496    18.4984   128.0022 </r>
       <r>     6.1431     7.3106   129.4203 </r>
       <r>     6.3366     7.1962   130.8126 </r>
       <r>     6.5300    11.2671   132.9951 </r>
       <r>     6.7235     9.0168   134.7447 </r>
       <r>     6.9170    11.1817   136.9084 </r>
       <r>     7.1105     2.1665   137.3315 </r>
       <r>     7.3040     8.9148   139.0563 </r>
       <r>     7.4974    10.3314   141.0554 </r>
       <r>     7.6909    15.2652   144.0093 </r>
       <r>     7.8844    11.5271   146.2396 </r>
       <r>     8.0779    15.5675   149.2548 </r>
       <r>     8.2713    12.5476   151.6846 </r>
       <r>     8.4648    10.9561   153.8057 </r>
       <r>     8.6583    13.5802   156.4332 </r>
       <r>     8.8518    15.5920   159.4501 </r>
       <r>     9.0453    19.5500   163.2326 </r>
       <r>     9.2387    18.1855   166.7540 </r>
       <r>     9.4322    18.1443   170.2723 </r>
       <r>     9.6257    13.3141   172.8506 </r>
       <r>     9.8192    12.7659   175.3208 </r>
       <r>    10.0126     3.5107   176.0000 </r>
       <r>    10.2061     0.0000   176.0000 </r>
       <r>    10.3996     0.0000   176.0000 </r>
       <r>    10.5931     0.0000   176.0000 </r>
       <r>    10.7866     0.0000   176.0000 </r>
       <r>    10.9800     0.0000   176.0000 </r>
       <r>    11.1735     0.0000   176.0000 </r>
       <r>    11.3670     0.0000   176.0000 </r>
       <r>    11.5605     0.0000   176.0000 </r>
       <r>    11.7539     0.0000   176.0000 </r>
       <r>    11.9474     0.0000   176.0000 </r>
       <r>    12.1409     0.0000   176.0000 </r>
       <r>    12.3344     0.0000   176.0000 </r>
       <r>    12.5279     0.0000   176.0000 </r>
      </set>
     </set>
    </array>
   </total>
  </dos>
 </calculation>
 <structure name="finalpos" >
  <crystal>
   <varray name="basis" >
    <v>       9.72364455       0.00000000       0.00000000 </v>
    <v>       0.00000000       9.72364455       0.00000000 </v>
    <v>       0.00000000       0.00000000       9.72364455 </v>
   </varray>
   <i name="volume">    919.36342785 </i>
   <varray name="rec_basis" >
    <v>       0.10284210       0.00000000       0.00000000 </v>
    <v>       0.00000000       0.10284210       0.00000000 </v>
    <v>       0.00000000       0.00000000       0.10284210 </v>
   </varray>
  </crystal>
  <varray name="positions" >
   <v>       0.97907504       0.21590456       0.21506876 </v>
   <v>       0.97907504       0.71506876       0.71590456 </v>
   <v>       0.03173069       0.26100412       0.76100412 </v>
   <v>       0.27969664       0.41181400       0.91181400 </v>
   <v>       0.21585510       0.09387325       0.93490032 </v>
   <v>       0.24099064       0.74583386       0.03397036 </v>
   <v>       0.78787699       0.20089999       0.02639275 </v>
   <v>       0.74986626       0.73809461       0.99965056 </v>
   <v>       0.07748468       0.93133711       0.22102444 </v>
   <v>       0.34659232       0.99705648       0.68493332 </v>
   <v>       0.82459666       0.97331628       0.81770760 </v>
   <v>       0.68566120       0.05011573       0.32621871 </v>
   <v>       0.07748468       0.72102444       0.43133711 </v>
   <v>       0.34659232       0.18493332       0.49705648 </v>
   <v>       0.68566120       0.82621871       0.55011573 </v>
   <v>       0.82459666       0.31770760       0.47331628 </v>
   <v>       0.21585510       0.43490032       0.59387325 </v>
   <v>       0.24099064       0.53397036       0.24583386 </v>
   <v>       0.74986626       0.49965056       0.23809461 </v>
   <v>       0.78787699       0.52639275       0.70089999 </v>
   <v>       0.49818614       0.30400294       0.80400294 </v>
   <v>       0.45092654       0.82405569       0.32405569 </v>
   <v>       0.52093737       0.31754083       0.17621386 </v>
   <v>       0.52093737       0.67621386       0.81754083 </v>
   <v>       0.50288643       0.51280719       0.50236080 </v>
   <v>       0.50288643       0.00236080       0.01280719 </v>
   <v>       0.00279335       0.50283389       0.00283389 </v>
   <v>       0.00296824       0.01273092       0.51273092 </v>
   <v>       0.12431460       0.88658434       0.62987910 </v>
   <v>       0.12431460       0.12987910       0.38658434 </v>
   <v>       0.88049746       0.88995920       0.38995920 </v>
   <v>       0.87425462       0.13110591       0.63110591 </v>
   <v>       0.91465991       0.63701594       0.13701594 </v>
   <v>       0.86515021       0.38953526       0.88953526 </v>
   <v>       0.13140564       0.60503609       0.86860518 </v>
   <v>       0.13140564       0.36860518       0.10503609 </v>
   <v>       0.62448979       0.10882415       0.87586367 </v>
   <v>       0.62210821       0.88705539       0.14201905 </v>
   <v>       0.37551411       0.12587141       0.12262977 </v>
   <v>       0.37916435       0.87666724       0.89181987 </v>
   <v>       0.62210821       0.64201905       0.38705539 </v>
   <v>       0.62448979       0.37586367       0.60882415 </v>
   <v>       0.37551411       0.62262977       0.62587141 </v>
   <v>       0.37916435       0.39181987       0.37666724 </v>
   <v>       0.74926728       0.75107070       0.76651231 </v>
   <v>       0.74926728       0.26651231       0.25107070 </v>
   <v>       0.23617133       0.76213038       0.26213038 </v>
   <v>       0.26968927       0.23655061       0.73655061 </v>
   <v>       0.98748463       0.03568045       0.01131950 </v>
   <v>       0.98748463       0.51131950       0.53568045 </v>
   <v>       0.50740213       0.99720771       0.49720771 </v>
   <v>       0.49777479       0.48419680       0.98419680 </v>
  </varray>
 </structure>
</modeling>
