unknown system                          
           1
     9.723645    0.000000    0.000000
     0.000000    9.723645    0.000000
     0.000000    0.000000    9.723645
   Li   P    S    Cl
    24     4    20     4
Direct configuration=     1
   0.97907562  0.21590625  0.21506983
   0.97907562  0.71506983  0.71590625
   0.03173161  0.26100450  0.76100450
   0.27969483  0.41181348  0.91181348
   0.21585518  0.09387168  0.93489850
   0.24099359  0.74583407  0.03397039
   0.78787780  0.20090173  0.02639307
   0.74986580  0.73809645  0.99965026
   0.07748441  0.93133734  0.22102453
   0.34659159  0.99705597  0.68493237
   0.82459532  0.97331724  0.81770695
   0.68566161  0.05011540  0.32621768
   0.07748441  0.72102453  0.43133734
   0.34659159  0.18493237  0.49705597
   0.68566161  0.82621768  0.55011540
   0.82459532  0.31770695  0.47331724
   0.21585518  0.43489850  0.59387168
   0.24099359  0.53397039  0.24583407
   0.74986580  0.49965026  0.23809645
   0.78787780  0.52639307  0.70090173
   0.49818509  0.30400185  0.80400185
   0.45092503  0.82405511  0.32405511
   0.52093793  0.31753940  0.17621288
   0.52093793  0.67621288  0.81753940
   0.50288648  0.51280668  0.50236096
   0.50288648  0.00236096  0.01280668
   0.00279325  0.50283447  0.00283447
   0.00296837  0.01273114  0.51273114
   0.12431482  0.88658394  0.62987896
   0.12431482  0.12987896  0.38658394
   0.88049699  0.88995960  0.38995960
   0.87425583  0.13110687  0.63110687
   0.91465686  0.63701595  0.13701595
   0.86515168  0.38953495  0.88953495
   0.13140557  0.60503796  0.86860691
   0.13140557  0.36860691  0.10503796
   0.62449091  0.10882545  0.87586448
   0.62210737  0.88705520  0.14201929
   0.37551321  0.12587192  0.12262766
   0.37916576  0.87666686  0.89181832
   0.62210737  0.64201929  0.38705520
   0.62449091  0.37586448  0.60882545
   0.37551321  0.62262766  0.62587192
   0.37916576  0.39181832  0.37666686
   0.74926760  0.75107111  0.76651227
   0.74926760  0.26651227  0.25107111
   0.23616997  0.76212988  0.26212988
   0.26968905  0.23655006  0.73655006
   0.98748521  0.03568334  0.01132046
   0.98748521  0.51132046  0.53568334
   0.50740127  0.99720643  0.49720643
   0.49777265  0.48419490  0.98419490
Direct configuration=     2
   0.97907504  0.21590456  0.21506876
   0.97907504  0.71506876  0.71590456
   0.03173069  0.26100412  0.76100412
   0.27969664  0.41181400  0.91181400
   0.21585510  0.09387325  0.93490032
   0.24099064  0.74583386  0.03397036
   0.78787699  0.20089999  0.02639275
   0.74986626  0.73809461  0.99965056
   0.07748468  0.93133711  0.22102444
   0.34659232  0.99705648  0.68493332
   0.82459666  0.97331628  0.81770760
   0.68566120  0.05011573  0.32621871
   0.07748468  0.72102444  0.43133711
   0.34659232  0.18493332  0.49705648
   0.68566120  0.82621871  0.55011573
   0.82459666  0.31770760  0.47331628
   0.21585510  0.43490032  0.59387325
   0.24099064  0.53397036  0.24583386
   0.74986626  0.49965056  0.23809461
   0.78787699  0.52639275  0.70089999
   0.49818614  0.30400294  0.80400294
   0.45092654  0.82405569  0.32405569
   0.52093737  0.31754083  0.17621386
   0.52093737  0.67621386  0.81754083
   0.50288643  0.51280719  0.50236080
   0.50288643  0.00236080  0.01280719
   0.00279335  0.50283389  0.00283389
   0.00296824  0.01273092  0.51273092
   0.12431460  0.88658434  0.62987910
   0.12431460  0.12987910  0.38658434
   0.88049746  0.88995920  0.38995920
   0.87425462  0.13110591  0.63110591
   0.91465991  0.63701594  0.13701594
   0.86515021  0.38953526  0.88953526
   0.13140564  0.60503609  0.86860518
   0.13140564  0.36860518  0.10503609
   0.62448979  0.10882415  0.87586367
   0.62210821  0.88705539  0.14201905
   0.37551411  0.12587141  0.12262977
   0.37916435  0.87666724  0.89181987
   0.62210821  0.64201905  0.38705539
   0.62448979  0.37586367  0.60882415
   0.37551411  0.62262977  0.62587141
   0.37916435  0.39181987  0.37666724
   0.74926728  0.75107070  0.76651231
   0.74926728  0.26651231  0.25107070
   0.23617133  0.76213038  0.26213038
   0.26968927  0.23655061  0.73655061
   0.98748463  0.03568045  0.01131950
   0.98748463  0.51131950  0.53568045
   0.50740213  0.99720771  0.49720771
   0.49777479  0.48419680  0.98419680
