  52  52   0   4
  0.1724224E+02  0.9642707E-09  0.9642707E-09  0.9642707E-09  0.2000000E-15
  1.000000000000000E-004
  CAR 
 unknown system                          
     12.64981767    -45.44526134  301      2.60421026      1.00000000
    -45.445  0.0000E+00  0.0000E+00  0.0000E+00  0.0000E+00
    -45.252  0.0000E+00  0.0000E+00  0.0000E+00  0.0000E+00
    -45.058  0.0000E+00  0.0000E+00  0.0000E+00  0.0000E+00
    -44.864  0.0000E+00  0.0000E+00  0.0000E+00  0.0000E+00
    -44.671  0.0000E+00  0.0000E+00  0.0000E+00  0.0000E+00
    -44.477  0.0000E+00  0.0000E+00  0.0000E+00  0.0000E+00
    -44.283  0.0000E+00  0.0000E+00  0.0000E+00  0.0000E+00
    -44.090  0.0000E+00  0.0000E+00  0.0000E+00  0.0000E+00
    -43.896  0.0000E+00  0.0000E+00  0.0000E+00  0.0000E+00
    -43.702  0.0000E+00  0.0000E+00  0.0000E+00  0.0000E+00
    -43.509  0.0000E+00  0.0000E+00  0.0000E+00  0.0000E+00
    -43.315  0.0000E+00  0.0000E+00  0.0000E+00  0.0000E+00
    -43.121  0.0000E+00  0.0000E+00  0.0000E+00  0.0000E+00
    -42.928  0.1620E-10  0.1620E-10  0.3138E-11  0.3138E-11
    -42.734  0.5162E-02  0.5162E-02  0.9995E-03  0.9995E-03
    -42.541  0.7413E-02  0.7413E-02  0.2436E-02  0.2436E-02
    -42.347  0.5740E-01  0.5740E-01  0.1355E-01  0.1355E-01
    -42.153  0.3383E-01  0.3383E-01  0.2011E-01  0.2011E-01
    -41.960  0.1977E-01  0.1977E-01  0.2393E-01  0.2393E-01
    -41.766  0.3396E-03  0.3396E-03  0.2400E-01  0.2400E-01
    -41.572  0.0000E+00  0.0000E+00  0.2400E-01  0.2400E-01
    -41.379  0.0000E+00  0.0000E+00  0.2400E-01  0.2400E-01
    -41.185  0.0000E+00  0.0000E+00  0.2400E-01  0.2400E-01
    -40.991  0.0000E+00  0.0000E+00  0.2400E-01  0.2400E-01
    -40.798  0.0000E+00  0.0000E+00  0.2400E-01  0.2400E-01
    -40.604  0.0000E+00  0.0000E+00  0.2400E-01  0.2400E-01
    -40.410  0.0000E+00  0.0000E+00  0.2400E-01  0.2400E-01
    -40.217  0.0000E+00  0.0000E+00  0.2400E-01  0.2400E-01
    -40.023  0.0000E+00  0.0000E+00  0.2400E-01  0.2400E-01
    -39.829  0.0000E+00  0.0000E+00  0.2400E-01  0.2400E-01
    -39.636  0.0000E+00  0.0000E+00  0.2400E-01  0.2400E-01
    -39.442  0.0000E+00  0.0000E+00  0.2400E-01  0.2400E-01
    -39.248  0.0000E+00  0.0000E+00  0.2400E-01  0.2400E-01
    -39.055  0.0000E+00  0.0000E+00  0.2400E-01  0.2400E-01
    -38.861  0.0000E+00  0.0000E+00  0.2400E-01  0.2400E-01
    -38.668  0.0000E+00  0.0000E+00  0.2400E-01  0.2400E-01
    -38.474  0.0000E+00  0.0000E+00  0.2400E-01  0.2400E-01
    -38.280  0.0000E+00  0.0000E+00  0.2400E-01  0.2400E-01
    -38.087  0.0000E+00  0.0000E+00  0.2400E-01  0.2400E-01
    -37.893  0.0000E+00  0.0000E+00  0.2400E-01  0.2400E-01
    -37.699  0.0000E+00  0.0000E+00  0.2400E-01  0.2400E-01
    -37.506  0.0000E+00  0.0000E+00  0.2400E-01  0.2400E-01
    -37.312  0.0000E+00  0.0000E+00  0.2400E-01  0.2400E-01
    -37.118  0.0000E+00  0.0000E+00  0.2400E-01  0.2400E-01
    -36.925  0.0000E+00  0.0000E+00  0.2400E-01  0.2400E-01
    -36.731  0.0000E+00  0.0000E+00  0.2400E-01  0.2400E-01
    -36.537  0.0000E+00  0.0000E+00  0.2400E-01  0.2400E-01
    -36.344  0.0000E+00  0.0000E+00  0.2400E-01  0.2400E-01
    -36.150  0.0000E+00  0.0000E+00  0.2400E-01  0.2400E-01
    -35.956  0.0000E+00  0.0000E+00  0.2400E-01  0.2400E-01
    -35.763  0.0000E+00  0.0000E+00  0.2400E-01  0.2400E-01
    -35.569  0.0000E+00  0.0000E+00  0.2400E-01  0.2400E-01
    -35.375  0.0000E+00  0.0000E+00  0.2400E-01  0.2400E-01
    -35.182  0.0000E+00  0.0000E+00  0.2400E-01  0.2400E-01
    -34.988  0.0000E+00  0.0000E+00  0.2400E-01  0.2400E-01
    -34.794  0.0000E+00  0.0000E+00  0.2400E-01  0.2400E-01
    -34.601  0.0000E+00  0.0000E+00  0.2400E-01  0.2400E-01
    -34.407  0.0000E+00  0.0000E+00  0.2400E-01  0.2400E-01
    -34.214  0.0000E+00  0.0000E+00  0.2400E-01  0.2400E-01
    -34.020  0.0000E+00  0.0000E+00  0.2400E-01  0.2400E-01
    -33.826  0.0000E+00  0.0000E+00  0.2400E-01  0.2400E-01
    -33.633  0.0000E+00  0.0000E+00  0.2400E-01  0.2400E-01
    -33.439  0.0000E+00  0.0000E+00  0.2400E-01  0.2400E-01
    -33.245  0.0000E+00  0.0000E+00  0.2400E-01  0.2400E-01
    -33.052  0.0000E+00  0.0000E+00  0.2400E-01  0.2400E-01
    -32.858  0.0000E+00  0.0000E+00  0.2400E-01  0.2400E-01
    -32.664  0.0000E+00  0.0000E+00  0.2400E-01  0.2400E-01
    -32.471  0.0000E+00  0.0000E+00  0.2400E-01  0.2400E-01
    -32.277  0.0000E+00  0.0000E+00  0.2400E-01  0.2400E-01
    -32.083  0.0000E+00  0.0000E+00  0.2400E-01  0.2400E-01
    -31.890  0.0000E+00  0.0000E+00  0.2400E-01  0.2400E-01
    -31.696  0.0000E+00  0.0000E+00  0.2400E-01  0.2400E-01
    -31.502  0.0000E+00  0.0000E+00  0.2400E-01  0.2400E-01
    -31.309  0.0000E+00  0.0000E+00  0.2400E-01  0.2400E-01
    -31.115  0.0000E+00  0.0000E+00  0.2400E-01  0.2400E-01
    -30.921  0.0000E+00  0.0000E+00  0.2400E-01  0.2400E-01
    -30.728  0.0000E+00  0.0000E+00  0.2400E-01  0.2400E-01
    -30.534  0.0000E+00  0.0000E+00  0.2400E-01  0.2400E-01
    -30.341  0.0000E+00  0.0000E+00  0.2400E-01  0.2400E-01
    -30.147  0.0000E+00  0.0000E+00  0.2400E-01  0.2400E-01
    -29.953  0.0000E+00  0.0000E+00  0.2400E-01  0.2400E-01
    -29.760  0.0000E+00  0.0000E+00  0.2400E-01  0.2400E-01
    -29.566  0.0000E+00  0.0000E+00  0.2400E-01  0.2400E-01
    -29.372  0.0000E+00  0.0000E+00  0.2400E-01  0.2400E-01
    -29.179  0.0000E+00  0.0000E+00  0.2400E-01  0.2400E-01
    -28.985  0.0000E+00  0.0000E+00  0.2400E-01  0.2400E-01
    -28.791  0.0000E+00  0.0000E+00  0.2400E-01  0.2400E-01
    -28.598  0.0000E+00  0.0000E+00  0.2400E-01  0.2400E-01
    -28.404  0.0000E+00  0.0000E+00  0.2400E-01  0.2400E-01
    -28.210  0.0000E+00  0.0000E+00  0.2400E-01  0.2400E-01
    -28.017  0.0000E+00  0.0000E+00  0.2400E-01  0.2400E-01
    -27.823  0.0000E+00  0.0000E+00  0.2400E-01  0.2400E-01
    -27.629  0.0000E+00  0.0000E+00  0.2400E-01  0.2400E-01
    -27.436  0.0000E+00  0.0000E+00  0.2400E-01  0.2400E-01
    -27.242  0.0000E+00  0.0000E+00  0.2400E-01  0.2400E-01
    -27.048  0.0000E+00  0.0000E+00  0.2400E-01  0.2400E-01
    -26.855  0.0000E+00  0.0000E+00  0.2400E-01  0.2400E-01
    -26.661  0.0000E+00  0.0000E+00  0.2400E-01  0.2400E-01
    -26.468  0.0000E+00  0.0000E+00  0.2400E-01  0.2400E-01
    -26.274  0.0000E+00  0.0000E+00  0.2400E-01  0.2400E-01
    -26.080  0.0000E+00  0.0000E+00  0.2400E-01  0.2400E-01
    -25.887  0.0000E+00  0.0000E+00  0.2400E-01  0.2400E-01
    -25.693  0.0000E+00  0.0000E+00  0.2400E-01  0.2400E-01
    -25.499  0.0000E+00  0.0000E+00  0.2400E-01  0.2400E-01
    -25.306  0.0000E+00  0.0000E+00  0.2400E-01  0.2400E-01
    -25.112  0.0000E+00  0.0000E+00  0.2400E-01  0.2400E-01
    -24.918  0.0000E+00  0.0000E+00  0.2400E-01  0.2400E-01
    -24.725  0.0000E+00  0.0000E+00  0.2400E-01  0.2400E-01
    -24.531  0.0000E+00  0.0000E+00  0.2400E-01  0.2400E-01
    -24.337  0.0000E+00  0.0000E+00  0.2400E-01  0.2400E-01
    -24.144  0.0000E+00  0.0000E+00  0.2400E-01  0.2400E-01
    -23.950  0.0000E+00  0.0000E+00  0.2400E-01  0.2400E-01
    -23.756  0.0000E+00  0.0000E+00  0.2400E-01  0.2400E-01
    -23.563  0.0000E+00  0.0000E+00  0.2400E-01  0.2400E-01
    -23.369  0.0000E+00  0.0000E+00  0.2400E-01  0.2400E-01
    -23.175  0.0000E+00  0.0000E+00  0.2400E-01  0.2400E-01
    -22.982  0.0000E+00  0.0000E+00  0.2400E-01  0.2400E-01
    -22.788  0.0000E+00  0.0000E+00  0.2400E-01  0.2400E-01
    -22.595  0.0000E+00  0.0000E+00  0.2400E-01  0.2400E-01
    -22.401  0.0000E+00  0.0000E+00  0.2400E-01  0.2400E-01
    -22.207  0.0000E+00  0.0000E+00  0.2400E-01  0.2400E-01
    -22.014  0.0000E+00  0.0000E+00  0.2400E-01  0.2400E-01
    -21.820  0.0000E+00  0.0000E+00  0.2400E-01  0.2400E-01
    -21.626  0.0000E+00  0.0000E+00  0.2400E-01  0.2400E-01
    -21.433  0.0000E+00  0.0000E+00  0.2400E-01  0.2400E-01
    -21.239  0.0000E+00  0.0000E+00  0.2400E-01  0.2400E-01
    -21.045  0.0000E+00  0.0000E+00  0.2400E-01  0.2400E-01
    -20.852  0.0000E+00  0.0000E+00  0.2400E-01  0.2400E-01
    -20.658  0.0000E+00  0.0000E+00  0.2400E-01  0.2400E-01
    -20.464  0.0000E+00  0.0000E+00  0.2400E-01  0.2400E-01
    -20.271  0.0000E+00  0.0000E+00  0.2400E-01  0.2400E-01
    -20.077  0.0000E+00  0.0000E+00  0.2400E-01  0.2400E-01
    -19.883  0.0000E+00  0.0000E+00  0.2400E-01  0.2400E-01
    -19.690  0.0000E+00  0.0000E+00  0.2400E-01  0.2400E-01
    -19.496  0.0000E+00  0.0000E+00  0.2400E-01  0.2400E-01
    -19.302  0.0000E+00  0.0000E+00  0.2400E-01  0.2400E-01
    -19.109  0.0000E+00  0.0000E+00  0.2400E-01  0.2400E-01
    -18.915  0.0000E+00  0.0000E+00  0.2400E-01  0.2400E-01
    -18.722  0.0000E+00  0.0000E+00  0.2400E-01  0.2400E-01
    -18.528  0.0000E+00  0.0000E+00  0.2400E-01  0.2400E-01
    -18.334  0.0000E+00  0.0000E+00  0.2400E-01  0.2400E-01
    -18.141  0.0000E+00  0.0000E+00  0.2400E-01  0.2400E-01
    -17.947  0.0000E+00  0.0000E+00  0.2400E-01  0.2400E-01
    -17.753  0.0000E+00  0.0000E+00  0.2400E-01  0.2400E-01
    -17.560  0.0000E+00  0.0000E+00  0.2400E-01  0.2400E-01
    -17.366  0.0000E+00  0.0000E+00  0.2400E-01  0.2400E-01
    -17.172  0.0000E+00  0.0000E+00  0.2400E-01  0.2400E-01
    -16.979  0.0000E+00  0.0000E+00  0.2400E-01  0.2400E-01
    -16.785  0.0000E+00  0.0000E+00  0.2400E-01  0.2400E-01
    -16.591  0.0000E+00  0.0000E+00  0.2400E-01  0.2400E-01
    -16.398  0.0000E+00  0.0000E+00  0.2400E-01  0.2400E-01
    -16.204  0.0000E+00  0.0000E+00  0.2400E-01  0.2400E-01
    -16.010  0.0000E+00  0.0000E+00  0.2400E-01  0.2400E-01
    -15.817  0.0000E+00  0.0000E+00  0.2400E-01  0.2400E-01
    -15.623  0.0000E+00  0.0000E+00  0.2400E-01  0.2400E-01
    -15.429  0.0000E+00  0.0000E+00  0.2400E-01  0.2400E-01
    -15.236  0.0000E+00  0.0000E+00  0.2400E-01  0.2400E-01
    -15.042  0.0000E+00  0.0000E+00  0.2400E-01  0.2400E-01
    -14.849  0.0000E+00  0.0000E+00  0.2400E-01  0.2400E-01
    -14.655  0.0000E+00  0.0000E+00  0.2400E-01  0.2400E-01
    -14.461  0.0000E+00  0.0000E+00  0.2400E-01  0.2400E-01
    -14.268  0.0000E+00  0.0000E+00  0.2400E-01  0.2400E-01
    -14.074  0.0000E+00  0.0000E+00  0.2400E-01  0.2400E-01
    -13.880  0.0000E+00  0.0000E+00  0.2400E-01  0.2400E-01
    -13.687  0.0000E+00  0.0000E+00  0.2400E-01  0.2400E-01
    -13.493  0.0000E+00  0.0000E+00  0.2400E-01  0.2400E-01
    -13.299  0.0000E+00  0.0000E+00  0.2400E-01  0.2400E-01
    -13.106  0.9901E-05  0.9901E-05  0.2400E-01  0.2400E-01
    -12.912  0.1504E-01  0.1504E-01  0.2692E-01  0.2692E-01
    -12.718  0.1043E-01  0.1043E-01  0.2894E-01  0.2894E-01
    -12.525  0.8536E-02  0.8536E-02  0.3059E-01  0.3059E-01
    -12.331  0.7280E-02  0.7280E-02  0.3200E-01  0.3200E-01
    -12.137  0.0000E+00  0.0000E+00  0.3200E-01  0.3200E-01
    -11.944  0.0000E+00  0.0000E+00  0.3200E-01  0.3200E-01
    -11.750  0.0000E+00  0.0000E+00  0.3200E-01  0.3200E-01
    -11.556  0.0000E+00  0.0000E+00  0.3200E-01  0.3200E-01
    -11.363  0.0000E+00  0.0000E+00  0.3200E-01  0.3200E-01
    -11.169  0.0000E+00  0.0000E+00  0.3200E-01  0.3200E-01
    -10.976  0.0000E+00  0.0000E+00  0.3200E-01  0.3200E-01
    -10.782  0.0000E+00  0.0000E+00  0.3200E-01  0.3200E-01
    -10.588  0.0000E+00  0.0000E+00  0.3200E-01  0.3200E-01
    -10.395  0.4635E-11  0.4635E-11  0.3200E-01  0.3200E-01
    -10.201  0.1085E-01  0.1085E-01  0.3410E-01  0.3410E-01
    -10.007  0.1547E-01  0.1547E-01  0.3710E-01  0.3710E-01
     -9.814  0.2529E-01  0.2529E-01  0.4200E-01  0.4200E-01
     -9.620  0.1035E-01  0.1035E-01  0.4400E-01  0.4400E-01
     -9.426  0.0000E+00  0.0000E+00  0.4400E-01  0.4400E-01
     -9.233  0.0000E+00  0.0000E+00  0.4400E-01  0.4400E-01
     -9.039  0.0000E+00  0.0000E+00  0.4400E-01  0.4400E-01
     -8.845  0.2893E-12  0.2893E-12  0.4400E-01  0.4400E-01
     -8.652  0.5145E-02  0.5145E-02  0.4500E-01  0.4500E-01
     -8.458  0.1514E-11  0.1514E-11  0.4500E-01  0.4500E-01
     -8.264  0.9155E-02  0.9155E-02  0.4677E-01  0.4677E-01
     -8.071  0.1165E-02  0.1165E-02  0.4700E-01  0.4700E-01
     -7.877  0.0000E+00  0.0000E+00  0.4700E-01  0.4700E-01
     -7.683  0.1276E-05  0.1276E-05  0.4700E-01  0.4700E-01
     -7.490  0.5163E-02  0.5163E-02  0.4800E-01  0.4800E-01
     -7.296  0.0000E+00  0.0000E+00  0.4800E-01  0.4800E-01
     -7.103  0.0000E+00  0.0000E+00  0.4800E-01  0.4800E-01
     -6.909  0.0000E+00  0.0000E+00  0.4800E-01  0.4800E-01
     -6.715  0.0000E+00  0.0000E+00  0.4800E-01  0.4800E-01
     -6.522  0.0000E+00  0.0000E+00  0.4800E-01  0.4800E-01
     -6.328  0.0000E+00  0.0000E+00  0.4800E-01  0.4800E-01
     -6.134  0.1727E-05  0.1727E-05  0.4800E-01  0.4800E-01
     -5.941  0.5162E-02  0.5162E-02  0.4900E-01  0.4900E-01
     -5.747  0.4636E-05  0.4636E-05  0.4900E-01  0.4900E-01
     -5.553  0.1029E-01  0.1029E-01  0.5099E-01  0.5099E-01
     -5.360  0.5164E-02  0.5164E-02  0.5200E-01  0.5200E-01
     -5.166  0.0000E+00  0.0000E+00  0.5200E-01  0.5200E-01
     -4.972  0.0000E+00  0.0000E+00  0.5200E-01  0.5200E-01
     -4.779  0.0000E+00  0.0000E+00  0.5200E-01  0.5200E-01
     -4.585  0.0000E+00  0.0000E+00  0.5200E-01  0.5200E-01
     -4.391  0.0000E+00  0.0000E+00  0.5200E-01  0.5200E-01
     -4.198  0.0000E+00  0.0000E+00  0.5200E-01  0.5200E-01
     -4.004  0.0000E+00  0.0000E+00  0.5200E-01  0.5200E-01
     -3.810  0.0000E+00  0.0000E+00  0.5200E-01  0.5200E-01
     -3.617  0.0000E+00  0.0000E+00  0.5200E-01  0.5200E-01
     -3.423  0.0000E+00  0.0000E+00  0.5200E-01  0.5200E-01
     -3.230  0.2473E-04  0.2473E-04  0.5200E-01  0.5200E-01
     -3.036  0.1547E-01  0.1547E-01  0.5500E-01  0.5500E-01
     -2.842  0.1485E-03  0.1485E-03  0.5503E-01  0.5503E-01
     -2.649  0.1118E-01  0.1118E-01  0.5719E-01  0.5719E-01
     -2.455  0.9187E-02  0.9187E-02  0.5897E-01  0.5897E-01
     -2.261  0.1705E-01  0.1705E-01  0.6227E-01  0.6227E-01
     -2.068  0.8899E-02  0.8899E-02  0.6400E-01  0.6400E-01
     -1.874  0.0000E+00  0.0000E+00  0.6400E-01  0.6400E-01
     -1.680  0.2573E-12  0.2573E-12  0.6400E-01  0.6400E-01
     -1.487  0.1146E-01  0.1146E-01  0.6622E-01  0.6622E-01
     -1.293  0.2039E-01  0.2039E-01  0.7017E-01  0.7017E-01
     -1.099  0.1864E-01  0.1864E-01  0.7378E-01  0.7378E-01
     -0.906  0.1138E-01  0.1138E-01  0.7600E-01  0.7600E-01
     -0.712  0.7672E-12  0.7671E-12  0.7600E-01  0.7600E-01
     -0.518  0.7395E-02  0.7395E-02  0.7743E-01  0.7743E-01
     -0.325  0.1192E-01  0.1192E-01  0.7974E-01  0.7974E-01
     -0.131  0.1271E-01  0.1271E-01  0.8220E-01  0.8220E-01
      0.063  0.2239E-01  0.2239E-01  0.8654E-01  0.8654E-01
      0.256  0.2426E-01  0.2426E-01  0.9125E-01  0.9125E-01
      0.450  0.1861E-01  0.1861E-01  0.9485E-01  0.9485E-01
      0.644  0.5921E-02  0.5921E-02  0.9600E-01  0.9600E-01
      0.837  0.9674E-02  0.9674E-02  0.9787E-01  0.9787E-01
      1.031  0.1902E-01  0.1902E-01  0.1016E+00  0.1016E+00
      1.224  0.2275E-01  0.2275E-01  0.1060E+00  0.1060E+00
      1.418  0.2179E-01  0.2179E-01  0.1102E+00  0.1102E+00
      1.612  0.2481E-01  0.2481E-01  0.1150E+00  0.1150E+00
      1.805  0.1018E-01  0.1018E-01  0.1170E+00  0.1170E+00
      1.999  0.1046E-01  0.1046E-01  0.1190E+00  0.1190E+00
      2.193  0.1202E-09  0.1202E-09  0.1190E+00  0.1190E+00
      2.386  0.5162E-02  0.5162E-02  0.1200E+00  0.1200E+00
      2.580  0.0000E+00  0.0000E+00  0.1200E+00  0.1200E+00
      2.774  0.0000E+00  0.0000E+00  0.1200E+00  0.1200E+00
      2.967  0.0000E+00  0.0000E+00  0.1200E+00  0.1200E+00
      3.161  0.0000E+00  0.0000E+00  0.1200E+00  0.1200E+00
      3.355  0.0000E+00  0.0000E+00  0.1200E+00  0.1200E+00
      3.548  0.0000E+00  0.0000E+00  0.1200E+00  0.1200E+00
      3.742  0.0000E+00  0.0000E+00  0.1200E+00  0.1200E+00
      3.936  0.0000E+00  0.0000E+00  0.1200E+00  0.1200E+00
      4.129  0.0000E+00  0.0000E+00  0.1200E+00  0.1200E+00
      4.323  0.3134E-14  0.3134E-14  0.1200E+00  0.1200E+00
      4.517  0.4096E-02  0.4096E-02  0.1208E+00  0.1208E+00
      4.710  0.1051E-02  0.1051E-02  0.1210E+00  0.1210E+00
      4.904  0.0000E+00  0.0000E+00  0.1210E+00  0.1210E+00
      5.097  0.3114E-14  0.3114E-14  0.1210E+00  0.1210E+00
      5.291  0.3887E-02  0.3887E-02  0.1218E+00  0.1218E+00
      5.485  0.1105E-01  0.1105E-01  0.1239E+00  0.1239E+00
      5.678  0.5487E-03  0.5487E-03  0.1240E+00  0.1240E+00
      5.872  0.1714E-07  0.1714E-07  0.1240E+00  0.1240E+00
      6.066  0.1147E-01  0.1147E-01  0.1262E+00  0.1262E+00
      6.259  0.1581E-01  0.1581E-01  0.1293E+00  0.1293E+00
      6.453  0.4179E-02  0.4179E-02  0.1301E+00  0.1301E+00
      6.647  0.9314E-02  0.9314E-02  0.1319E+00  0.1319E+00
      6.840  0.9184E-02  0.9184E-02  0.1337E+00  0.1337E+00
      7.034  0.1188E-01  0.1188E-01  0.1360E+00  0.1360E+00
      7.228  0.5281E-02  0.5281E-02  0.1370E+00  0.1370E+00
      7.421  0.5068E-02  0.5068E-02  0.1380E+00  0.1380E+00
      7.615  0.1024E-01  0.1024E-01  0.1400E+00  0.1400E+00
      7.809  0.1138E-01  0.1138E-01  0.1422E+00  0.1422E+00
      8.002  0.1059E-01  0.1059E-01  0.1442E+00  0.1442E+00
      8.196  0.1437E-01  0.1437E-01  0.1470E+00  0.1470E+00
      8.390  0.1386E-01  0.1386E-01  0.1497E+00  0.1497E+00
      8.583  0.1488E-01  0.1488E-01  0.1526E+00  0.1526E+00
      8.777  0.1369E-01  0.1369E-01  0.1552E+00  0.1552E+00
      8.970  0.1599E-01  0.1599E-01  0.1583E+00  0.1583E+00
      9.164  0.1541E-01  0.1541E-01  0.1613E+00  0.1613E+00
      9.358  0.1869E-01  0.1869E-01  0.1649E+00  0.1649E+00
      9.551  0.1976E-01  0.1977E-01  0.1688E+00  0.1688E+00
      9.745  0.1726E-01  0.1726E-01  0.1721E+00  0.1721E+00
      9.939  0.1654E-01  0.1649E-01  0.1753E+00  0.1753E+00
     10.132  0.3491E-02  0.3514E-02  0.1760E+00  0.1760E+00
     10.326  0.0000E+00  0.0000E+00  0.1760E+00  0.1760E+00
     10.520  0.0000E+00  0.0000E+00  0.1760E+00  0.1760E+00
     10.713  0.0000E+00  0.0000E+00  0.1760E+00  0.1760E+00
     10.907  0.0000E+00  0.0000E+00  0.1760E+00  0.1760E+00
     11.101  0.0000E+00  0.0000E+00  0.1760E+00  0.1760E+00
     11.294  0.0000E+00  0.0000E+00  0.1760E+00  0.1760E+00
     11.488  0.0000E+00  0.0000E+00  0.1760E+00  0.1760E+00
     11.682  0.0000E+00  0.0000E+00  0.1760E+00  0.1760E+00
     11.875  0.0000E+00  0.0000E+00  0.1760E+00  0.1760E+00
     12.069  0.0000E+00  0.0000E+00  0.1760E+00  0.1760E+00
     12.263  0.0000E+00  0.0000E+00  0.1760E+00  0.1760E+00
     12.456  0.0000E+00  0.0000E+00  0.1760E+00  0.1760E+00
     12.650  0.0000E+00  0.0000E+00  0.1760E+00  0.1760E+00
