 vasp.6.4.1 05Apr23 (build Jun 07 2023 15:38:11) complex                        
  
 executed on             LinuxIFC date 2023.10.19  05:20:00
 running  128 mpi-ranks, with    1 threads/rank, on    1 nodes
 distrk:  each k-point on  128 cores,    1 groups
 distr:  one band on NCORE=  32 cores,    4 groups


--------------------------------------------------------------------------------------------------------


 INCAR:
   GGA = PE
   PREC = Accu
   EDIFF = 1.e-6
   EDIFFG = -1.e-3
   ENCUT = 520.
   NELM = 100
   NELMDL = -10
   LASPH = .TRUE.
   LREAL = Auto
   LMAXMIX = 4
   ISPIN = 2
   LDIAG = .TRUE.
   LPLANE = .TRUE.
   IVDW = 12
   SIGMA = 0.03
   ISMEAR = 0
   NSW = 1000    number of steps for IOM
   IBRION = 2    ionic relax: 0-MD 1-quasi-New 2-CG
   ISIF = 2    ionic relaxation + stress tensor calcn.
   LCHARG = .FALSE.
   LWAVE = .FALSE.
   ALGO = F
   KPAR = 1
   NPAR = 4
   POTIM = 0.2

 POTCAR:    PAW_PBE Li_sv_GW 25Mar2010            
 POTCAR:    PAW_PBE P_GW 19Mar2012                
 POTCAR:    PAW_PBE S_GW 19Mar2012                
 POTCAR:    PAW_PBE Cl_GW 19Mar2012               
 -----------------------------------------------------------------------------
|                                                                             |
|           W    W    AA    RRRRR   N    N  II  N    N   GGGG   !!!           |
|           W    W   A  A   R    R  NN   N  II  NN   N  G    G  !!!           |
|           W    W  A    A  R    R  N N  N  II  N N  N  G       !!!           |
|           W WW W  AAAAAA  RRRRR   N  N N  II  N  N N  G  GGG   !            |
|           WW  WW  A    A  R   R   N   NN  II  N   NN  G    G                |
|           W    W  A    A  R    R  N    N  II  N    N   GGGG   !!!           |
|                                                                             |
|     You use a magnetic or noncollinear calculation, but did not specify     |
|     the initial magnetic moment with the MAGMOM tag. Note that a            |
|     default of 1 will be used for all atoms. This ferromagnetic setup       |
|     may break the symmetry of the crystal, in particular it may rule        |
|     out finding an antiferromagnetic solution. Thence, we recommend         |
|     setting the initial magnetic moment manually or verifying carefully     |
|     that this magnetic setup is desired.                                    |
|                                                                             |
 -----------------------------------------------------------------------------

 POTCAR:    PAW_PBE Li_sv_GW 25Mar2010            
   SHA256 =  24a6ace15a582615486b36ce4dc781b048409f4015b7684ed1273ae395fa2fdc Li_sv_GW/POTCAR       
   COPYR  = (c) Copyright 25Mar2010 Georg Kresse                                                    
   COPYR  = This file is part of the software VASP. Any use, copying, and all other rights are regul
   COPYR  = If you do not have a valid VASP license, you may not use, copy or distribute this file. 
   VRHFIN =Li: 1s2s                                                                                 
   LEXCH  = PE                                                                                      
   EATOM  =   200.9989 eV,   14.7730 Ry                                                             
                                                                                                    
   TITEL  = PAW_PBE Li_sv_GW 25Mar2010                                                              
   LULTRA =        F    use ultrasoft PP ?                                                          
   IUNSCR =        0    unscreen: 0-lin 1-nonlin 2-no                                               
   RPACOR =    0.000    partial core radius                                                         
   POMASS =    7.010; ZVAL   =    3.000    mass and valenz                                          
   RCORE  =    1.500    outmost cutoff radius                                                       
   RWIGS  =    1.600; RWIGS  =    0.847    wigner-seitz radius (au A)                               
   ENMAX  =  433.699; ENMIN  =  325.274 eV                                                          
   RCLOC  =    1.003    cutoff for local pot                                                        
   LCOR   =        T    correct aug charges                                                         
   LPAW   =        T    paw PP                                                                      
   EAUG   = 1041.699                                                                                
   RMAX   =    1.536    core radius for proj-oper                                                   
   RAUG   =    1.300    factor for augmentation sphere                                              
   RDEP   =    1.520    radius for radial grids                                                     
   RDEPT  =    1.300    core radius for aug-charge                                                  
                                                                                                    
   Atomic configuration                                                                             
    4 entries                                                                                       
     n  l   j            E        occ.                                                              
     1  0  0.50       -53.3604   2.0000                                                             
     1  0  0.50       -52.0001   0.0000                                                             
     2  1  0.50        -1.5636   1.0000                                                             
     3  2  1.50        -1.3606   0.0000                                                             
   Description                                                                                      
     l       E           TYP  RCUT    TYP  RCUT                                                     
     0    -53.3603633     23  1.200                                                                 
     0    -52.0001064     23  1.200                                                                 
     0    176.8757380     23  1.300                                                                 
     1     -1.5635925     23  1.500                                                                 
     1    108.8466080     23  1.500                                                                 
     2     81.6349560     23  1.500                                                                 
  local pseudopotential read in
  kinetic energy density of atom read in
  atomic valenz-charges read in
  non local Contribution for L=           0  read in
    real space projection operators read in
  non local Contribution for L=           0  read in
    real space projection operators read in
  non local Contribution for L=           0  read in
    real space projection operators read in
  non local Contribution for L=           1  read in
    real space projection operators read in
  non local Contribution for L=           1  read in
    real space projection operators read in
  non local Contribution for L=           2  read in
    real space projection operators read in
    PAW grid and wavefunctions read in
 
   number of l-projection  operators is LMAX  =           6
   number of lm-projection operators is LMMAX =          14
 
 POTCAR:    PAW_PBE P_GW 19Mar2012                
   SHA256 =  715c28f2291d37b61637ce89646c59f66f71c8b8d8bfba631e5feb9f7b42defe P_GW/POTCAR           
   COPYR  = (c) Copyright 19Mar2012 Georg Kresse                                                    
   COPYR  = This file is part of the software VASP. Any use, copying, and all other rights are regul
   COPYR  = If you do not have a valid VASP license, you may not use, copy or distribute this file. 
   VRHFIN =P : s2p3                                                                                 
   LEXCH  = PE                                                                                      
   EATOM  =   176.0430 eV,   12.9388 Ry                                                             
                                                                                                    
   TITEL  = PAW_PBE P_GW 19Mar2012                                                                  
   LULTRA =        F    use ultrasoft PP ?                                                          
   IUNSCR =        1    unscreen: 0-lin 1-nonlin 2-no                                               
   RPACOR =    1.400    partial core radius                                                         
   POMASS =   30.974; ZVAL   =    5.000    mass and valenz                                          
   RCORE  =    2.000    outmost cutoff radius                                                       
   RWIGS  =    1.900; RWIGS  =    1.005    wigner-seitz radius (au A)                               
   ENMAX  =  255.040; ENMIN  =  191.280 eV                                                          
   ICORE  =        3    local potential                                                             
   LCOR   =        T    correct aug charges                                                         
   LPAW   =        T    paw PP                                                                      
   EAUG   =  499.732                                                                                
   DEXC   =    0.000                                                                                
   RMAX   =    2.047    core radius for proj-oper                                                   
   RAUG   =    1.300    factor for augmentation sphere                                              
   RDEP   =    2.059    radius for radial grids                                                     
   RDEPT  =    1.900    core radius for aug-charge                                                  
                                                                                                    
   Atomic configuration                                                                             
    7 entries                                                                                       
     n  l   j            E        occ.                                                              
     1  0  0.50     -2084.0982   2.0000                                                             
     2  0  0.50      -173.9859   2.0000                                                             
     2  1  1.50      -124.4865   6.0000                                                             
     3  0  0.50       -13.9692   2.0000                                                             
     3  1  0.50        -5.5067   3.0000                                                             
     3  2  1.50        -6.8029   0.0000                                                             
     4  3  2.50        -1.3606   0.0000                                                             
   Description                                                                                      
     l       E           TYP  RCUT    TYP  RCUT                                                     
     0    -13.9691528     23  1.900                                                                 
     0    102.0436950     23  1.900                                                                 
     1     -5.5066939     23  1.900                                                                 
     1    102.0436950     23  1.900                                                                 
     2     -8.1634956     23  2.000                                                                 
     2     81.6349560     23  2.000                                                                 
     3     27.2116520     23  2.000                                                                 
  local pseudopotential read in
  partial core-charges read in
  partial kinetic energy density read in
  kinetic energy density of atom read in
  atomic valenz-charges read in
  non local Contribution for L=           0  read in
    real space projection operators read in
  non local Contribution for L=           0  read in
    real space projection operators read in
  non local Contribution for L=           1  read in
    real space projection operators read in
  non local Contribution for L=           1  read in
    real space projection operators read in
  non local Contribution for L=           2  read in
    real space projection operators read in
  non local Contribution for L=           2  read in
    real space projection operators read in
    PAW grid and wavefunctions read in
 
   number of l-projection  operators is LMAX  =           6
   number of lm-projection operators is LMMAX =          18
 
 POTCAR:    PAW_PBE S_GW 19Mar2012                
   SHA256 =  357db9cfb0783579b2eebe03197c2d807131fea8ea663b1fcfb6ce2fa75af011 S_GW/POTCAR           
   COPYR  = (c) Copyright 19Mar2012 Georg Kresse                                                    
   COPYR  = This file is part of the software VASP. Any use, copying, and all other rights are regul
   COPYR  = If you do not have a valid VASP license, you may not use, copy or distribute this file. 
   VRHFIN =S : s2p4                                                                                 
   LEXCH  = PE                                                                                      
   EATOM  =   276.8230 eV,   20.3459 Ry                                                             
                                                                                                    
   TITEL  = PAW_PBE S_GW 19Mar2012                                                                  
   LULTRA =        F    use ultrasoft PP ?                                                          
   IUNSCR =        1    unscreen: 0-lin 1-nonlin 2-no                                               
   RPACOR =    1.400    partial core radius                                                         
   POMASS =   32.066; ZVAL   =    6.000    mass and valenz                                          
   RCORE  =    1.900    outmost cutoff radius                                                       
   RWIGS  =    1.900; RWIGS  =    1.005    wigner-seitz radius (au A)                               
   ENMAX  =  258.689; ENMIN  =  194.016 eV                                                          
   ICORE  =        3    local potential                                                             
   LCOR   =        T    correct aug charges                                                         
   LPAW   =        T    paw PP                                                                      
   EAUG   =  488.319                                                                                
   DEXC   =    0.000                                                                                
   RMAX   =    1.942    core radius for proj-oper                                                   
   RAUG   =    1.300    factor for augmentation sphere                                              
   RDEP   =    1.954    radius for radial grids                                                     
   RDEPT  =    1.900    core radius for aug-charge                                                  
                                                                                                    
   Atomic configuration                                                                             
    7 entries                                                                                       
     n  l   j            E        occ.                                                              
     1  0  0.50     -2405.8406   2.0000                                                             
     2  0  0.50      -211.7007   2.0000                                                             
     2  1  1.50      -156.4958   6.0000                                                             
     3  0  0.50       -17.2562   2.0000                                                             
     3  1  0.50        -7.0085   4.0000                                                             
     3  2  1.50        -8.1635   0.0000                                                             
     4  3  2.50        -1.3606   0.0000                                                             
   Description                                                                                      
     l       E           TYP  RCUT    TYP  RCUT                                                     
     0    -17.2561639     23  1.700                                                                 
     0     88.4378690     23  1.900                                                                 
     1     -7.0085399     23  1.900                                                                 
     1     88.4378690     23  1.900                                                                 
     2    -10.8846608     23  1.900                                                                 
     2     54.4233040     23  1.900                                                                 
     3     27.2116520     23  1.800                                                                 
  local pseudopotential read in
  partial core-charges read in
  partial kinetic energy density read in
  kinetic energy density of atom read in
  atomic valenz-charges read in
  non local Contribution for L=           0  read in
    real space projection operators read in
  non local Contribution for L=           0  read in
    real space projection operators read in
  non local Contribution for L=           1  read in
    real space projection operators read in
  non local Contribution for L=           1  read in
    real space projection operators read in
  non local Contribution for L=           2  read in
    real space projection operators read in
  non local Contribution for L=           2  read in
    real space projection operators read in
    PAW grid and wavefunctions read in
 
   number of l-projection  operators is LMAX  =           6
   number of lm-projection operators is LMMAX =          18
 
 POTCAR:    PAW_PBE Cl_GW 19Mar2012               
   SHA256 =  3ef3b3169d6a9a89979f58b4cf17d927a58518fc660d8883d88cacaee8175441 Cl_GW/POTCAR          
   COPYR  = (c) Copyright 19Mar2012 Georg Kresse                                                    
   COPYR  = This file is part of the software VASP. Any use, copying, and all other rights are regul
   COPYR  = If you do not have a valid VASP license, you may not use, copy or distribute this file. 
   VRHFIN =Cl: s2p5                                                                                 
   LEXCH  = PE                                                                                      
   EATOM  =   409.7259 eV,   30.1140 Ry                                                             
                                                                                                    
   TITEL  = PAW_PBE Cl_GW 19Mar2012                                                                 
   LULTRA =        F    use ultrasoft PP ?                                                          
   IUNSCR =        1    unscreen: 0-lin 1-nonlin 2-no                                               
   RPACOR =    1.400    partial core radius                                                         
   POMASS =   35.453; ZVAL   =    7.000    mass and valenz                                          
   RCORE  =    1.900    outmost cutoff radius                                                       
   RWIGS  =    1.900; RWIGS  =    1.005    wigner-seitz radius (au A)                               
   ENMAX  =  262.472; ENMIN  =  196.854 eV                                                          
   ICORE  =        3    local potential                                                             
   LCOR   =        T    correct aug charges                                                         
   LPAW   =        T    paw PP                                                                      
   EAUG   =  456.703                                                                                
   DEXC   =    0.000                                                                                
   RMAX   =    1.945    core radius for proj-oper                                                   
   RAUG   =    1.300    factor for augmentation sphere                                              
   RDEP   =    2.020    radius for radial grids                                                     
   RDEPT  =    1.900    core radius for aug-charge                                                  
                                                                                                    
   Atomic configuration                                                                             
    7 entries                                                                                       
     n  l   j            E        occ.                                                              
     1  0  0.50     -2751.1850   2.0000                                                             
     2  0  0.50      -252.6861   2.0000                                                             
     2  1  1.50      -191.6157   6.0000                                                             
     3  0  0.50       -20.6916   2.0000                                                             
     3  1  0.50        -8.5949   5.0000                                                             
     3  2  1.50        -9.5241   0.0000                                                             
     4  3  2.50        -9.5241   0.0000                                                             
   Description                                                                                      
     l       E           TYP  RCUT    TYP  RCUT                                                     
     0    -20.6915657     23  1.700                                                                 
     0     95.2407820     23  1.800                                                                 
     1     -8.5948577     23  1.900                                                                 
     1     95.2407820     23  1.900                                                                 
     2    -10.8846608     23  1.900                                                                 
     2     54.4233040     23  1.900                                                                 
     3     27.2116520     23  1.900                                                                 
  local pseudopotential read in
  partial core-charges read in
  partial kinetic energy density read in
  kinetic energy density of atom read in
  atomic valenz-charges read in
  non local Contribution for L=           0  read in
    real space projection operators read in
  non local Contribution for L=           0  read in
    real space projection operators read in
  non local Contribution for L=           1  read in
    real space projection operators read in
  non local Contribution for L=           1  read in
    real space projection operators read in
  non local Contribution for L=           2  read in
    real space projection operators read in
  non local Contribution for L=           2  read in
    real space projection operators read in
    PAW grid and wavefunctions read in
 
   number of l-projection  operators is LMAX  =           6
   number of lm-projection operators is LMMAX =          18
 
 Optimization of the real space projectors (new method)

 maximal supplied QI-value         = 25.13
 optimisation between [QCUT,QGAM] = [ 11.56, 23.12] = [ 37.43,149.72] Ry 
 Optimized for a Real-space Cutoff    1.28 Angstroem

   l    n(q)    QCUT    max X(q) W(low)/X(q) W(high)/X(q)  e(spline) 
   0      9    11.561    87.733    0.11E-03    0.32E-04    0.56E-06
   0      9    11.561    82.800    0.11E-03    0.35E-04    0.56E-06
   0      9    11.561     2.509    0.22E-03    0.42E-04    0.79E-06
   1      8    11.561    12.580    0.94E-04    0.26E-03    0.21E-06
   1      8    11.561     1.319    0.33E-04    0.15E-03    0.19E-06
   2      8    11.561     1.993    0.36E-04    0.89E-04    0.26E-06
 Optimization of the real space projectors (new method)

 maximal supplied QI-value         = 18.90
 optimisation between [QCUT,QGAM] = [ 11.53, 23.24] = [ 37.21,151.29] Ry 
 Optimized for a Real-space Cutoff    1.21 Angstroem

   l    n(q)    QCUT    max X(q) W(low)/X(q) W(high)/X(q)  e(spline) 
   0      8    11.527     8.355    0.73E-04    0.70E-04    0.26E-07
   0      8    11.527     1.401    0.17E-03    0.17E-03    0.63E-07
   1      8    11.527     4.747    0.13E-03    0.17E-03    0.11E-06
   1      8    11.527     2.025    0.16E-03    0.18E-03    0.12E-06
   2      7    11.527     3.169    0.51E-04    0.25E-03    0.60E-07
   2      7    11.527     3.441    0.82E-04    0.22E-03    0.14E-06
 Optimization of the real space projectors (new method)

 maximal supplied QI-value         = 19.84
 optimisation between [QCUT,QGAM] = [ 11.51, 23.22] = [ 37.09,150.92] Ry 
 Optimized for a Real-space Cutoff    1.49 Angstroem

   l    n(q)    QCUT    max X(q) W(low)/X(q) W(high)/X(q)  e(spline) 
   0     10    11.508     7.541    0.34E-04    0.13E-04    0.69E-07
   0     10    11.508     1.809    0.49E-04    0.27E-04    0.14E-06
   1     10    11.508     4.107    0.27E-05    0.41E-05    0.14E-06
   1     10    11.508     2.196    0.26E-05    0.25E-05    0.22E-06
   2      9    11.508     4.265    0.18E-03    0.11E-03    0.81E-06
   2      9    11.508     1.925    0.97E-04    0.76E-04    0.47E-06
 Optimization of the real space projectors (new method)

 maximal supplied QI-value         = 19.84
 optimisation between [QCUT,QGAM] = [ 11.51, 23.22] = [ 37.09,150.92] Ry 
 Optimized for a Real-space Cutoff    1.21 Angstroem

   l    n(q)    QCUT    max X(q) W(low)/X(q) W(high)/X(q)  e(spline) 
   0      8    11.508     6.761    0.57E-04    0.57E-04    0.35E-07
   0      8    11.508     1.642    0.14E-03    0.14E-03    0.91E-07
   1      8    11.508     3.519    0.20E-04    0.72E-04    0.47E-07
   1      8    11.508     2.150    0.27E-04    0.11E-03    0.89E-07
   2      7    11.508     2.976    0.19E-03    0.33E-03    0.16E-06
   2      7    11.508     1.494    0.14E-03    0.29E-03    0.14E-06
  PAW_PBE Li_sv_GW 25Mar2010            :
 energy of atom  1       EATOM= -200.9989
 kinetic energy error for atom=    0.0127 (will be added to EATOM!!)
  PAW_PBE P_GW 19Mar2012                :
 energy of atom  2       EATOM= -176.0430
 kinetic energy error for atom=    0.0011 (will be added to EATOM!!)
  PAW_PBE S_GW 19Mar2012                :
 energy of atom  3       EATOM= -276.8230
 kinetic energy error for atom=    0.0024 (will be added to EATOM!!)
  PAW_PBE Cl_GW 19Mar2012               :
 energy of atom  4       EATOM= -409.7259
 kinetic energy error for atom=    0.0030 (will be added to EATOM!!)
 
 
 POSCAR: Li24 P4 S20 Cl4
  positions in direct lattice
  velocities in cartesian coordinates
 exchange correlation table for  LEXCH =        8
   RHO(1)=    0.500       N(1)  =     2000
   RHO(2)=  100.500       N(2)  =     4000

 VTST: version 4.1, (05/19/21)

 CHAIN: initializing optimizer
 
 OPT: Using VASP Conjugate-Gradient optimizer
 CHAIN: Read ICHAIN            0
 
 POSCAR: Li24 P4 S20 Cl4
  positions in direct lattice
  velocities in cartesian coordinates
 


--------------------------------------------------------------------------------------------------------


 ion  position               nearest neighbor table
   1  0.989  0.295  0.290-
   2  0.935  0.551  0.703-
   3  0.066  0.199  0.874-
   4  0.016  0.730  0.275-
   5  0.970  0.835  0.822-
   6  0.212  0.798  0.012-
   7  0.679  0.323  0.033-
   8  0.659  0.719  0.981-
   9  0.194  0.996  0.199-
  10  0.296  0.018  0.695-
  11  0.725  0.976  0.711-
  12  0.824  0.042  0.152-
  13  0.209  0.676  0.471-
  14  0.198  0.322  0.541-
  15  0.801  0.717  0.513-
  16  0.733  0.165  0.470-
  17  0.310  0.454  0.849-
  18  0.334  0.544  0.178-
  19  0.775  0.487  0.299-
  20  0.661  0.515  0.795-
  21  0.494  0.218  0.708-
  22  0.461  0.848  0.328-
  23  0.520  0.205  0.282-
  24  0.530  0.791  0.671-
  25  0.502  0.500  0.497-  44 2.04  43 2.05  42 2.06  41 2.06
  26  0.503  0.011  0.001-  39 2.02  37 2.06  38 2.06  40 2.07
  27  0.994  0.507  0.001-  36 2.03  33 2.05  34 2.07  35 2.08
  28  0.011  0.006  0.508-  32 2.05  29 2.05  30 2.05  31 2.06
  29  0.122  0.861  0.618-  28 2.05
  30  0.141  0.130  0.393-  28 2.05
  31  0.873  0.908  0.377-  28 2.06
  32  0.905  0.127  0.645-  28 2.05
  33  0.865  0.632  0.114-  27 2.05
  34  0.874  0.381  0.877-  27 2.07
  35  0.113  0.625  0.866-  27 2.08
  36  0.130  0.388  0.109-  27 2.03
  37  0.643  0.124  0.886-  26 2.06
  38  0.619  0.899  0.142-  26 2.06
  39  0.371  0.140  0.101-  26 2.02
  40  0.401  0.872  0.873-  26 2.07
  41  0.605  0.645  0.380-  25 2.06
  42  0.646  0.377  0.595-  25 2.06
  43  0.380  0.602  0.639-  25 2.05
  44  0.374  0.386  0.372-  25 2.04
  45  0.757  0.737  0.749-
  46  0.756  0.255  0.249-
  47  0.250  0.763  0.247-
  48  0.265  0.245  0.751-
  49  0.025  0.988  0.009-
  50  0.992  0.528  0.464-
  51  0.526  0.008  0.532-
  52  0.514  0.508  0.993-
 
  LATTYP: Found a simple cubic cell.
 ALAT       =     9.6427073438
  
  Lattice vectors:
  
 A1 = (   9.6427073438,   0.0000000000,   0.0000000000)
 A2 = (   0.0000000000,   9.6427073438,   0.0000000000)
 A3 = (   0.0000000000,   0.0000000000,   9.6427073438)


Analysis of symmetry for initial positions (statically):
=====================================================================
 Subroutine PRICEL returns:
 Original cell was already a primitive cell.
 

 Routine SETGRP: Setting up the symmetry group for a 
 simple cubic supercell.


 Subroutine GETGRP returns: Found  1 space group operations
 (whereof  1 operations were pure point group operations)
 out of a pool of 48 trial point group operations.


The static configuration has the point symmetry C_1 .


Analysis of symmetry for dynamics (positions and initial velocities):
=====================================================================
 Subroutine PRICEL returns:
 Original cell was already a primitive cell.
 

 Routine SETGRP: Setting up the symmetry group for a 
 simple cubic supercell.


 Subroutine GETGRP returns: Found  1 space group operations
 (whereof  1 operations were pure point group operations)
 out of a pool of 48 trial point group operations.


The dynamic configuration has the point symmetry C_1 .


Analysis of structural, dynamic, and magnetic symmetry:
=====================================================================
 Subroutine PRICEL returns:
 Original cell was already a primitive cell.
 

 Routine SETGRP: Setting up the symmetry group for a 
 simple cubic supercell.


 Subroutine GETGRP returns: Found  1 space group operations
 (whereof  1 operations were pure point group operations)
 out of a pool of 48 trial point group operations.


The overall configuration has the point symmetry C_1 .


 Subroutine INISYM returns: Found  1 space group operations
 (whereof  1 operations are pure point group operations),
 and found     1 'primitive' translations


----------------------------------------------------------------------------------------

                                     Primitive cell                                     

  volume of cell :     896.5963

  direct lattice vectors                    reciprocal lattice vectors
     9.642707344  0.000000000  0.000000000     0.103705315  0.000000000  0.000000000
     0.000000000  9.642707344  0.000000000     0.000000000  0.103705315  0.000000000
     0.000000000  0.000000000  9.642707344     0.000000000  0.000000000  0.103705315

  length of vectors
     9.642707344  9.642707344  9.642707344     0.103705315  0.103705315  0.103705315

  position of ions in fractional coordinates (direct lattice)
     0.988961891  0.295307284  0.290102856
     0.935224197  0.551413670  0.702674548
     0.066098435  0.199151525  0.874423365
     0.016051185  0.730499061  0.274695822
     0.970315064  0.834673598  0.822444878
     0.211995895  0.797966007  0.012239726
     0.678509682  0.323201987  0.032907300
     0.658871851  0.718854152  0.980759629
     0.194285218  0.995706516  0.199295340
     0.295681262  0.018166465  0.694713717
     0.724980597  0.975523237  0.710750636
     0.824063178  0.041599797  0.151598420
     0.208809771  0.676069875  0.471186748
     0.198223609  0.322096978  0.541403155
     0.800613040  0.716900793  0.513451112
     0.733087207  0.164712161  0.470200023
     0.310346803  0.454228483  0.849226716
     0.333637621  0.543551165  0.178168785
     0.775112137  0.487138752  0.298911710
     0.660566761  0.514966151  0.795096773
     0.494020362  0.218016217  0.708248955
     0.461114478  0.848499924  0.327538257
     0.520112469  0.205371080  0.282249334
     0.529797428  0.790502449  0.670649590
     0.501717547  0.499990123  0.497329814
     0.502699624  0.011066388  0.001262824
     0.994205242  0.506909816  0.001384029
     0.010892633  0.005588220  0.507578560
     0.121576699  0.861049302  0.617784577
     0.140858636  0.129794166  0.393449959
     0.872520516  0.908360590  0.376690715
     0.905426229  0.127467830  0.645489241
     0.864542226  0.631992278  0.114171674
     0.873825857  0.380635425  0.877082737
     0.113356687  0.625131578  0.866385054
     0.130170743  0.388102171  0.109340241
     0.642580480  0.124332767  0.886029816
     0.618838210  0.898952748  0.141624038
     0.370843650  0.140080239  0.100996755
     0.401482641  0.872064221  0.873484752
     0.605147749  0.645003344  0.379568837
     0.646353791  0.377495053  0.595151846
     0.379622283  0.601579523  0.639167486
     0.374401977  0.386050056  0.371735246
     0.756902435  0.736525448  0.748823952
     0.755819381  0.255232675  0.249194116
     0.249652584  0.762515143  0.247341792
     0.265123707  0.244755531  0.751163235
     0.024784744  0.988234678  0.008564595
     0.991561091  0.528232407  0.463861313
     0.525504285  0.008256919  0.532463167
     0.513615252  0.508378783  0.992807712

  ion indices of the primitive-cell ions
   primitive index   ion index
                 1           1
                 2           2
                 3           3
                 4           4
                 5           5
                 6           6
                 7           7
                 8           8
                 9           9
                10          10
                11          11
                12          12
                13          13
                14          14
                15          15
                16          16
                17          17
                18          18
                19          19
                20          20
                21          21
                22          22
                23          23
                24          24
                25          25
                26          26
                27          27
                28          28
                29          29
                30          30
                31          31
                32          32
                33          33
                34          34
                35          35
                36          36
                37          37
                38          38
                39          39
                40          40
                41          41
                42          42
                43          43
                44          44
                45          45
                46          46
                47          47
                48          48
                49          49
                50          50
                51          51
                52          52

----------------------------------------------------------------------------------------

 
 
 KPOINTS: Automatic mesh                          

Automatic generation of k-mesh.
 Grid dimensions read from file:
 generate k-points for:    2    2    2

 Generating k-lattice:

  Cartesian coordinates                     Fractional coordinates (reciprocal lattice)
     0.051852657  0.000000000  0.000000000     0.500000000  0.000000000  0.000000000
     0.000000000  0.051852657  0.000000000     0.000000000  0.500000000  0.000000000
     0.000000000  0.000000000  0.051852657     0.000000000  0.000000000  0.500000000

  Length of vectors
     0.051852657  0.051852657  0.051852657

  Shift w.r.t. Gamma in fractional coordinates (k-lattice)
     0.500000000  0.500000000  0.500000000

 
 Subroutine IBZKPT returns following result:
 ===========================================
 
 Found      4 irreducible k-points:
 
 Following reciprocal coordinates:
            Coordinates               Weight
  0.250000  0.250000  0.250000      2.000000
 -0.250000  0.250000  0.250000      2.000000
 -0.250000 -0.250000  0.250000      2.000000
  0.250000 -0.250000  0.250000      2.000000
 
 Following cartesian coordinates:
            Coordinates               Weight
  0.025926  0.025926  0.025926      2.000000
 -0.025926  0.025926  0.025926      2.000000
 -0.025926 -0.025926  0.025926      2.000000
  0.025926 -0.025926  0.025926      2.000000
 


--------------------------------------------------------------------------------------------------------




 Dimension of arrays:
   k-points           NKPTS =      4   k-points in BZ     NKDIM =      4   number of bands    NBANDS=    176
   number of dos      NEDOS =    301   number of ions     NIONS =     52
   non local maximal  LDIM  =      6   non local SUM 2l+1 LMDIM =     18
   total plane-waves  NPLWV = 373248
   max r-space proj   IRMAX =   5808   max aug-charges    IRDMAX=  17767
   dimension x,y,z NGX =    72 NGY =   72 NGZ =   72
   dimension x,y,z NGXF=   144 NGYF=  144 NGZF=  144
   support grid    NGXF=   144 NGYF=  144 NGZF=  144
   ions per type =              24   4  20   4
   NGX,Y,Z   is equivalent  to a cutoff of  12.41, 12.41, 12.41 a.u.
   NGXF,Y,Z  is equivalent  to a cutoff of  24.83, 24.83, 24.83 a.u.

 SYSTEM =  unknown system                          
 POSCAR =  Li24 P4 S20 Cl4                         

 Startparameter for this run:
   NWRITE =      2    write-flag & timer
   PREC   = accu      normal or accurate (medium, high low for compatibility)
   ISTART =      0    job   : 0-new  1-cont  2-samecut
   ICHARG =      2    charge: 1-file 2-atom 10-const
   ISPIN  =      2    spin polarized calculation?
   LNONCOLLINEAR =      F non collinear calculations
   LSORBIT =      F    spin-orbit coupling
   INIWAV =      1    electr: 0-lowe 1-rand  2-diag
   LASPH  =      T    aspherical Exc in radial PAW
 Electronic Relaxation 1
   ENCUT  =  520.0 eV  38.22 Ry    6.18 a.u.  17.93 17.93 17.93*2*pi/ulx,y,z
   ENINI  =  520.0     initial cutoff
   ENAUG  = 1041.7 eV  augmentation charge cutoff
   NELM   =    100;   NELMIN=  2; NELMDL=-10     # of ELM steps 
   EDIFF  = 0.1E-05   stopping-criterion for ELM
   LREAL  =      T    real-space projection
   NLSPLINE    = F    spline interpolate recip. space projectors
   LCOMPAT=      F    compatible to vasp.4.4
   GGA_COMPAT  = T    GGA compatible to vasp.4.4-vasp.4.6
   LMAXPAW     = -100 max onsite density
   LMAXMIX     =    4 max onsite mixed and CHGCAR
   VOSKOWN=      0    Vosko Wilk Nusair interpolation
   ROPT   =   -0.00025  -0.00025  -0.00025  -0.00025
 Ionic relaxation
   EDIFFG = -.1E-02   stopping-criterion for IOM
   NSW    =   1000    number of steps for IOM
   NBLOCK =      1;   KBLOCK =   1000    inner block; outer block 
   IBRION =      2    ionic relax: 0-MD 1-quasi-New 2-CG
   NFREE  =      1    steps in history (QN), initial steepest desc. (CG)
   ISIF   =      2    stress and relaxation
   IWAVPR =     11    prediction:  0-non 1-charg 2-wave 3-comb
   ISYM   =      2    0-nonsym 1-usesym 2-fastsym
   LCORR  =      T    Harris-Foulkes like correction to forces

   POTIM  = 0.2000    time-step for ionic-motion
   TEIN   =    0.0    initial temperature
   TEBEG  =    0.0;   TEEND  =   0.0 temperature during run
   SMASS  =  -3.00    Nose mass-parameter (am)
   estimated Nose-frequenzy (Omega)   =  0.10E-29 period in steps = 0.31E+47 mass=  -0.212E-26a.u.
   SCALEE = 1.0000    scale energy and forces
   NPACO  =    256;   APACO  = 10.0  distance and # of slots for P.C.
   PSTRESS=    0.0 pullay stress

  Mass of Ions in am
   POMASS =   7.01 30.97 32.07 35.45
  Ionic Valenz
   ZVAL   =   3.00  5.00  6.00  7.00
  Atomic Wigner-Seitz radii
   RWIGS  =  -1.00 -1.00 -1.00 -1.00
  virtual crystal weights 
   VCA    =   1.00  1.00  1.00  1.00
   NELECT =     240.0000    total number of electrons
   NUPDOWN=      -1.0000    fix difference up-down

 DOS related values:
   EMIN   =  10.00;   EMAX   =-10.00  energy-range for DOS
   EFERMI =   0.00;   METHOD = LEGACY      
   ISMEAR =     0;   SIGMA  =   0.03  broadening in eV -4-tet -1-fermi 0-gaus

 Electronic relaxation 2 (details)
   IALGO  =     68    algorithm
   LDIAG  =      T    sub-space diagonalisation (order eigenvalues)
   LSUBROT=      F    optimize rotation matrix (better conditioning)
   TURBO    =      0    0=normal 1=particle mesh
   IRESTART =      0    0=no restart 2=restart with 2 vectors
   NREBOOT  =      0    no. of reboots
   NMIN     =      0    reboot dimension
   EREF     =   0.00    reference energy to select bands
   IMIX   =      4    mixing-type and parameters
     AMIX     =   0.40;   BMIX     =  1.00
     AMIX_MAG =   1.60;   BMIX_MAG =  1.00
     AMIN     =   0.10
     WC   =   100.;   INIMIX=   1;  MIXPRE=   1;  MAXMIX= -45

 Intra band minimization:
   WEIMIN = 0.0010     energy-eigenvalue tresh-hold
   EBREAK =  0.14E-08  absolut break condition
   DEPER  =   0.30     relativ break condition  

   TIME   =   0.40     timestep for ELM

  volume/ion in A,a.u.               =      17.24       116.36
  Fermi-wavevector in a.u.,A,eV,Ry     =   1.055066  1.993785 15.145517  1.113164
  Thomas-Fermi vector in A             =   2.190250
 
 Write flags
   LWAVE        =      F    write WAVECAR
   LDOWNSAMPLE  =      F    k-point downsampling of WAVECAR
   LCHARG       =      F    write CHGCAR
   LVTOT        =      F    write LOCPOT, total local potential
   LVHAR        =      F    write LOCPOT, Hartree potential only
   LELF         =      F    write electronic localiz. function (ELF)
   LORBIT       =      0    0 simple, 1 ext, 2 COOP (PROOUT), +10 PAW based schemes


 Dipole corrections
   LMONO  =      F    monopole corrections only (constant potential shift)
   LDIPOL =      F    correct potential (dipole corrections)
   IDIPOL =      0    1-x, 2-y, 3-z, 4-all directions 
   EPSILON=  1.0000000 bulk dielectric constant

 Exchange correlation treatment:
   GGA     =    PE    GGA type
   LEXCH   =     8    internal setting for exchange type
   LIBXC   =     F    Libxc                    
   VOSKOWN =     0    Vosko Wilk Nusair interpolation
   LHFCALC =     F    Hartree Fock is set to
   LHFONE  =     F    Hartree Fock one center treatment
   AEXX    =    0.0000 exact exchange contribution

 Linear response parameters
   LEPSILON=     F    determine dielectric tensor
   LRPA    =     F    only Hartree local field effects (RPA)
   LNABLA  =     F    use nabla operator in PAW spheres
   LVEL    =     F    velocity operator in full k-point grid
   CSHIFT  =0.1000    complex shift for real part using Kramers Kronig
   OMEGAMAX=  -1.0    maximum frequency
   DEG_THRESHOLD= 0.2000000E-02 threshold for treating states as degnerate
   RTIME   =   -0.100 relaxation time in fs
  (WPLASMAI=    0.000 imaginary part of plasma frequency in eV, 0.658/RTIME)
   DFIELD  = 0.0000000 0.0000000 0.0000000 field for delta impulse in time
 
  Optional k-point grid parameters
   LKPOINTS_OPT  =     F    use optional k-point grid
   KPOINTS_OPT_MODE=     1    mode for optional k-point grid
 
 Orbital magnetization related:
   ORBITALMAG=     F  switch on orbital magnetization
   LCHIMAG   =     F  perturbation theory with respect to B field
   DQ        =  0.001000  dq finite difference perturbation B field
   LLRAUG    =     F  two centre corrections for induced B field
   LBONE     =     F  B-component reconstruction in AE one-centre
   LVGVCALC  =     T  calculate vGv susceptibility
   LVGVAPPL  =     F  apply vGv susceptibility instead of pGv for G=0

 Random number generation:
   RANDOM_GENERATOR = DEFAULT
   PCG_SEED         = not used


--------------------------------------------------------------------------------------------------------


 conjugate gradient relaxation of ions
 charge density and potential will be updated during run
 spin polarized calculation
 RMM-DIIS sequential band-by-band and
  variant of blocked Davidson during initial phase
 perform sub-space diagonalisation
    before iterative eigenvector-optimisation
 modified Broyden-mixing scheme, WC =      100.0
 initial mixing is a Kerker type mixing with AMIX =  0.4000 and BMIX =      1.0000
 Hartree-type preconditioning will be used
 using additional bands           56
 real space projection scheme for non local part
 use partial core corrections
 calculate Harris-corrections to forces 
   (improved forces if not selfconsistent)
 use gradient corrections 
 use of overlap-Matrix (Vanderbilt PP)
 Gauss-broadening in eV      SIGMA  =   0.03


--------------------------------------------------------------------------------------------------------


  energy-cutoff  :      520.00
  volume of cell :      896.60
      direct lattice vectors                 reciprocal lattice vectors
     9.642707344  0.000000000  0.000000000     0.103705315  0.000000000  0.000000000
     0.000000000  9.642707344  0.000000000     0.000000000  0.103705315  0.000000000
     0.000000000  0.000000000  9.642707344     0.000000000  0.000000000  0.103705315

  length of vectors
     9.642707344  9.642707344  9.642707344     0.103705315  0.103705315  0.103705315


 
 k-points in units of 2pi/SCALE and weight: Automatic mesh                          
   0.02592633  0.02592633  0.02592633       0.250
  -0.02592633  0.02592633  0.02592633       0.250
  -0.02592633 -0.02592633  0.02592633       0.250
   0.02592633 -0.02592633  0.02592633       0.250
 
 k-points in reciprocal lattice and weights: Automatic mesh                          
   0.25000000  0.25000000  0.25000000       0.250
  -0.25000000  0.25000000  0.25000000       0.250
  -0.25000000 -0.25000000  0.25000000       0.250
   0.25000000 -0.25000000  0.25000000       0.250
 
 position of ions in fractional coordinates (direct lattice) 
   0.98896189  0.29530728  0.29010286
   0.93522420  0.55141367  0.70267455
   0.06609844  0.19915152  0.87442337
   0.01605119  0.73049906  0.27469582
   0.97031506  0.83467360  0.82244488
   0.21199589  0.79796601  0.01223973
   0.67850968  0.32320199  0.03290730
   0.65887185  0.71885415  0.98075963
   0.19428522  0.99570652  0.19929534
   0.29568126  0.01816646  0.69471372
   0.72498060  0.97552324  0.71075064
   0.82406318  0.04159980  0.15159842
   0.20880977  0.67606988  0.47118675
   0.19822361  0.32209698  0.54140315
   0.80061304  0.71690079  0.51345111
   0.73308721  0.16471216  0.47020002
   0.31034680  0.45422848  0.84922672
   0.33363762  0.54355117  0.17816879
   0.77511214  0.48713875  0.29891171
   0.66056676  0.51496615  0.79509677
   0.49402036  0.21801622  0.70824896
   0.46111448  0.84849992  0.32753826
   0.52011247  0.20537108  0.28224933
   0.52979743  0.79050245  0.67064959
   0.50171755  0.49999012  0.49732981
   0.50269962  0.01106639  0.00126282
   0.99420524  0.50690982  0.00138403
   0.01089263  0.00558822  0.50757856
   0.12157670  0.86104930  0.61778458
   0.14085864  0.12979417  0.39344996
   0.87252052  0.90836059  0.37669072
   0.90542623  0.12746783  0.64548924
   0.86454223  0.63199228  0.11417167
   0.87382586  0.38063542  0.87708274
   0.11335669  0.62513158  0.86638505
   0.13017074  0.38810217  0.10934024
   0.64258048  0.12433277  0.88602982
   0.61883821  0.89895275  0.14162404
   0.37084365  0.14008024  0.10099676
   0.40148264  0.87206422  0.87348475
   0.60514775  0.64500334  0.37956884
   0.64635379  0.37749505  0.59515185
   0.37962228  0.60157952  0.63916749
   0.37440198  0.38605006  0.37173525
   0.75690243  0.73652545  0.74882395
   0.75581938  0.25523268  0.24919412
   0.24965258  0.76251514  0.24734179
   0.26512371  0.24475553  0.75116324
   0.02478474  0.98823468  0.00856459
   0.99156109  0.52823241  0.46386131
   0.52550428  0.00825692  0.53246317
   0.51361525  0.50837878  0.99280771
 
 position of ions in cartesian coordinates  (Angst):
   9.53627009  2.84756172  2.79737694
   9.01809323  5.31712064  6.77568503
   0.63736787  1.92035987  8.43180861
   0.15477688  7.04398866  2.64881142
   9.35646420  8.04851323  7.93059526
   2.04421437  7.69455268  0.11802410
   6.54267030  3.11654217  0.31731546
   6.35330843  6.93170021  9.45717808
   1.87343550  9.60130654  1.92174664
   2.85116788  0.17517390  6.69892106
   6.99077573  9.40668508  6.85356038
   7.94620006  0.40113467  1.46181920
   2.01349151  6.51914395  4.54351592
   1.91141225  3.10588690  5.22059218
   7.72007724  6.91286454  4.95105881
   7.06894539  1.58827117  4.53400121
   2.99258340  4.37999233  8.18884469
   3.21716994  5.24130481  1.71802946
   7.47417949  4.69733642  2.88231815
   6.36965196  4.96566789  7.66688549
   4.76369378  2.10226658  6.82943740
   4.44639197  8.18183645  3.15835556
   5.01529233  1.98033323  2.72164772
   5.10868155  7.62258377  6.46687773
   4.83791547  4.82125843  4.79560585
   4.84738535  0.10670994  0.01217704
   9.58683018  4.88798300  0.01334579
   0.10503447  0.05388557  4.89443151
   1.17232853  8.30284643  5.95711587
   1.35825860  1.25156716  3.79392281
   8.41345998  8.75905533  3.63231833
   8.73076015  1.22913498  6.22426384
   8.33652767  6.09411658  1.10092404
   8.42604701  3.67035601  8.45745215
   1.09306536  6.02796086  8.35429752
   1.25519838  3.74235565  1.05433595
   6.19621551  1.19890448  8.54372621
   5.96727575  8.66833826  1.36563915
   3.57593679  1.35075275  0.97388215
   3.87137961  8.40906006  8.42275784
   5.83526265  6.21957848  3.66007121
   6.23260044  3.64007432  5.73887507
   3.66058658  5.80085528  6.16330501
   3.61024869  3.72256771  3.58453419
   7.29858866  7.10209935  7.22069022
   7.28814509  2.46113399  2.40290593
   2.40732680  7.35271037  2.38504452
   2.55651032  2.36010595  7.24324725
   0.23899204  9.52925779  0.08258588
   9.56133342  5.09359051  4.47287889
   5.06728403  0.07961905  5.13438649
   4.95264156  4.90214782  9.57335421
 


--------------------------------------------------------------------------------------------------------


 k-point   1 :   0.2500 0.2500 0.2500  plane waves:   24159
 k-point   2 :  -0.2500 0.2500 0.2500  plane waves:   24159
 k-point   3 :  -0.2500-0.2500 0.2500  plane waves:   24159
 k-point   4 :   0.2500-0.2500 0.2500  plane waves:   24159

 maximum and minimum number of plane-waves per node :       774      743

 maximum number of plane-waves:     24159
 maximum index in each direction: 
   IXMAX=   18   IYMAX=   18   IZMAX=   17
   IXMIN=  -18   IYMIN=  -18   IZMIN=  -18


 real space projection operators:
  total allocation   :      28519.61 KBytes
  max/ min on nodes  :       1195.23        734.11


 parallel 3D FFT for wavefunctions:
    minimum data exchange during FFTs selected (reduces bandwidth)
 parallel 3D FFT for charge:
    minimum data exchange during FFTs selected (reduces bandwidth)


 total amount of memory used by VASP MPI-rank0    48218. kBytes
=======================================================================

   base      :      30000. kBytes
   nonlr-proj:       6581. kBytes
   fftplans  :       1747. kBytes
   grid      :       5278. kBytes
   one-center:         62. kBytes
   wavefun   :       4550. kBytes
 
     INWAV:  cpu time      0.0000: real time      0.0003
 Broyden mixing: mesh for mixing (old mesh)
   NGX = 35   NGY = 35   NGZ = 35
  (NGX  =144   NGY  =144   NGZ  =144)
  gives a total of  42875 points

 initial charge density was supplied:
 charge density of overlapping atoms calculated
 number of electron     240.0000000 magnetization      52.0000000
 keeping initial charge density in first step


--------------------------------------------------------------------------------------------------------


 Maximum index for non-local projection operator          614
 Maximum index for augmentation-charges          905 (set IRDMAX)


--------------------------------------------------------------------------------------------------------


 First call to EWALD:  gamma=   0.184
 Maximum number of real-space cells 3x 3x 3
 Maximum number of reciprocal cells 3x 3x 3

    FEWALD:  cpu time      0.0033: real time      0.0036


--------------------------------------- Ionic step        1  -------------------------------------------




--------------------------------------- Iteration      1(   1)  ---------------------------------------


    POTLOK:  cpu time      0.0569: real time      0.0775
    SETDIJ:  cpu time      0.4264: real time      0.4349
     EDDAV:  cpu time      2.3020: real time      2.4118
       DOS:  cpu time      0.0023: real time      0.0037
    --------------------------------------------
      LOOP:  cpu time      2.7876: real time      2.9280

 eigenvalue-minimisations  :  3096
 total energy-change (2. order) : 0.1590257E+04  (-0.1139252E+05)
 number of electron     240.0000000 magnetization      52.0000000
 augmentation part      240.0000000 magnetization      52.0000000

 Free energy of the ion-electron system (eV)
  ---------------------------------------------------
  alpha Z        PSCENC =       302.76445894
  Ewald energy   TEWEN  =     -8846.61551041
  -Hartree energ DENC   =     -2096.44017860
  -exchange      EXHF   =         0.00000000
  -V(xc)+E(xc)   XCENC  =       534.48002625
  PAW double counting   =      8141.38806575    -8271.61346273
  entropy T*S    EENTRO =        -0.00468273
  eigenvalues    EBANDS =      -876.84145971
  atomic energy  EATOM  =     12703.13999606
  Solvation  Ediel_sol  =         0.00000000
  ---------------------------------------------------
  free energy    TOTEN  =      1590.25725281 eV

  energy without entropy =     1590.26193554  energy(sigma->0) =     1590.25959417


--------------------------------------------------------------------------------------------------------




--------------------------------------- Iteration      1(   2)  ---------------------------------------


     EDDAV:  cpu time      2.6818: real time      2.7063
       DOS:  cpu time      0.0005: real time      0.0005
    --------------------------------------------
      LOOP:  cpu time      2.6823: real time      2.7068

 eigenvalue-minimisations  :  3880
 total energy-change (2. order) :-0.1647113E+04  (-0.1549329E+04)
 number of electron     240.0000000 magnetization      52.0000000
 augmentation part      240.0000000 magnetization      52.0000000

 Free energy of the ion-electron system (eV)
  ---------------------------------------------------
  alpha Z        PSCENC =       302.76445894
  Ewald energy   TEWEN  =     -8846.61551041
  -Hartree energ DENC   =     -2096.44017860
  -exchange      EXHF   =         0.00000000
  -V(xc)+E(xc)   XCENC  =       534.48002625
  PAW double counting   =      8141.38806575    -8271.61346273
  entropy T*S    EENTRO =        -0.00000000
  eigenvalues    EBANDS =     -2523.95877430
  atomic energy  EATOM  =     12703.13999606
  Solvation  Ediel_sol  =         0.00000000
  ---------------------------------------------------
  free energy    TOTEN  =       -56.85537905 eV

  energy without entropy =      -56.85537905  energy(sigma->0) =      -56.85537905


--------------------------------------------------------------------------------------------------------




--------------------------------------- Iteration      1(   3)  ---------------------------------------


     EDDAV:  cpu time      2.6411: real time      2.6623
       DOS:  cpu time      0.0004: real time      0.0004
    --------------------------------------------
      LOOP:  cpu time      2.6415: real time      2.6627

 eigenvalue-minimisations  :  3768
 total energy-change (2. order) :-0.1712089E+03  (-0.1692449E+03)
 number of electron     240.0000000 magnetization      52.0000000
 augmentation part      240.0000000 magnetization      52.0000000

 Free energy of the ion-electron system (eV)
  ---------------------------------------------------
  alpha Z        PSCENC =       302.76445894
  Ewald energy   TEWEN  =     -8846.61551041
  -Hartree energ DENC   =     -2096.44017860
  -exchange      EXHF   =         0.00000000
  -V(xc)+E(xc)   XCENC  =       534.48002625
  PAW double counting   =      8141.38806575    -8271.61346273
  entropy T*S    EENTRO =        -0.00000000
  eigenvalues    EBANDS =     -2695.16771786
  atomic energy  EATOM  =     12703.13999606
  Solvation  Ediel_sol  =         0.00000000
  ---------------------------------------------------
  free energy    TOTEN  =      -228.06432261 eV

  energy without entropy =     -228.06432261  energy(sigma->0) =     -228.06432261


--------------------------------------------------------------------------------------------------------




--------------------------------------- Iteration      1(   4)  ---------------------------------------


     EDDAV:  cpu time      3.1499: real time      3.1750
       DOS:  cpu time      0.0004: real time      0.0004
    --------------------------------------------
      LOOP:  cpu time      3.1504: real time      3.1755

 eigenvalue-minimisations  :  4720
 total energy-change (2. order) :-0.1326716E+02  (-0.1324486E+02)
 number of electron     240.0000000 magnetization      52.0000000
 augmentation part      240.0000000 magnetization      52.0000000

 Free energy of the ion-electron system (eV)
  ---------------------------------------------------
  alpha Z        PSCENC =       302.76445894
  Ewald energy   TEWEN  =     -8846.61551041
  -Hartree energ DENC   =     -2096.44017860
  -exchange      EXHF   =         0.00000000
  -V(xc)+E(xc)   XCENC  =       534.48002625
  PAW double counting   =      8141.38806575    -8271.61346273
  entropy T*S    EENTRO =        -0.00000000
  eigenvalues    EBANDS =     -2708.43487983
  atomic energy  EATOM  =     12703.13999606
  Solvation  Ediel_sol  =         0.00000000
  ---------------------------------------------------
  free energy    TOTEN  =      -241.33148458 eV

  energy without entropy =     -241.33148458  energy(sigma->0) =     -241.33148458


--------------------------------------------------------------------------------------------------------




--------------------------------------- Iteration      1(   5)  ---------------------------------------


     EDDAV:  cpu time      2.9782: real time      3.0047
       DOS:  cpu time      0.0005: real time      0.0005
    --------------------------------------------
      LOOP:  cpu time      2.9787: real time      3.0052

 eigenvalue-minimisations  :  4448
 total energy-change (2. order) :-0.2335925E+00  (-0.2334928E+00)
 number of electron     240.0000000 magnetization      52.0000000
 augmentation part      240.0000000 magnetization      52.0000000

 Free energy of the ion-electron system (eV)
  ---------------------------------------------------
  alpha Z        PSCENC =       302.76445894
  Ewald energy   TEWEN  =     -8846.61551041
  -Hartree energ DENC   =     -2096.44017860
  -exchange      EXHF   =         0.00000000
  -V(xc)+E(xc)   XCENC  =       534.48002625
  PAW double counting   =      8141.38806575    -8271.61346273
  entropy T*S    EENTRO =        -0.00000000
  eigenvalues    EBANDS =     -2708.66847230
  atomic energy  EATOM  =     12703.13999606
  Solvation  Ediel_sol  =         0.00000000
  ---------------------------------------------------
  free energy    TOTEN  =      -241.56507705 eV

  energy without entropy =     -241.56507705  energy(sigma->0) =     -241.56507705


--------------------------------------------------------------------------------------------------------




--------------------------------------- Iteration      1(   6)  ---------------------------------------


     EDDAV:  cpu time      3.0727: real time      3.0977
       DOS:  cpu time      0.0005: real time      0.0005
    --------------------------------------------
      LOOP:  cpu time      3.0732: real time      3.0982

 eigenvalue-minimisations  :  4624
 total energy-change (2. order) :-0.1199118E-01  (-0.1198998E-01)
 number of electron     240.0000000 magnetization      52.0000000
 augmentation part      240.0000000 magnetization      52.0000000

 Free energy of the ion-electron system (eV)
  ---------------------------------------------------
  alpha Z        PSCENC =       302.76445894
  Ewald energy   TEWEN  =     -8846.61551041
  -Hartree energ DENC   =     -2096.44017860
  -exchange      EXHF   =         0.00000000
  -V(xc)+E(xc)   XCENC  =       534.48002625
  PAW double counting   =      8141.38806575    -8271.61346273
  entropy T*S    EENTRO =        -0.00000000
  eigenvalues    EBANDS =     -2708.68046348
  atomic energy  EATOM  =     12703.13999606
  Solvation  Ediel_sol  =         0.00000000
  ---------------------------------------------------
  free energy    TOTEN  =      -241.57706823 eV

  energy without entropy =     -241.57706823  energy(sigma->0) =     -241.57706823


--------------------------------------------------------------------------------------------------------




--------------------------------------- Iteration      1(   7)  ---------------------------------------


     EDDAV:  cpu time      3.0661: real time      3.1008
       DOS:  cpu time      0.0004: real time      0.0004
    --------------------------------------------
      LOOP:  cpu time      3.0665: real time      3.1012

 eigenvalue-minimisations  :  4592
 total energy-change (2. order) :-0.3786822E-03  (-0.3786576E-03)
 number of electron     240.0000000 magnetization      52.0000000
 augmentation part      240.0000000 magnetization      52.0000000

 Free energy of the ion-electron system (eV)
  ---------------------------------------------------
  alpha Z        PSCENC =       302.76445894
  Ewald energy   TEWEN  =     -8846.61551041
  -Hartree energ DENC   =     -2096.44017860
  -exchange      EXHF   =         0.00000000
  -V(xc)+E(xc)   XCENC  =       534.48002625
  PAW double counting   =      8141.38806575    -8271.61346273
  entropy T*S    EENTRO =        -0.00000000
  eigenvalues    EBANDS =     -2708.68084217
  atomic energy  EATOM  =     12703.13999606
  Solvation  Ediel_sol  =         0.00000000
  ---------------------------------------------------
  free energy    TOTEN  =      -241.57744691 eV

  energy without entropy =     -241.57744691  energy(sigma->0) =     -241.57744691


--------------------------------------------------------------------------------------------------------




--------------------------------------- Iteration      1(   8)  ---------------------------------------


     EDDAV:  cpu time      3.0098: real time      3.0337
       DOS:  cpu time      0.0004: real time      0.0004
    --------------------------------------------
      LOOP:  cpu time      3.0102: real time      3.0341

 eigenvalue-minimisations  :  4520
 total energy-change (2. order) :-0.2186141E-04  (-0.2186068E-04)
 number of electron     240.0000000 magnetization      52.0000000
 augmentation part      240.0000000 magnetization      52.0000000

 Free energy of the ion-electron system (eV)
  ---------------------------------------------------
  alpha Z        PSCENC =       302.76445894
  Ewald energy   TEWEN  =     -8846.61551041
  -Hartree energ DENC   =     -2096.44017860
  -exchange      EXHF   =         0.00000000
  -V(xc)+E(xc)   XCENC  =       534.48002625
  PAW double counting   =      8141.38806575    -8271.61346273
  entropy T*S    EENTRO =        -0.00000000
  eigenvalues    EBANDS =     -2708.68086403
  atomic energy  EATOM  =     12703.13999606
  Solvation  Ediel_sol  =         0.00000000
  ---------------------------------------------------
  free energy    TOTEN  =      -241.57746877 eV

  energy without entropy =     -241.57746877  energy(sigma->0) =     -241.57746877


--------------------------------------------------------------------------------------------------------




--------------------------------------- Iteration      1(   9)  ---------------------------------------


     EDDAV:  cpu time      3.2179: real time      3.2754
       DOS:  cpu time      0.0004: real time      0.0004
    --------------------------------------------
      LOOP:  cpu time      3.2183: real time      3.2758

 eigenvalue-minimisations  :  4504
 total energy-change (2. order) :-0.1405335E-05  (-0.1405604E-05)
 number of electron     240.0000000 magnetization      52.0000000
 augmentation part      240.0000000 magnetization      52.0000000

 Free energy of the ion-electron system (eV)
  ---------------------------------------------------
  alpha Z        PSCENC =       302.76445894
  Ewald energy   TEWEN  =     -8846.61551041
  -Hartree energ DENC   =     -2096.44017860
  -exchange      EXHF   =         0.00000000
  -V(xc)+E(xc)   XCENC  =       534.48002625
  PAW double counting   =      8141.38806575    -8271.61346273
  entropy T*S    EENTRO =        -0.00000000
  eigenvalues    EBANDS =     -2708.68086543
  atomic energy  EATOM  =     12703.13999606
  Solvation  Ediel_sol  =         0.00000000
  ---------------------------------------------------
  free energy    TOTEN  =      -241.57747018 eV

  energy without entropy =     -241.57747018  energy(sigma->0) =     -241.57747018


--------------------------------------------------------------------------------------------------------




--------------------------------------- Iteration      1(  10)  ---------------------------------------


     EDDAV:  cpu time      1.9860: real time      2.0014
       DOS:  cpu time      0.0004: real time      0.0004
    CHARGE:  cpu time      0.0675: real time      0.0744
    MIXING:  cpu time      0.0019: real time      0.0036
    --------------------------------------------
      LOOP:  cpu time      2.0559: real time      2.0797

 eigenvalue-minimisations  :  2640
 total energy-change (2. order) :-0.5971924E-07  (-0.5972904E-07)
 number of electron     240.0000024 magnetization      27.2030891
 augmentation part        1.4870440 magnetization      27.6457153

 Broyden mixing:
  rms(total) = 0.64117E+01    rms(broyden)= 0.64111E+01
  rms(prec ) = 0.66503E+01
  weight for this iteration     100.00

 Free energy of the ion-electron system (eV)
  ---------------------------------------------------
  alpha Z        PSCENC =       302.76445894
  Ewald energy   TEWEN  =     -8846.61551041
  -Hartree energ DENC   =     -2096.44017860
  -exchange      EXHF   =         0.00000000
  -V(xc)+E(xc)   XCENC  =       534.48002625
  PAW double counting   =      8141.38806575    -8271.61346273
  entropy T*S    EENTRO =        -0.00000000
  eigenvalues    EBANDS =     -2708.68086549
  atomic energy  EATOM  =     12703.13999606
  Solvation  Ediel_sol  =         0.00000000
  ---------------------------------------------------
  free energy    TOTEN  =      -241.57747024 eV

  energy without entropy =     -241.57747024  energy(sigma->0) =     -241.57747024


--------------------------------------------------------------------------------------------------------




--------------------------------------- Iteration      1(  11)  ---------------------------------------


    POTLOK:  cpu time      0.0545: real time      0.0560
    SETDIJ:  cpu time      0.4004: real time      0.4034
    EDDIAG:  cpu time      0.3650: real time      0.3690
  RMM-DIIS:  cpu time      1.1689: real time      1.1804
    ORTHCH:  cpu time      0.0692: real time      0.0706
       DOS:  cpu time      0.0005: real time      0.0005
    CHARGE:  cpu time      0.0649: real time      0.0672
    MIXING:  cpu time      0.0012: real time      0.0219
    --------------------------------------------
      LOOP:  cpu time      2.1246: real time      2.1690

 eigenvalue-minimisations  :  2816
 total energy-change (2. order) : 0.5471349E+01  (-0.4656289E+01)
 number of electron     240.0000024 magnetization      16.2788031
 augmentation part        1.7014076 magnetization      16.4601390

 Broyden mixing:
  rms(total) = 0.32952E+01    rms(broyden)= 0.32950E+01
  rms(prec ) = 0.34115E+01
  weight for this iteration     100.00

 eigenvalues of (default mixing * dielectric matrix)
  average eigenvalue GAMMA=   0.7250
  0.7250

 Free energy of the ion-electron system (eV)
  ---------------------------------------------------
  alpha Z        PSCENC =       302.76445894
  Ewald energy   TEWEN  =     -8846.61551041
  -Hartree energ DENC   =     -2144.13114298
  -exchange      EXHF   =         0.00000000
  -V(xc)+E(xc)   XCENC  =       542.62771725
  PAW double counting   =      8924.09676135    -9060.34528635
  entropy T*S    EENTRO =        -0.00000000
  eigenvalues    EBANDS =     -2657.64311471
  atomic energy  EATOM  =     12703.13999606
  Solvation  Ediel_sol  =         0.00000000
  ---------------------------------------------------
  free energy    TOTEN  =      -236.10612086 eV

  energy without entropy =     -236.10612086  energy(sigma->0) =     -236.10612086


--------------------------------------------------------------------------------------------------------




--------------------------------------- Iteration      1(  12)  ---------------------------------------


    POTLOK:  cpu time      0.0534: real time      0.0552
    SETDIJ:  cpu time      0.3988: real time      0.4012
    EDDIAG:  cpu time      0.3600: real time      0.3623
  RMM-DIIS:  cpu time      1.2434: real time      1.2556
    ORTHCH:  cpu time      0.0686: real time      0.0690
       DOS:  cpu time      0.0005: real time      0.0005
    CHARGE:  cpu time      0.0651: real time      0.0675
    MIXING:  cpu time      0.0011: real time      0.0011
    --------------------------------------------
      LOOP:  cpu time      2.1909: real time      2.2124

 eigenvalue-minimisations  :  2945
 total energy-change (2. order) :-0.1955337E+02  (-0.2105941E+01)
 number of electron     240.0000024 magnetization       0.4796463
 augmentation part        1.7975144 magnetization       0.8199331

 Broyden mixing:
  rms(total) = 0.20198E+01    rms(broyden)= 0.20198E+01
  rms(prec ) = 0.20812E+01
  weight for this iteration     100.00

 eigenvalues of (default mixing * dielectric matrix)
  average eigenvalue GAMMA=   1.1496
  1.6288  0.6705

 Free energy of the ion-electron system (eV)
  ---------------------------------------------------
  alpha Z        PSCENC =       302.76445894
  Ewald energy   TEWEN  =     -8846.61551041
  -Hartree energ DENC   =     -2167.85435914
  -exchange      EXHF   =         0.00000000
  -V(xc)+E(xc)   XCENC  =       536.27716011
  PAW double counting   =      9275.16621417    -9414.99793498
  entropy T*S    EENTRO =        -0.00000000
  eigenvalues    EBANDS =     -2643.53951179
  atomic energy  EATOM  =     12703.13999606
  Solvation  Ediel_sol  =         0.00000000
  ---------------------------------------------------
  free energy    TOTEN  =      -255.65948703 eV

  energy without entropy =     -255.65948703  energy(sigma->0) =     -255.65948703


--------------------------------------------------------------------------------------------------------




--------------------------------------- Iteration      1(  13)  ---------------------------------------


    POTLOK:  cpu time      0.0524: real time      0.0536
    SETDIJ:  cpu time      0.4045: real time      0.4065
    EDDIAG:  cpu time      0.3574: real time      0.3605
  RMM-DIIS:  cpu time      1.2831: real time      1.3017
    ORTHCH:  cpu time      0.0658: real time      0.0661
       DOS:  cpu time      0.0005: real time      0.0005
    CHARGE:  cpu time      0.0653: real time      0.0671
    MIXING:  cpu time      0.0010: real time      0.0010
    --------------------------------------------
      LOOP:  cpu time      2.2300: real time      2.2570

 eigenvalue-minimisations  :  2887
 total energy-change (2. order) :-0.2517604E+01  (-0.9096257E+00)
 number of electron     240.0000024 magnetization      -1.8629520
 augmentation part        1.9000724 magnetization      -1.7585262

 Broyden mixing:
  rms(total) = 0.67574E+00    rms(broyden)= 0.67574E+00
  rms(prec ) = 0.70867E+00
  weight for this iteration     100.00

 eigenvalues of (default mixing * dielectric matrix)
  average eigenvalue GAMMA=   1.3017
  2.5054  0.7470  0.6528

 Free energy of the ion-electron system (eV)
  ---------------------------------------------------
  alpha Z        PSCENC =       302.76445894
  Ewald energy   TEWEN  =     -8846.61551041
  -Hartree energ DENC   =     -2194.96347552
  -exchange      EXHF   =         0.00000000
  -V(xc)+E(xc)   XCENC  =       537.83445899
  PAW double counting   =      9775.50682108    -9919.27909029
  entropy T*S    EENTRO =        -0.00000000
  eigenvalues    EBANDS =     -2616.56474958
  atomic energy  EATOM  =     12703.13999606
  Solvation  Ediel_sol  =         0.00000000
  ---------------------------------------------------
  free energy    TOTEN  =      -258.17709073 eV

  energy without entropy =     -258.17709073  energy(sigma->0) =     -258.17709073


--------------------------------------------------------------------------------------------------------




--------------------------------------- Iteration      1(  14)  ---------------------------------------


    POTLOK:  cpu time      0.0519: real time      0.0532
    SETDIJ:  cpu time      0.4157: real time      0.4172
    EDDIAG:  cpu time      0.3572: real time      0.3596
  RMM-DIIS:  cpu time      1.5826: real time      1.5956
    ORTHCH:  cpu time      0.0689: real time      0.0693
       DOS:  cpu time      0.0005: real time      0.0005
    CHARGE:  cpu time      0.0650: real time      0.0664
    MIXING:  cpu time      0.0010: real time      0.0010
    --------------------------------------------
      LOOP:  cpu time      2.5428: real time      2.5627

 eigenvalue-minimisations  :  3780
 total energy-change (2. order) :-0.1865954E+00  (-0.1921390E+00)
 number of electron     240.0000024 magnetization      -0.8166442
 augmentation part        1.8671241 magnetization      -0.7899576

 Broyden mixing:
  rms(total) = 0.32386E+00    rms(broyden)= 0.32386E+00
  rms(prec ) = 0.35911E+00
  weight for this iteration     100.00

 eigenvalues of (default mixing * dielectric matrix)
  average eigenvalue GAMMA=   1.2695
  2.6135  1.1814  0.6902  0.5927

 Free energy of the ion-electron system (eV)
  ---------------------------------------------------
  alpha Z        PSCENC =       302.76445894
  Ewald energy   TEWEN  =     -8846.61551041
  -Hartree energ DENC   =     -2195.92126737
  -exchange      EXHF   =         0.00000000
  -V(xc)+E(xc)   XCENC  =       538.25103634
  PAW double counting   =      9850.55107428    -9995.11282619
  entropy T*S    EENTRO =        -0.00000000
  eigenvalues    EBANDS =     -2615.42064777
  atomic energy  EATOM  =     12703.13999606
  Solvation  Ediel_sol  =         0.00000000
  ---------------------------------------------------
  free energy    TOTEN  =      -258.36368612 eV

  energy without entropy =     -258.36368612  energy(sigma->0) =     -258.36368612


--------------------------------------------------------------------------------------------------------




--------------------------------------- Iteration      1(  15)  ---------------------------------------


    POTLOK:  cpu time      0.0513: real time      0.0527
    SETDIJ:  cpu time      0.3994: real time      0.4012
    EDDIAG:  cpu time      0.3611: real time      0.3636
  RMM-DIIS:  cpu time      1.2807: real time      1.2916
    ORTHCH:  cpu time      0.0691: real time      0.0701
       DOS:  cpu time      0.0006: real time      0.0006
    CHARGE:  cpu time      0.0667: real time      0.0675
    MIXING:  cpu time      0.0012: real time      0.0012
    --------------------------------------------
      LOOP:  cpu time      2.2300: real time      2.2483

 eigenvalue-minimisations  :  3053
 total energy-change (2. order) : 0.2936237E-01  (-0.3489186E-01)
 number of electron     240.0000024 magnetization      -0.2389696
 augmentation part        1.8179325 magnetization      -0.2119724

 Broyden mixing:
  rms(total) = 0.69122E-01    rms(broyden)= 0.69119E-01
  rms(prec ) = 0.80798E-01
  weight for this iteration     100.00

 eigenvalues of (default mixing * dielectric matrix)
  average eigenvalue GAMMA=   1.2707
  2.5377  1.5789  0.9515  0.6851  0.6003

 Free energy of the ion-electron system (eV)
  ---------------------------------------------------
  alpha Z        PSCENC =       302.76445894
  Ewald energy   TEWEN  =     -8846.61551041
  -Hartree energ DENC   =     -2191.09663911
  -exchange      EXHF   =         0.00000000
  -V(xc)+E(xc)   XCENC  =       537.88053890
  PAW double counting   =      9821.55718992    -9965.93347177
  entropy T*S    EENTRO =        -0.00000000
  eigenvalues    EBANDS =     -2620.03088628
  atomic energy  EATOM  =     12703.13999606
  Solvation  Ediel_sol  =         0.00000000
  ---------------------------------------------------
  free energy    TOTEN  =      -258.33432375 eV

  energy without entropy =     -258.33432375  energy(sigma->0) =     -258.33432375


--------------------------------------------------------------------------------------------------------




--------------------------------------- Iteration      1(  16)  ---------------------------------------


    POTLOK:  cpu time      0.0528: real time      0.0539
    SETDIJ:  cpu time      0.4060: real time      0.4073
    EDDIAG:  cpu time      0.3566: real time      0.3585
  RMM-DIIS:  cpu time      1.2860: real time      1.2968
    ORTHCH:  cpu time      0.0686: real time      0.0698
       DOS:  cpu time      0.0005: real time      0.0005
    CHARGE:  cpu time      0.0649: real time      0.0661
    MIXING:  cpu time      0.0012: real time      0.0012
    --------------------------------------------
      LOOP:  cpu time      2.2366: real time      2.2540

 eigenvalue-minimisations  :  3082
 total energy-change (2. order) :-0.2006500E-01  (-0.1083514E-01)
 number of electron     240.0000024 magnetization      -0.1231914
 augmentation part        1.7959345 magnetization      -0.1084539

 Broyden mixing:
  rms(total) = 0.31994E-01    rms(broyden)= 0.31992E-01
  rms(prec ) = 0.38807E-01
  weight for this iteration     100.00

 eigenvalues of (default mixing * dielectric matrix)
  average eigenvalue GAMMA=   1.2445
  2.4601  1.9119  1.0401  0.6200  0.6999  0.7352

 Free energy of the ion-electron system (eV)
  ---------------------------------------------------
  alpha Z        PSCENC =       302.76445894
  Ewald energy   TEWEN  =     -8846.61551041
  -Hartree energ DENC   =     -2190.63406080
  -exchange      EXHF   =         0.00000000
  -V(xc)+E(xc)   XCENC  =       537.81018603
  PAW double counting   =      9811.99201650    -9956.15587741
  entropy T*S    EENTRO =        -0.00000000
  eigenvalues    EBANDS =     -2620.65559766
  atomic energy  EATOM  =     12703.13999606
[...]
 -0.004   0.003   0.000  -0.001   0.003   0.000  -0.000   0.000   0.000  -0.000   0.000  -0.000   0.000  -0.000
 -0.002   0.001   0.000  -0.000   0.000   0.006  -0.000   0.000   0.000  -0.000  -0.000   0.000  -0.000  -0.000
 -0.001   0.001   0.000   0.004  -0.006  -0.004   0.000  -0.000  -0.000   0.000   0.000   0.000  -0.000   0.000
 -0.021   0.022   0.000   0.002   0.001  -0.006   0.000   0.000  -0.000   0.000   0.000  -0.000   0.000  -0.000
 -0.014   0.014   0.000   0.003  -0.003   0.006   0.000  -0.000   0.000   0.000  -0.000   0.000  -0.000  -0.000
  0.003  -0.003  -0.000  -0.006   0.006  -0.004  -0.000   0.000  -0.000  -0.000   0.000  -0.000   0.000   0.000
  0.026  -0.026  -0.000  -0.000  -0.003  -0.009  -0.000  -0.000  -0.000   0.000  -0.000  -0.000   0.000   0.000
 total augmentation occupancy for first ion, spin component:           2
 -0.000   0.000   0.000  -0.000   0.000  -0.000   0.000   0.000   0.000  -0.000  -0.000   0.000  -0.000  -0.000
  0.000  -0.000  -0.000   0.000  -0.000   0.000  -0.000  -0.000   0.000   0.000   0.000   0.000   0.000  -0.000
  0.000  -0.000  -0.000   0.000  -0.000   0.000  -0.000  -0.000   0.000  -0.000  -0.000  -0.000  -0.000   0.000
 -0.000   0.000   0.000  -0.000   0.000  -0.000  -0.000  -0.000  -0.000   0.000   0.000   0.000   0.000   0.000
  0.000  -0.000  -0.000   0.000   0.000   0.000  -0.000  -0.000   0.000   0.000  -0.000  -0.000  -0.000  -0.000
 -0.000   0.000   0.000  -0.000   0.000  -0.000   0.000   0.000  -0.000  -0.000   0.000   0.000  -0.000  -0.000
  0.000  -0.000  -0.000  -0.000  -0.000   0.000  -0.000  -0.000   0.000   0.000  -0.000   0.000  -0.000   0.000
  0.000  -0.000  -0.000  -0.000  -0.000   0.000  -0.000  -0.000   0.000   0.000  -0.000  -0.000  -0.000   0.000
  0.000   0.000   0.000  -0.000   0.000  -0.000   0.000   0.000  -0.000  -0.000   0.000   0.000   0.000  -0.000
 -0.000   0.000  -0.000   0.000   0.000  -0.000   0.000   0.000  -0.000   0.000   0.000   0.000  -0.000   0.000
 -0.000   0.000  -0.000   0.000  -0.000   0.000  -0.000  -0.000   0.000   0.000   0.000  -0.000  -0.000  -0.000
  0.000   0.000  -0.000   0.000  -0.000   0.000   0.000  -0.000   0.000   0.000  -0.000   0.000  -0.000   0.000
 -0.000   0.000  -0.000   0.000  -0.000  -0.000  -0.000  -0.000   0.000  -0.000  -0.000  -0.000  -0.000  -0.000
 -0.000  -0.000   0.000   0.000  -0.000  -0.000   0.000   0.000  -0.000   0.000  -0.000   0.000  -0.000   0.000


------------------------ aborting loop because EDIFF is reached ----------------------------------------


    CHARGE:  cpu time      0.0652: real time      0.0656
    FORLOC:  cpu time      0.0038: real time      0.0038
    FORNL :  cpu time      0.3998: real time      0.4025
    STRESS:  cpu time      1.1913: real time      1.1986
    FORCOR:  cpu time      0.0500: real time      0.0504
    FORHAR:  cpu time      0.0085: real time      0.0086
    MIXING:  cpu time      0.0007: real time      0.0007
    OFIELD:  cpu time      0.0000: real time      0.0000

 ---------------------------------------------------------------------------------------------

         DFTD3 V3.0 Rev 1        
 Edisp (eV)  -13.66196

 E6    (eV) :    -8.4178
 E8    (eV) :    -5.2441
 % E8        : 38.38
    FORVDW:  cpu time      0.2880: real time      0.2898

  FORCE on cell =-STRESS in cart. coord.  units (eV):
  Direction    XX          YY          ZZ          XY          YZ          ZX
  --------------------------------------------------------------------------------------
  Alpha Z   302.76446   302.76446   302.76446
  Ewald   -2947.21606 -2974.13336 -2925.44008    36.53329    30.34551     4.70353
  Hartree   725.74142   718.56754   748.74909    29.59472     5.88153     4.51724
  E(xc)    -947.66361  -947.75301  -947.72570     0.05241     0.07636    -0.00049
  Local   -1484.90478 -1455.01362 -1534.87084   -68.70682   -32.59873    -9.17403
  n-local  1481.18937  1481.35116  1482.30507    -0.09729     1.04473    -0.77336
  augment  -356.72872  -357.12070  -357.29137    -0.15792     0.06674    -0.03090
  Kinetic  3239.71097  3245.95500  3247.27309     4.33642    -3.79825     1.62887
  Fock        0.00000     0.00000     0.00000     0.00000     0.00000     0.00000
  vdW       -14.44485   -14.41886   -14.44064    -0.01461    -0.00341     0.01407
  -------------------------------------------------------------------------------------
  Total      -1.55178     0.19862     1.32308     1.54020     1.01448     0.88494
  in kB      -2.77296     0.35492     2.36428     2.75226     1.81283     1.58134
  external pressure =       -0.02 kB  Pullay stress =        0.00 kB


 VOLUME and BASIS-vectors are now :
 -----------------------------------------------------------------------------
  energy-cutoff  :      520.00
  volume of cell :      896.60
      direct lattice vectors                 reciprocal lattice vectors
     9.642707344  0.000000000  0.000000000     0.103705315  0.000000000  0.000000000
     0.000000000  9.642707344  0.000000000     0.000000000  0.103705315  0.000000000
     0.000000000  0.000000000  9.642707344     0.000000000  0.000000000  0.103705315

  length of vectors
     9.642707344  9.642707344  9.642707344     0.103705315  0.103705315  0.103705315


 FORCES acting on ions
    electron-ion (+dipol)            ewald-force                    non-local-force                 convergence-correction
 -----------------------------------------------------------------------------------------------
   -.819E+01 -.620E+00 -.427E+01   0.756E+01 -.424E+00 0.323E+01   0.624E+00 0.104E+01 0.104E+01   0.202E-03 0.166E-04 -.201E-03
   -.104E+02 0.158E+02 0.185E+02   0.101E+02 -.154E+02 -.175E+02   0.282E+00 -.410E+00 -.996E+00   0.467E-04 0.547E-04 -.597E-04
   0.225E+01 0.371E+01 -.607E+01   -.386E+00 -.321E+01 0.472E+01   -.186E+01 -.489E+00 0.135E+01   0.118E-03 -.392E-04 0.763E-05
   -.812E+00 -.374E+00 0.312E+01   0.176E+01 0.101E+01 -.410E+01   -.948E+00 -.632E+00 0.979E+00   0.150E-03 -.661E-04 0.885E-04
   0.281E+01 -.149E+02 -.820E+01   -.310E+01 0.139E+02 0.748E+01   0.292E+00 0.101E+01 0.721E+00   0.107E-03 -.212E-04 -.273E-04
   -.499E+01 0.181E+01 0.261E+01   0.585E+01 -.259E+01 -.186E+01   -.872E+00 0.781E+00 -.739E+00   -.200E-04 0.272E-04 0.220E-04
   0.784E+01 -.105E+01 -.580E+01   -.689E+01 -.602E-03 0.662E+01   -.961E+00 0.105E+01 -.814E+00   -.785E-04 -.399E-04 0.133E-03
   0.382E+01 -.282E+01 -.837E+01   -.315E+01 0.354E+01 0.857E+01   -.678E+00 -.716E+00 -.201E+00   -.592E-04 0.555E-04 0.585E-05
   -.130E+01 -.103E+02 -.307E+01   0.230E+01 0.996E+01 0.390E+01   -.100E+01 0.383E+00 -.831E+00   0.484E-04 0.610E-04 0.547E-04
   0.257E+01 0.279E+01 0.852E+01   -.357E+01 -.130E+01 -.722E+01   0.100E+01 -.149E+01 -.131E+01   -.597E-04 0.150E-04 -.364E-04
   -.402E+01 -.758E+00 -.379E+01   0.501E+01 0.820E+00 0.471E+01   -.995E+00 -.603E-01 -.930E+00   -.808E-04 -.120E-03 -.733E-04
   -.117E+02 -.186E+01 0.110E+02   0.105E+02 0.258E+01 -.995E+01   0.119E+01 -.714E+00 -.100E+01   0.693E-04 0.791E-04 0.601E-04
   -.466E+01 0.646E+01 -.197E+01   0.523E+01 -.512E+01 0.138E+01   -.564E+00 -.135E+01 0.584E+00   0.287E-04 -.446E-04 -.110E-03
   0.181E+02 -.146E+02 0.212E-01   -.161E+02 0.123E+02 0.192E+01   -.201E+01 0.228E+01 -.194E+01   0.110E-03 -.856E-04 -.219E-04
   -.339E+01 0.192E+01 0.513E+01   0.216E+01 -.928E+00 -.447E+01   0.123E+01 -.997E+00 -.659E+00   0.101E-03 0.235E-04 -.453E-04
   0.480E+01 -.135E+01 0.334E+01   -.381E+01 0.258E+01 -.430E+01   -.982E+00 -.123E+01 0.959E+00   0.533E-04 -.106E-03 -.806E-04
   0.474E+00 0.109E+01 -.101E+02   -.100E+01 -.308E+01 0.851E+01   0.522E+00 0.198E+01 0.154E+01   0.990E-05 -.516E-04 0.138E-04
   -.678E+01 0.327E+01 0.865E+01   0.568E+01 -.242E+01 -.740E+01   0.110E+01 -.852E+00 -.125E+01   -.151E-03 -.161E-03 0.112E-03
   0.155E+01 0.289E+01 0.262E+00   -.232E+01 -.386E+01 -.142E+01   0.775E+00 0.971E+00 0.116E+01   0.478E-04 0.193E-04 0.366E-04
   0.735E+01 0.786E+01 -.293E+01   -.653E+01 -.742E+01 0.199E+01   -.825E+00 -.436E+00 0.938E+00   -.953E-04 0.684E-04 0.645E-04
   0.279E+01 -.410E+01 0.151E+01   -.437E+01 0.485E+01 -.494E+00   0.158E+01 -.750E+00 -.102E+01   -.138E-03 -.282E-04 -.467E-04
   0.807E+01 -.141E+02 -.952E+01   -.864E+01 0.127E+02 0.779E+01   0.568E+00 0.136E+01 0.172E+01   -.116E-03 0.644E-05 -.342E-04
   0.969E+01 0.957E+01 -.104E+02   -.940E+01 -.828E+01 0.879E+01   -.286E+00 -.129E+01 0.162E+01   -.165E-03 0.681E-04 -.775E-04
   0.100E+02 -.409E+01 0.800E+01   -.972E+01 0.293E+01 -.685E+01   -.283E+00 0.116E+01 -.116E+01   -.519E-04 0.354E-04 -.551E-04
   0.729E+01 0.818E+01 0.829E+01   -.759E+01 -.833E+01 -.847E+01   0.297E+00 0.154E+00 0.171E+00   -.252E-03 -.405E-04 -.187E-04
   0.991E+01 -.274E+01 -.463E+01   -.104E+02 0.358E+01 0.531E+01   0.463E+00 -.841E+00 -.678E+00   -.272E-03 0.175E-03 0.406E-04
   -.769E+01 0.715E+01 -.137E+02   0.796E+01 -.769E+01 0.144E+02   -.253E+00 0.527E+00 -.717E+00   0.216E-04 0.430E-04 0.368E-03
   -.134E+02 -.731E+01 0.378E+01   0.135E+02 0.767E+01 -.342E+01   -.292E-01 -.352E+00 -.360E+00   0.197E-03 0.480E-05 -.549E-04
   -.483E+02 0.385E+02 -.282E+02   0.508E+02 -.420E+02 0.312E+02   -.255E+01 0.353E+01 -.297E+01   0.113E-04 0.143E-03 -.172E-03
   -.597E+02 -.365E+02 0.325E+02   0.640E+02 0.391E+02 -.349E+02   -.431E+01 -.263E+01 0.241E+01   0.836E-04 0.605E-04 -.124E-03
   0.471E+02 0.142E+02 0.508E+02   -.511E+02 -.156E+02 -.539E+02   0.407E+01 0.148E+01 0.313E+01   0.138E-03 0.771E-04 0.881E-04
   0.463E+01 -.674E+02 -.548E+02   -.607E+01 0.712E+02 0.583E+02   0.145E+01 -.379E+01 -.352E+01   0.500E-03 -.222E-03 -.491E-04
   0.416E+02 -.459E+02 -.282E+02   -.450E+02 0.496E+02 0.305E+02   0.347E+01 -.366E+01 -.230E+01   0.499E-03 -.305E-03 -.177E-03
   0.193E+02 0.676E+02 0.382E+02   -.211E+02 -.714E+02 -.410E+02   0.181E+01 0.382E+01 0.279E+01   0.122E-03 0.843E-04 0.303E-03
   -.575E+02 -.221E+02 0.418E+02   0.604E+02 0.240E+02 -.452E+02   -.290E+01 -.190E+01 0.344E+01   -.976E-04 0.100E-03 0.457E-04
   -.586E+02 0.553E+02 -.350E+02   0.624E+02 -.588E+02 0.366E+02   -.371E+01 0.343E+01 -.163E+01   0.426E-04 -.119E-03 0.579E-03
   -.522E+02 -.358E+02 0.175E+02   0.563E+02 0.384E+02 -.195E+02   -.411E+01 -.267E+01 0.203E+01   -.342E-03 -.194E-03 0.207E-03
   -.312E+02 0.342E+02 -.506E+02   0.338E+02 -.367E+02 0.538E+02   -.268E+01 0.248E+01 -.323E+01   -.266E-04 0.908E-04 0.951E-04
   0.563E+02 -.627E+02 -.238E+02   -.599E+02 0.671E+02 0.249E+02   0.369E+01 -.440E+01 -.117E+01   0.741E-04 0.368E-04 0.525E-04
   0.389E+02 0.461E+02 0.240E+02   -.414E+02 -.502E+02 -.265E+02   0.259E+01 0.413E+01 0.259E+01   -.210E-05 0.238E-03 -.219E-04
   -.111E+02 -.447E+02 0.583E+02   0.129E+02 0.480E+02 -.620E+02   -.176E+01 -.335E+01 0.375E+01   -.208E-03 -.105E-04 0.126E-03
   -.553E+02 0.422E+02 -.156E+02   0.597E+02 -.446E+02 0.176E+02   -.444E+01 0.248E+01 -.209E+01   -.432E-03 0.281E-03 -.182E-03
   0.567E+02 -.234E+02 -.470E+02   -.598E+02 0.256E+02 0.505E+02   0.311E+01 -.217E+01 -.349E+01   0.302E-04 -.405E-04 -.230E-03
   0.470E+02 0.442E+02 0.483E+02   -.503E+02 -.469E+02 -.512E+02   0.331E+01 0.273E+01 0.291E+01   -.186E-03 -.869E-04 -.175E-03
   -.490E+01 -.939E+01 -.127E+02   0.506E+01 0.946E+01 0.131E+02   -.162E+00 -.706E-01 -.418E+00   -.239E-04 0.308E-04 -.157E-03
   -.251E+01 0.283E+01 0.677E+01   0.254E+01 -.299E+01 -.689E+01   -.289E-01 0.152E+00 0.124E+00   0.140E-03 -.991E-04 -.207E-03
   -.200E+02 0.201E+01 -.347E+01   0.204E+02 -.214E+01 0.354E+01   -.392E+00 0.131E+00 -.652E-01   -.614E-04 0.116E-04 0.742E-04
   0.164E+02 -.531E+01 -.141E+02   -.166E+02 0.531E+01 0.146E+02   0.192E+00 -.412E-02 -.555E+00   -.223E-03 -.649E-04 -.347E-03
   0.123E+02 -.245E+02 0.103E+01   -.125E+02 0.249E+02 -.104E+01   0.250E+00 -.346E+00 0.120E-01   0.109E-03 -.823E-04 -.283E-04
   -.212E+02 0.421E+02 -.527E+01   0.215E+02 -.427E+02 0.498E+01   -.268E+00 0.666E+00 0.294E+00   0.127E-03 0.369E-03 -.269E-03
   0.336E+02 -.769E+01 0.423E+02   -.342E+02 0.795E+01 -.429E+02   0.542E+00 -.250E+00 0.562E+00   -.154E-03 -.147E-03 0.172E-03
   0.318E+02 0.497E+01 -.329E+02   -.322E+02 -.497E+01 0.336E+02   0.364E+00 0.373E-03 -.728E+00   -.126E-03 -.618E-04 0.936E-04
 -----------------------------------------------------------------------------------------------
   0.507E+01 0.132E+00 -.645E-01   0.711E-14 -.693E-13 0.213E-13   -.509E+01 -.122E+00 0.607E-01   -.232E-03 0.392E-04 -.241E-03
 
 
 POSITION                                       TOTAL-FORCE (eV/Angst)
 -----------------------------------------------------------------------------------
      9.53623      2.84771      2.79755        -0.000050      0.000421      0.000451
      9.01804      5.31704      6.77567        -0.000131     -0.000288     -0.000019
      0.63746      1.92044      8.43200         0.000309      0.000195      0.000580
      0.15477      7.04404      2.64877        -0.000033      0.000186     -0.000164
      9.35646      8.04850      7.93054         0.000095     -0.000049     -0.000166
      2.04422      7.69454      0.11798         0.000007     -0.000097     -0.000150
      6.54258      3.11650      0.31735        -0.000297     -0.000056      0.000067
      6.35327      6.93174      9.45714        -0.000200      0.000165     -0.000104
      1.87344      9.60133      1.92171        -0.000044     -0.000011     -0.000136
      2.85116      0.17516      6.69891        -0.000042     -0.000079     -0.000014
      6.99080      9.40667      6.85356         0.000093     -0.000016     -0.000029
      7.94624      0.40118      1.46180         0.000129      0.000152     -0.000069
      2.01349      6.51910      4.54348         0.000003     -0.000173     -0.000147
      1.91140      3.10592      5.22060        -0.000035      0.000049      0.000109
      7.72013      6.91283      4.95103         0.000132     -0.000058     -0.000077
      7.06900      1.58830      4.53403         0.000180      0.000087      0.000077
      2.99258      4.37999      8.18888        -0.000001     -0.000056      0.000135
      3.21715      5.24127      1.71804        -0.000063     -0.000022     -0.000013
      7.47407      4.69738      2.88222        -0.000401      0.000162     -0.000338
      6.36962      4.96568      7.66691        -0.000135     -0.000021      0.000079
      4.76370      2.10226      6.82941         0.000128      0.000002     -0.000086
      4.44637      8.18185      3.15834        -0.000070      0.000076     -0.000078
      5.01529      1.98019      2.72178         0.000056     -0.000409      0.000369
      5.10870      7.62260      6.46678         0.000045      0.000016     -0.000292
      4.83793      4.82125      4.79567        -0.000384     -0.000019     -0.000310
      4.84738      0.10678      0.01214        -0.000084     -0.000278      0.000247
      9.58673      4.88800      0.01334         0.000695     -0.000337      0.000245
      0.10501      0.05390      4.89449         0.000361     -0.000167     -0.000782
      1.17240      8.30275      5.95708        -0.000333      0.000366     -0.000279
      1.35830      1.25161      3.79383        -0.000394     -0.000177      0.000398
      8.41341      8.75904      3.63222         0.000291      0.000297      0.000523
      8.73079      1.22917      6.22433         0.000324     -0.000377     -0.000337
      8.33645      6.09420      1.10092         0.000354     -0.000264     -0.000447
      8.42602      3.67027      8.45745         0.000117      0.000346      0.000369
      1.09312      6.02791      8.35423        -0.000503     -0.000360      0.000326
      1.25529      3.74225      1.05435        -0.000487      0.000167     -0.000185
      6.19630      1.19892      8.54370        -0.000361     -0.000205      0.000188
      5.96733      8.66833      1.36568        -0.000402      0.000476     -0.000469
      3.57589      1.35083      0.97395         0.000370     -0.000188     -0.000255
      3.87138      8.40897      8.42272         0.000367      0.000448      0.000311
      5.83526      6.21966      3.66005        -0.000306     -0.000329      0.000511
      6.23269      3.64005      5.73889        -0.000278      0.000416     -0.000145
      3.66051      5.80087      6.16339         0.000359     -0.000331     -0.000310
      3.61022      3.72251      3.58446         0.000365      0.000251      0.000467
      7.29860      7.10209      7.22070        -0.000002     -0.000010     -0.000094
      7.28814      2.46115      2.40292        -0.000072      0.000111      0.000102
      2.40734      7.35270      2.38502        -0.000091      0.000012     -0.000108
      2.55655      2.36008      7.24329         0.000119     -0.000034      0.000024
      0.23899      9.52924      0.08257         0.000093     -0.000058      0.000076
      9.56135      5.09353      4.47287        -0.000063      0.000152      0.000013
      5.06728      0.07966      5.13430         0.000051      0.000022      0.000179
      4.95260      4.90219      9.57343         0.000218     -0.000107     -0.000245
 -----------------------------------------------------------------------------------
    total drift:                               -0.010954      0.010082     -0.003991


--------------------------------------------------------------------------------------------------------



  FREE ENERGIE OF THE ION-ELECTRON SYSTEM (eV)
  ---------------------------------------------------
  free  energy   TOTEN  =      -272.02366106 eV

  energy  without entropy=     -272.02366106  energy(sigma->0) =     -272.02366106
 
 d Force = 0.7979397E-06[ 0.254E-06, 0.134E-05]  d Energy = 0.1058375E-05-0.260E-06
 d Force = 0.2376870E-01[ 0.238E-01, 0.238E-01]  d Ewald  = 0.2376851E-01 0.184E-06


--------------------------------------------------------------------------------------------------------


    POTLOK:  cpu time      0.4612: real time      0.4628


--------------------------------------------------------------------------------------------------------


 stress matrix after NEB project (eV)
     -1.55178      1.54020      0.88494
      1.54020      0.19862      1.01448
      0.88494      1.01448      1.32308
  FORCES: max atom, RMS     0.000877    0.000444
  FORCE total and by dimension    0.003202    0.000782
  Stress total and by dimension    3.544990    1.551778
 Conjugate gradient step on ions:
 trial-energy change:   -0.000001  1 .order   -0.000001   -0.000001   -0.000000
  (g-gl).g = 0.105E-05      g.g   = 0.102E-05  gl.gl    = 0.163E-05
 g(Force)  = 0.102E-05   g(Stress)= 0.000E+00 ortho     =-0.312E-07
 gamma     =   0.64428
 trial     =   1.34736
 opt step  =   1.66141  (harmonic =   1.66141) maximal distance =0.00010122
 next E    =  -272.023661   (d E  =  -0.00000)


--------------------------------------------------------------------------------------------------------


  
 reached required accuracy - stopping structural energy minimisation
     LOOP+:  cpu time      7.7661: real time      7.8982
    4ORBIT:  cpu time      0.0000: real time      0.0000

 total amount of memory used by VASP MPI-rank0    48218. kBytes
=======================================================================

   base      :      30000. kBytes
   nonlr-proj:       6581. kBytes
   fftplans  :       1747. kBytes
   grid      :       5278. kBytes
   one-center:         62. kBytes
   wavefun   :       4550. kBytes
 
  
  
 General timing and accounting informations for this job:
 ========================================================
  
                  Total CPU time used (sec):      118.182
                            User time (sec):      116.939
                          System time (sec):        1.243
                         Elapsed time (sec):      122.892
  
                   Maximum memory used (kb):      394104.
                   Average memory used (kb):          N/A
  
                          Minor page faults:        62983
                          Major page faults:          140
                 Voluntary context switches:         5040
