<?xml version="1.0" encoding="ISO-8859-1"?>
<modeling>
 <generator>
  <i name="program" type="string">vasp </i>
  <i name="version" type="string">6.4.1  </i>
  <i name="subversion" type="string">05Apr23 (build Jun 07 2023 15:38:11) complex                          parallel </i>
  <i name="platform" type="string">LinuxIFC </i>
  <i name="date" type="string">2023 10 19 </i>
  <i name="time" type="string">05:20:00 </i>
 </generator>
 <incar>
  <i type="string" name="PREC">Accu</i>
  <i type="string" name="ALGO">F</i>
  <i type="logical" name="LDIAG"> T  </i>
  <i type="int" name="ISPIN">     2</i>
  <i type="int" name="NELM">   100</i>
  <i type="int" name="NELMDL">   -10</i>
  <i type="int" name="IBRION">     2</i>
  <i name="EDIFF">      0.00000100</i>
  <i name="EDIFFG">     -0.00100000</i>
  <i type="int" name="NSW">  1000</i>
  <i type="int" name="ISIF">     2</i>
  <i name="ENCUT">    520.00000000</i>
  <i name="POTIM">      0.20000000</i>
  <i type="string" name="LREAL">Auto</i>
  <i type="logical" name="LPLANE"> T  </i>
  <i type="int" name="ISMEAR">     0</i>
  <i name="SIGMA">      0.03000000</i>
  <i type="int" name="LMAXMIX">     4</i>
  <i type="logical" name="LWAVE"> F  </i>
  <i type="logical" name="LCHARG"> F  </i>
  <i type="logical" name="LASPH"> T  </i>
  <i type="string" name="GGA">PE</i>
  <i type="int" name="IVDW">    12</i>
 </incar>
 <primitive_cell>
  <structure name="primitive_cell" >
   <crystal>
    <varray name="basis" >
     <v>       9.64270734       0.00000000       0.00000000 </v>
     <v>       0.00000000       9.64270734       0.00000000 </v>
     <v>       0.00000000       0.00000000       9.64270734 </v>
    </varray>
    <i name="volume">    896.59633311 </i>
    <varray name="rec_basis" >
     <v>       0.10370531       0.00000000       0.00000000 </v>
     <v>       0.00000000       0.10370531       0.00000000 </v>
     <v>       0.00000000       0.00000000       0.10370531 </v>
    </varray>
   </crystal>
   <varray name="positions" >
    <v>       0.98896189       0.29530728       0.29010286 </v>
    <v>       0.93522420       0.55141367       0.70267455 </v>
    <v>       0.06609844       0.19915152       0.87442337 </v>
    <v>       0.01605119       0.73049906       0.27469582 </v>
    <v>       0.97031506       0.83467360       0.82244488 </v>
    <v>       0.21199589       0.79796601       0.01223973 </v>
    <v>       0.67850968       0.32320199       0.03290730 </v>
    <v>       0.65887185       0.71885415       0.98075963 </v>
    <v>       0.19428522       0.99570652       0.19929534 </v>
    <v>       0.29568126       0.01816646       0.69471372 </v>
    <v>       0.72498060       0.97552324       0.71075064 </v>
    <v>       0.82406318       0.04159980       0.15159842 </v>
    <v>       0.20880977       0.67606988       0.47118675 </v>
    <v>       0.19822361       0.32209698       0.54140315 </v>
    <v>       0.80061304       0.71690079       0.51345111 </v>
    <v>       0.73308721       0.16471216       0.47020002 </v>
    <v>       0.31034680       0.45422848       0.84922672 </v>
    <v>       0.33363762       0.54355117       0.17816879 </v>
    <v>       0.77511214       0.48713875       0.29891171 </v>
    <v>       0.66056676       0.51496615       0.79509677 </v>
    <v>       0.49402036       0.21801622       0.70824896 </v>
    <v>       0.46111448       0.84849992       0.32753826 </v>
    <v>       0.52011247       0.20537108       0.28224933 </v>
    <v>       0.52979743       0.79050245       0.67064959 </v>
    <v>       0.50171755       0.49999012       0.49732981 </v>
    <v>       0.50269962       0.01106639       0.00126282 </v>
    <v>       0.99420524       0.50690982       0.00138403 </v>
    <v>       0.01089263       0.00558822       0.50757856 </v>
    <v>       0.12157670       0.86104930       0.61778458 </v>
    <v>       0.14085864       0.12979417       0.39344996 </v>
    <v>       0.87252052       0.90836059       0.37669072 </v>
    <v>       0.90542623       0.12746783       0.64548924 </v>
    <v>       0.86454223       0.63199228       0.11417167 </v>
    <v>       0.87382586       0.38063542       0.87708274 </v>
    <v>       0.11335669       0.62513158       0.86638505 </v>
    <v>       0.13017074       0.38810217       0.10934024 </v>
    <v>       0.64258048       0.12433277       0.88602982 </v>
    <v>       0.61883821       0.89895275       0.14162404 </v>
    <v>       0.37084365       0.14008024       0.10099676 </v>
    <v>       0.40148264       0.87206422       0.87348475 </v>
    <v>       0.60514775       0.64500334       0.37956884 </v>
    <v>       0.64635379       0.37749505       0.59515185 </v>
    <v>       0.37962228       0.60157952       0.63916749 </v>
    <v>       0.37440198       0.38605006       0.37173525 </v>
    <v>       0.75690243       0.73652545       0.74882395 </v>
    <v>       0.75581938       0.25523268       0.24919412 </v>
    <v>       0.24965258       0.76251514       0.24734179 </v>
    <v>       0.26512371       0.24475553       0.75116324 </v>
    <v>       0.02478474       0.98823468       0.00856459 </v>
    <v>       0.99156109       0.52823241       0.46386131 </v>
    <v>       0.52550428       0.00825692       0.53246317 </v>
    <v>       0.51361525       0.50837878       0.99280771 </v>
   </varray>
  </structure>
  <varray name="primitive_index" >
   <v type="int" >        1 </v>
   <v type="int" >        2 </v>
   <v type="int" >        3 </v>
   <v type="int" >        4 </v>
   <v type="int" >        5 </v>
   <v type="int" >        6 </v>
   <v type="int" >        7 </v>
   <v type="int" >        8 </v>
   <v type="int" >        9 </v>
   <v type="int" >       10 </v>
   <v type="int" >       11 </v>
   <v type="int" >       12 </v>
   <v type="int" >       13 </v>
   <v type="int" >       14 </v>
   <v type="int" >       15 </v>
   <v type="int" >       16 </v>
   <v type="int" >       17 </v>
   <v type="int" >       18 </v>
   <v type="int" >       19 </v>
   <v type="int" >       20 </v>
   <v type="int" >       21 </v>
   <v type="int" >       22 </v>
   <v type="int" >       23 </v>
   <v type="int" >       24 </v>
   <v type="int" >       25 </v>
   <v type="int" >       26 </v>
   <v type="int" >       27 </v>
   <v type="int" >       28 </v>
   <v type="int" >       29 </v>
   <v type="int" >       30 </v>
   <v type="int" >       31 </v>
   <v type="int" >       32 </v>
   <v type="int" >       33 </v>
   <v type="int" >       34 </v>
   <v type="int" >       35 </v>
   <v type="int" >       36 </v>
   <v type="int" >       37 </v>
   <v type="int" >       38 </v>
   <v type="int" >       39 </v>
   <v type="int" >       40 </v>
   <v type="int" >       41 </v>
   <v type="int" >       42 </v>
   <v type="int" >       43 </v>
   <v type="int" >       44 </v>
   <v type="int" >       45 </v>
   <v type="int" >       46 </v>
   <v type="int" >       47 </v>
   <v type="int" >       48 </v>
   <v type="int" >       49 </v>
   <v type="int" >       50 </v>
   <v type="int" >       51 </v>
   <v type="int" >       52 </v>
  </varray>
 </primitive_cell>
 <kpoints>
  <generation param="Monkhorst-Pack">
   <v type="int" name="divisions">       2        2        2 </v>
   <v name="usershift">      0.00000000       0.00000000       0.00000000 </v>
   <v name="genvec1">      0.50000000       0.00000000       0.00000000 </v>
   <v name="genvec2">      0.00000000       0.50000000       0.00000000 </v>
   <v name="genvec3">      0.00000000       0.00000000       0.50000000 </v>
   <v name="shift">      0.50000000       0.50000000       0.50000000 </v>
  </generation>
  <varray name="kpointlist" >
   <v>       0.25000000       0.25000000       0.25000000 </v>
   <v>      -0.25000000       0.25000000       0.25000000 </v>
   <v>      -0.25000000      -0.25000000       0.25000000 </v>
   <v>       0.25000000      -0.25000000       0.25000000 </v>
  </varray>
  <varray name="weights" >
   <v>       0.25000000 </v>
   <v>       0.25000000 </v>
   <v>       0.25000000 </v>
   <v>       0.25000000 </v>
  </varray>
 </kpoints>
 <parameters>
  <separator name="general" >
   <i type="string" name="SYSTEM">unknown system</i>
   <i type="logical" name="LCOMPAT"> F  </i>
  </separator>
  <separator name="electronic" >
   <i type="string" name="PREC">accu</i>
   <i name="ENMAX">    520.00000000</i>
   <i name="ENAUG">   1041.69900000</i>
   <i name="EDIFF">      0.00000100</i>
   <i type="int" name="IALGO">    68</i>
   <i type="int" name="IWAVPR">    11</i>
   <i type="int" name="NBANDS">   176</i>
   <i type="int" name="NBANDSLOW">    -1</i>
   <i type="int" name="NBANDSHIGH">    -1</i>
   <i name="NELECT">    240.00000000</i>
   <i type="int" name="TURBO">     0</i>
   <i type="int" name="IRESTART">     0</i>
   <i type="int" name="NREBOOT">     0</i>
   <i type="int" name="NMIN">     0</i>
   <i name="EREF">      0.00000000</i>
   <separator name="electronic smearing" >
    <i type="int" name="ISMEAR">     0</i>
    <i name="SIGMA">      0.03000000</i>
    <i name="KSPACING">      0.50000000</i>
    <i type="logical" name="KGAMMA"> T  </i>
    <i type="logical" name="KBLOWUP"> T  </i>
   </separator>
   <separator name="electronic projectors" >
    <i type="logical" name="LREAL"> T  </i>
    <v name="ROPT">     -0.00025000     -0.00025000     -0.00025000     -0.00025000</v>
    <i type="int" name="LMAXPAW">  -100</i>
    <i type="int" name="LMAXMIX">     4</i>
    <i type="logical" name="NLSPLINE"> F  </i>
   </separator>
   <separator name="electronic startup" >
    <i type="int" name="ISTART">     0</i>
    <i type="int" name="ICHARG">     2</i>
    <i type="int" name="INIWAV">     1</i>
   </separator>
   <separator name="electronic spin" >
    <i type="int" name="ISPIN">     2</i>
    <i type="logical" name="LNONCOLLINEAR"> F  </i>
    <v name="MAGMOM">      1.00000000      1.00000000      1.00000000      1.00000000      1.00000000      1.00000000      1.00000000      1.00000000      1.00000000      1.00000000      1.00000000      1.00000000      1.00000000      1.00000000      1.00000000      1.00000000      1.00000000      1.00000000      1.00000000      1.00000000
      1.00000000      1.00000000      1.00000000      1.00000000      1.00000000      1.00000000      1.00000000      1.00000000      1.00000000      1.00000000      1.00000000      1.00000000      1.00000000      1.00000000      1.00000000      1.00000000      1.00000000      1.00000000      1.00000000      1.00000000
      1.00000000      1.00000000      1.00000000      1.00000000      1.00000000      1.00000000      1.00000000      1.00000000      1.00000000      1.00000000      1.00000000      1.00000000</v>
    <i name="NUPDOWN">     -1.00000000</i>
    <i type="logical" name="LSORBIT"> F  </i>
    <v name="SAXIS">      0.00000000      0.00000000      1.00000000</v>
    <i type="logical" name="LSPIRAL"> F  </i>
    <v name="QSPIRAL">      0.00000000      0.00000000      0.00000000</v>
    <i type="logical" name="LZEROZ"> F  </i>
   </separator>
   <separator name="electronic exchange-correlation" >
    <i type="logical" name="LASPH"> T  </i>
    <i type="logical" name="LMETAGGA"> F  </i>
   </separator>
   <separator name="electronic convergence" >
    <i type="int" name="NELM">   100</i>
    <i type="int" name="NELMDL">   -10</i>
    <i type="int" name="NELMIN">     2</i>
    <i name="ENINI">    520.00000000</i>
    <separator name="electronic convergence detail" >
     <i type="logical" name="LDIAG"> T  </i>
     <i type="logical" name="LSUBROT"> F  </i>
     <i name="WEIMIN">      0.00100000</i>
     <i name="EBREAK">      0.00000000</i>
     <i name="DEPER">      0.30000000</i>
     <i type="int" name="NRMM">     4</i>
     <i name="TIME">      0.40000000</i>
    </separator>
   </separator>
   <separator name="electronic mixer" >
    <i name="AMIX">      0.40000000</i>
    <i name="BMIX">      1.00000000</i>
    <i name="AMIN">      0.10000000</i>
    <i name="AMIX_MAG">      1.60000000</i>
    <i name="BMIX_MAG">      1.00000000</i>
    <separator name="electronic mixer details" >
     <i type="int" name="IMIX">     4</i>
     <i type="logical" name="MIXFIRST"> F  </i>
     <i type="int" name="MAXMIX">   -45</i>
     <i name="WC">    100.00000000</i>
     <i type="int" name="INIMIX">     1</i>
     <i type="int" name="MIXPRE">     1</i>
     <i type="int" name="MREMOVE">     5</i>
    </separator>
   </separator>
   <separator name="electronic dipolcorrection" >
    <i type="logical" name="LDIPOL"> F  </i>
    <i type="logical" name="LMONO"> F  </i>
    <i type="int" name="IDIPOL">     0</i>
    <i name="EPSILON">      1.00000000</i>
    <v name="DIPOL">   -100.00000000   -100.00000000   -100.00000000</v>
    <i name="EFIELD">      0.00000000</i>
   </separator>
  </separator>
  <separator name="grids" >
   <i type="int" name="NGX">    72</i>
   <i type="int" name="NGY">    72</i>
   <i type="int" name="NGZ">    72</i>
   <i type="int" name="NGXF">   144</i>
   <i type="int" name="NGYF">   144</i>
   <i type="int" name="NGZF">   144</i>
   <i type="logical" name="ADDGRID"> F  </i>
  </separator>
  <separator name="ionic" >
   <i type="int" name="NSW">  1000</i>
   <i type="int" name="IBRION">     2</i>
   <i type="int" name="MDALGO">     0</i>
   <i type="int" name="ISIF">     2</i>
   <i name="PSTRESS">      0.00000000</i>
   <i name="EDIFFG">     -0.00100000</i>
   <i type="int" name="NFREE">     1</i>
   <i name="POTIM">      0.20000000</i>
   <i name="SMASS">     -3.00000000</i>
   <i name="SCALEE">      1.00000000</i>
  </separator>
  <separator name="ionic md" >
   <i name="TEBEG">      0.00010000</i>
   <i name="TEEND">      0.00010000</i>
   <i type="int" name="NBLOCK">     1</i>
   <i type="int" name="KBLOCK">  1000</i>
   <i type="int" name="NPACO">   256</i>
   <i name="APACO">     10.00000000</i>
  </separator>
  <separator name="symmetry" >
   <i type="int" name="ISYM">     2</i>
   <i name="SYMPREC">      0.00001000</i>
  </separator>
  <separator name="dos" >
   <i type="int" name="LORBIT">     0</i>
   <v name="RWIGS">     -1.00000000     -1.00000000     -1.00000000     -1.00000000</v>
   <i type="int" name="NEDOS">   301</i>
   <i name="EMIN">     10.00000000</i>
   <i name="EMAX">    -10.00000000</i>
   <i name="EFERMI">      0.00000000</i>
  </separator>
  <separator name="writing" >
   <i type="int" name="NWRITE">     2</i>
   <i type="logical" name="LWAVE"> F  </i>
   <i type="logical" name="LDOWNSAMPLE"> F  </i>
   <i type="logical" name="LCHARG"> F  </i>
   <i type="logical" name="LPARD"> F  </i>
   <i type="logical" name="LVTOT"> F  </i>
   <i type="logical" name="LVHAR"> F  </i>
   <i type="logical" name="LELF"> F  </i>
   <i type="logical" name="LOPTICS"> F  </i>
   <v name="STM">      0.00000000      0.00000000      0.00000000      0.00000000      0.00000000      0.00000000      0.00000000</v>
  </separator>
  <separator name="performance" >
   <i type="int" name="NPAR">     4</i>
   <i type="int" name="NSIM">     4</i>
   <i type="int" name="NBLK">    -1</i>
   <i type="logical" name="LPLANE"> T  </i>
   <i type="logical" name="LSCALAPACK"> T  </i>
   <i type="logical" name="LSCAAWARE"> F  </i>
   <i type="logical" name="LSCALU"> F  </i>
   <i type="logical" name="LASYNC"> F  </i>
   <i type="logical" name="LORBITALREAL"> F  </i>
  </separator>
  <separator name="miscellaneous" >
   <i type="int" name="IDIOT">     3</i>
   <i type="int" name="PHON_NSTRUCT">    -1</i>
   <i type="logical" name="LMUSIC"> F  </i>
   <v name="POMASS">      7.01000000     30.97400000     32.06600000     35.45300000</v>
   <v name="DARWINR">      0.00000000      0.00000000      0.00000000      0.00000000</v>
   <v name="DARWINV">      1.00000000      1.00000000      1.00000000      1.00000000</v>
   <i type="logical" name="LCORR"> T  </i>
  </separator>
  <i type="logical" name="GGA_COMPAT"> T  </i>
  <i type="logical" name="LBERRY"> F  </i>
  <i type="int" name="ICORELEVEL">     0</i>
  <i type="logical" name="LDAU"> F  </i>
  <i type="int" name="I_CONSTRAINED_M">     0</i>
  <separator name="electronic exchange-correlation" >
   <i type="string" name="GGA">PE</i>
   <i type="int" name="VOSKOWN">     0</i>
   <i type="logical" name="LHFCALC"> F  </i>
   <i type="string" name="PRECFOCK"></i>
   <i type="logical" name="LSYMGRAD"> F  </i>
   <i type="logical" name="LHFONE"> F  </i>
   <i type="logical" name="LRHFCALC"> F  </i>
   <i type="logical" name="LTHOMAS"> F  </i>
   <i type="logical" name="LMODELHF"> F  </i>
   <i type="logical" name="LFOCKACE"> F  </i>
   <i name="ENCUT4O">     -1.00000000</i>
   <i type="int" name="EXXOEP">     0</i>
   <i type="int" name="FOURORBIT">     0</i>
   <i name="AEXX">      0.00000000</i>
   <i name="HFALPHA">      0.00000000</i>
   <i name="MCALPHA">      0.00000000</i>
   <i name="ALDAX">      1.00000000</i>
   <i name="AGGAX">      1.00000000</i>
   <i name="ALDAC">      1.00000000</i>
   <i name="AGGAC">      1.00000000</i>
   <i type="int" name="NKREDX">     1</i>
   <i type="int" name="NKREDY">     1</i>
   <i type="int" name="NKREDZ">     1</i>
   <i type="logical" name="SHIFTRED"> F  </i>
   <i type="logical" name="ODDONLY"> F  </i>
   <i type="logical" name="EVENONLY"> F  </i>
   <i type="int" name="LMAXFOCK">     0</i>
   <i type="int" name="NMAXFOCKAE">     0</i>
   <i type="logical" name="LFOCKAEDFT"> F  </i>
   <i name="HFSCREEN">      0.00000000</i>
   <i name="HFSCREENC">      0.00000000</i>
   <i type="int" name="NBANDSGWLOW">     0</i>
  </separator>
  <separator name="vdW DFT" >
   <i type="logical" name="LUSE_VDW"> F  </i>
   <i type="int" name="IVDW_NL">     1</i>
   <i type="logical" name="LSPIN_VDW"> F  </i>
   <i name="Zab_VDW">     -0.84910000</i>
   <i name="PARAM1">      0.12340000</i>
   <i name="PARAM2">      1.00000000</i>
   <i name="PARAM3">      0.00000000</i>
  </separator>
  <separator name="model GW" >
   <i type="int" name="MODEL_GW">     0</i>
   <i name="MODEL_EPS0">     10.34534231</i>
   <i name="MODEL_ALPHA">      1.00000000</i>
  </separator>
  <separator name="linear response parameters" >
   <i type="logical" name="LEPSILON"> F  </i>
   <i type="logical" name="LRPA"> F  </i>
   <i type="logical" name="LNABLA"> F  </i>
   <i type="logical" name="LVEL"> F  </i>
   <i name="CSHIFT">      0.10000000</i>
   <i name="OMEGAMAX">     -1.00000000</i>
   <i name="DEG_THRESHOLD">      0.00200000</i>
   <i name="RTIME">     -0.10000000</i>
   <i name="WPLASMAI">      0.00000000</i>
   <v name="DFIELD">      0.00000000      0.00000000      0.00000000</v>
   <v name="WPLASMA">      0.00000000      0.00000000      0.00000000      0.00000000      0.00000000      0.00000000      0.00000000      0.00000000      0.00000000</v>
  </separator>
  <separator name="orbital magnetization" >
   <i type="logical" name="NUCIND"> F  </i>
   <v name="MAGPOS">      0.00000000      0.00000000      0.00000000</v>
   <i type="logical" name="LNICSALL"> T  </i>
   <i type="logical" name="ORBITALMAG"> F  </i>
   <i type="logical" name="LMAGBLOCH"> F  </i>
   <i type="logical" name="LCHIMAG"> F  </i>
   <i type="logical" name="LGAUGE"> T  </i>
   <i type="int" name="MAGATOM">     0</i>
   <v name="MAGDIPOL">      0.00000000      0.00000000      0.00000000</v>
   <v name="AVECCONST">      0.00000000      0.00000000      0.00000000</v>
  </separator>
  <separator name="response functions" >
   <i type="logical" name="LALL_IN_ONE"> F  </i>
   <i type="int" name="IALL_IN_ONE">    -1</i>
   <i type="int" name="NBANDS_WAVE">    -1</i>
   <i type="logical" name="LFINITE_TEMPERATURE"> F  </i>
   <i type="logical" name="LADDER"> F  </i>
   <i type="logical" name="LRPAFORCE"> F  </i>
   <i type="logical" name="LFXC"> F  </i>
   <i type="logical" name="LHARTREE"> T  </i>
   <i type="int" name="IBSE">     0</i>
   <v type="int" name="KPOINT">    -1     0     0     0</v>
   <i type="logical" name="LTCTC"> F  </i>
   <i type="logical" name="LTCTE"> F  </i>
   <i type="logical" name="LTETE"> F  </i>
   <i type="logical" name="LTRIPLET"> F  </i>
   <i type="logical" name="LFXCEPS"> F  </i>
   <i type="logical" name="LFXHEG"> F  </i>
   <i type="int" name="NATURALO">     2</i>
   <i type="logical" name="LHOLEGF"> F  </i>
   <i type="logical" name="L2ORDER"> F  </i>
   <i type="logical" name="LDMP1"> F  </i>
   <i type="logical" name="LMP2LT"> F  </i>
   <i type="logical" name="LSMP2LT"> F  </i>
   <i type="logical" name="LGWLF"> F  </i>
   <i name="ENCUTGW">     -1.60000002</i>
   <i name="ENCUTGWSOFT">     -1.60000002</i>
   <i name="ENCUTLF">     -1.00000000</i>
   <i type="logical" name="LESF_SPLINES"> F  </i>
   <i type="int" name="LMAXMP2">    -1</i>
   <i name="SCISSOR">      0.00000000</i>
   <i type="int" name="NOMEGA">     0</i>
   <i type="int" name="NOMEGAR">     0</i>
   <i type="int" name="NBANDSGW">    -1</i>
   <i type="int" name="NBANDSO">    -1</i>
   <i type="int" name="NBANDSV">    -1</i>
   <i type="int" name="NELMGW">     1</i>
   <i type="int" name="NELMHF">     1</i>
   <i type="int" name="DIM">     3</i>
   <i type="int" name="IESPILON">     4</i>
   <i type="int" name="ANTIRES">     0</i>
   <i name="OMEGAMAX">    -30.00000000</i>
   <i name="OMEGAMIN">    -30.00000000</i>
   <i name="OMEGATL">   -200.00000000</i>
   <i type="int" name="OMEGAGRID">     0</i>
   <i name="CSHIFT">     -0.10000000</i>
   <i type="logical" name="LSELFENERGY"> F  </i>
   <i type="logical" name="LSPECTRAL"> F  </i>
   <i type="logical" name="LSPECTRALGW"> F  </i>
   <i type="logical" name="LSINGLES"> F  </i>
   <i type="logical" name="LFERMIGW"> F  </i>
   <i type="logical" name="ODDONLYGW"> F  </i>
   <i type="logical" name="EVENONLYGW"> F  </i>
   <i type="int" name="NKREDLFX">     1</i>
   <i type="int" name="NKREDLFY">     1</i>
   <i type="int" name="NKREDLFZ">     1</i>
   <i type="int" name="MAXMEM">  2800</i>
   <i type="int" name="TELESCOPE">     0</i>
   <i type="int" name="NTAUPAR">    -1</i>
   <i type="int" name="NOMEGAPAR">    -1</i>
   <i name="DAMP_NEWTON">      0.80000001</i>
   <i name="LAMBDA">      1.00000000</i>
  </separator>
  <separator name="External order field" >
   <i name="OFIELD_KAPPA">      0.00000000</i>
   <v name="OFIELD_K">      0.00000000      0.00000000      0.00000000</v>
   <i name="OFIELD_Q6_NEAR">      0.00000000</i>
   <i name="OFIELD_Q6_FAR">      0.00000000</i>
   <i name="OFIELD_A">      0.00000000</i>
  </separator>
  <separator name="optional k-points parameters" >
   <i type="int" name="KPOINTS_OPT_MODE">     1</i>
   <i type="logical" name="LKPOINTS_OPT"> F  </i>
  </separator>
 </parameters>
 <atominfo>
  <atoms>      52 </atoms>
  <types>       4 </types>
  <array name="atoms" >
   <dimension dim="1">ion</dimension>
   <field type="string">element</field>
   <field type="int">atomtype</field>
   <set>
    <rc><c>Li</c><c>   1</c></rc>
    <rc><c>Li</c><c>   1</c></rc>
    <rc><c>Li</c><c>   1</c></rc>
    <rc><c>Li</c><c>   1</c></rc>
    <rc><c>Li</c><c>   1</c></rc>
    <rc><c>Li</c><c>   1</c></rc>
    <rc><c>Li</c><c>   1</c></rc>
    <rc><c>Li</c><c>   1</c></rc>
    <rc><c>Li</c><c>   1</c></rc>
    <rc><c>Li</c><c>   1</c></rc>
    <rc><c>Li</c><c>   1</c></rc>
    <rc><c>Li</c><c>   1</c></rc>
    <rc><c>Li</c><c>   1</c></rc>
    <rc><c>Li</c><c>   1</c></rc>
    <rc><c>Li</c><c>   1</c></rc>
    <rc><c>Li</c><c>   1</c></rc>
    <rc><c>Li</c><c>   1</c></rc>
    <rc><c>Li</c><c>   1</c></rc>
    <rc><c>Li</c><c>   1</c></rc>
    <rc><c>Li</c><c>   1</c></rc>
    <rc><c>Li</c><c>   1</c></rc>
    <rc><c>Li</c><c>   1</c></rc>
    <rc><c>Li</c><c>   1</c></rc>
    <rc><c>Li</c><c>   1</c></rc>
    <rc><c>P </c><c>   2</c></rc>
    <rc><c>P </c><c>   2</c></rc>
    <rc><c>P </c><c>   2</c></rc>
    <rc><c>P </c><c>   2</c></rc>
    <rc><c>S </c><c>   3</c></rc>
    <rc><c>S </c><c>   3</c></rc>
    <rc><c>S </c><c>   3</c></rc>
    <rc><c>S </c><c>   3</c></rc>
    <rc><c>S </c><c>   3</c></rc>
    <rc><c>S </c><c>   3</c></rc>
    <rc><c>S </c><c>   3</c></rc>
    <rc><c>S </c><c>   3</c></rc>
    <rc><c>S </c><c>   3</c></rc>
    <rc><c>S </c><c>   3</c></rc>
    <rc><c>S </c><c>   3</c></rc>
    <rc><c>S </c><c>   3</c></rc>
    <rc><c>S </c><c>   3</c></rc>
    <rc><c>S </c><c>   3</c></rc>
    <rc><c>S </c><c>   3</c></rc>
    <rc><c>S </c><c>   3</c></rc>
    <rc><c>S </c><c>   3</c></rc>
    <rc><c>S </c><c>   3</c></rc>
    <rc><c>S </c><c>   3</c></rc>
    <rc><c>S </c><c>   3</c></rc>
    <rc><c>Cl</c><c>   4</c></rc>
    <rc><c>Cl</c><c>   4</c></rc>
    <rc><c>Cl</c><c>   4</c></rc>
    <rc><c>Cl</c><c>   4</c></rc>
   </set>
  </array>
  <array name="atomtypes" >
   <dimension dim="1">type</dimension>
   <field type="int">atomspertype</field>
   <field type="string">element</field>
   <field>mass</field>
   <field>valence</field>
   <field type="string">pseudopotential</field>
   <set>
    <rc><c>  24</c><c>Li</c><c>      7.01000000</c><c>      3.00000000</c><c>  PAW_PBE Li_sv_GW 25Mar2010            </c></rc>
    <rc><c>   4</c><c>P </c><c>     30.97400000</c><c>      5.00000000</c><c>  PAW_PBE P_GW 19Mar2012                </c></rc>
    <rc><c>  20</c><c>S </c><c>     32.06600000</c><c>      6.00000000</c><c>  PAW_PBE S_GW 19Mar2012                </c></rc>
    <rc><c>   4</c><c>Cl</c><c>     35.45300000</c><c>      7.00000000</c><c>  PAW_PBE Cl_GW 19Mar2012               </c></rc>
   </set>
  </array>
 </atominfo>
 <structure name="initialpos" >
  <crystal>
   <varray name="basis" >
    <v>       9.64270734       0.00000000       0.00000000 </v>
    <v>       0.00000000       9.64270734       0.00000000 </v>
    <v>       0.00000000       0.00000000       9.64270734 </v>
   </varray>
   <i name="volume">    896.59633311 </i>
   <varray name="rec_basis" >
    <v>       0.10370531       0.00000000       0.00000000 </v>
    <v>       0.00000000       0.10370531       0.00000000 </v>
    <v>       0.00000000       0.00000000       0.10370531 </v>
   </varray>
  </crystal>
  <varray name="positions" >
   <v>       0.98896189       0.29530728       0.29010286 </v>
   <v>       0.93522420       0.55141367       0.70267455 </v>
   <v>       0.06609844       0.19915152       0.87442337 </v>
   <v>       0.01605119       0.73049906       0.27469582 </v>
   <v>       0.97031506       0.83467360       0.82244488 </v>
   <v>       0.21199589       0.79796601       0.01223973 </v>
   <v>       0.67850968       0.32320199       0.03290730 </v>
   <v>       0.65887185       0.71885415       0.98075963 </v>
   <v>       0.19428522       0.99570652       0.19929534 </v>
   <v>       0.29568126       0.01816646       0.69471372 </v>
   <v>       0.72498060       0.97552324       0.71075064 </v>
   <v>       0.82406318       0.04159980       0.15159842 </v>
   <v>       0.20880977       0.67606988       0.47118675 </v>
   <v>       0.19822361       0.32209698       0.54140315 </v>
   <v>       0.80061304       0.71690079       0.51345111 </v>
   <v>       0.73308721       0.16471216       0.47020002 </v>
   <v>       0.31034680       0.45422848       0.84922672 </v>
   <v>       0.33363762       0.54355117       0.17816879 </v>
   <v>       0.77511214       0.48713875       0.29891171 </v>
   <v>       0.66056676       0.51496615       0.79509677 </v>
   <v>       0.49402036       0.21801622       0.70824896 </v>
   <v>       0.46111448       0.84849992       0.32753826 </v>
   <v>       0.52011247       0.20537108       0.28224933 </v>
   <v>       0.52979743       0.79050245       0.67064959 </v>
   <v>       0.50171755       0.49999012       0.49732981 </v>
   <v>       0.50269962       0.01106639       0.00126282 </v>
   <v>       0.99420524       0.50690982       0.00138403 </v>
   <v>       0.01089263       0.00558822       0.50757856 </v>
   <v>       0.12157670       0.86104930       0.61778458 </v>
   <v>       0.14085864       0.12979417       0.39344996 </v>
   <v>       0.87252052       0.90836059       0.37669072 </v>
   <v>       0.90542623       0.12746783       0.64548924 </v>
   <v>       0.86454223       0.63199228       0.11417167 </v>
   <v>       0.87382586       0.38063542       0.87708274 </v>
   <v>       0.11335669       0.62513158       0.86638505 </v>
   <v>       0.13017074       0.38810217       0.10934024 </v>
   <v>       0.64258048       0.12433277       0.88602982 </v>
   <v>       0.61883821       0.89895275       0.14162404 </v>
   <v>       0.37084365       0.14008024       0.10099676 </v>
   <v>       0.40148264       0.87206422       0.87348475 </v>
   <v>       0.60514775       0.64500334       0.37956884 </v>
   <v>       0.64635379       0.37749505       0.59515185 </v>
   <v>       0.37962228       0.60157952       0.63916749 </v>
   <v>       0.37440198       0.38605006       0.37173525 </v>
   <v>       0.75690243       0.73652545       0.74882395 </v>
   <v>       0.75581938       0.25523268       0.24919412 </v>
   <v>       0.24965258       0.76251514       0.24734179 </v>
   <v>       0.26512371       0.24475553       0.75116324 </v>
   <v>       0.02478474       0.98823468       0.00856459 </v>
   <v>       0.99156109       0.52823241       0.46386131 </v>
   <v>       0.52550428       0.00825692       0.53246317 </v>
   <v>       0.51361525       0.50837878       0.99280771 </v>
  </varray>
 </structure>
 <calculation>
  <scstep>
   <time name="dav">    2.30    2.41</time>
   <time name="total">    2.79    2.93</time>
   <energy>
    <i name="alphaZ">    302.76445894 </i>
    <i name="ewald">  -8846.61551041 </i>
    <i name="hartreedc">  -2096.44017860 </i>
    <i name="XCdc">    534.48002625 </i>
    <i name="pawpsdc">   8141.38806575 </i>
    <i name="pawaedc">  -8271.61346273 </i>
    <i name="eentropy">     -0.00468273 </i>
    <i name="bandstr">   -876.84145971 </i>
    <i name="atom">  12703.13999606 </i>
    <i name="e_fr_energy">   1590.25725281 </i>
    <i name="e_wo_entrp">   1590.26193554 </i>
    <i name="e_0_energy">   1590.25959417 </i>
   </energy>
  </scstep>
  <scstep>
   <time name="dav">    2.68    2.71</time>
   <time name="total">    2.68    2.71</time>
   <energy>
    <i name="e_fr_energy">    -56.85537905 </i>
    <i name="e_wo_entrp">    -56.85537905 </i>
    <i name="e_0_energy">    -56.85537905 </i>
   </energy>
  </scstep>
  <scstep>
   <time name="dav">    2.64    2.66</time>
   <time name="total">    2.64    2.66</time>
   <energy>
    <i name="e_fr_energy">   -228.06432261 </i>
    <i name="e_wo_entrp">   -228.06432261 </i>
    <i name="e_0_energy">   -228.06432261 </i>
   </energy>
  </scstep>
  <scstep>
   <time name="dav">    3.15    3.18</time>
   <time name="total">    3.15    3.18</time>
   <energy>
    <i name="e_fr_energy">   -241.33148458 </i>
    <i name="e_wo_entrp">   -241.33148458 </i>
    <i name="e_0_energy">   -241.33148458 </i>
   </energy>
  </scstep>
  <scstep>
   <time name="dav">    2.98    3.00</time>
   <time name="total">    2.98    3.01</time>
   <energy>
    <i name="e_fr_energy">   -241.56507705 </i>
    <i name="e_wo_entrp">   -241.56507705 </i>
    <i name="e_0_energy">   -241.56507705 </i>
   </energy>
  </scstep>
  <scstep>
   <time name="dav">    3.07    3.10</time>
   <time name="total">    3.07    3.10</time>
   <energy>
    <i name="e_fr_energy">   -241.57706823 </i>
    <i name="e_wo_entrp">   -241.57706823 </i>
    <i name="e_0_energy">   -241.57706823 </i>
   </energy>
  </scstep>
  <scstep>
   <time name="dav">    3.07    3.10</time>
   <time name="total">    3.07    3.10</time>
   <energy>
    <i name="e_fr_energy">   -241.57744691 </i>
    <i name="e_wo_entrp">   -241.57744691 </i>
    <i name="e_0_energy">   -241.57744691 </i>
   </energy>
  </scstep>
  <scstep>
   <time name="dav">    3.01    3.03</time>
   <time name="total">    3.01    3.03</time>
   <energy>
    <i name="e_fr_energy">   -241.57746877 </i>
    <i name="e_wo_entrp">   -241.57746877 </i>
    <i name="e_0_energy">   -241.57746877 </i>
   </energy>
  </scstep>
  <scstep>
   <time name="dav">    3.22    3.28</time>
   <time name="total">    3.22    3.28</time>
   <energy>
    <i name="e_fr_energy">   -241.57747018 </i>
    <i name="e_wo_entrp">   -241.57747018 </i>
    <i name="e_0_energy">   -241.57747018 </i>
   </energy>
  </scstep>
  <scstep>
   <time name="dav">    1.99    2.00</time>
   <time name="total">    2.06    2.08</time>
   <energy>
    <i name="e_fr_energy">   -241.57747024 </i>
    <i name="e_wo_entrp">   -241.57747024 </i>
    <i name="e_0_energy">   -241.57747024 </i>
   </energy>
  </scstep>
  <scstep>
   <time name="diag">    0.37    0.37</time>
   <time name="diis">    1.17    1.18</time>
   <time name="orth">    0.07    0.07</time>
   <time name="total">    2.12    2.17</time>
   <energy>
    <i name="e_fr_energy">   -236.10612086 </i>
    <i name="e_wo_entrp">   -236.10612086 </i>
    <i name="e_0_energy">   -236.10612086 </i>
   </energy>
  </scstep>
  <scstep>
   <time name="diag">    0.36    0.36</time>
   <time name="diis">    1.24    1.26</time>
   <time name="orth">    0.07    0.07</time>
   <time name="total">    2.19    2.21</time>
   <energy>
    <i name="e_fr_energy">   -255.65948703 </i>
    <i name="e_wo_entrp">   -255.65948703 </i>
    <i name="e_0_energy">   -255.65948703 </i>
   </energy>
  </scstep>
  <scstep>
   <time name="diag">    0.36    0.36</time>
   <time name="diis">    1.28    1.30</time>
   <time name="orth">    0.07    0.07</time>
   <time name="total">    2.23    2.26</time>
   <energy>
    <i name="e_fr_energy">   -258.17709073 </i>
    <i name="e_wo_entrp">   -258.17709073 </i>
    <i name="e_0_energy">   -258.17709073 </i>
   </energy>
  </scstep>
  <scstep>
   <time name="diag">    0.36    0.36</time>
   <time name="diis">    1.58    1.60</time>
   <time name="orth">    0.07    0.07</time>
   <time name="total">    2.54    2.56</time>
   <energy>
    <i name="e_fr_energy">   -258.36368612 </i>
    <i name="e_wo_entrp">   -258.36368612 </i>
    <i name="e_0_energy">   -258.36368612 </i>
   </energy>
  </scstep>
  <scstep>
   <time name="diag">    0.36    0.36</time>
   <time name="diis">    1.28    1.29</time>
   <time name="orth">    0.07    0.07</time>
   <time name="total">    2.23    2.25</time>
   <energy>
    <i name="e_fr_energy">   -258.33432375 </i>
    <i name="e_wo_entrp">   -258.33432375 </i>
    <i name="e_0_energy">   -258.33432375 </i>
   </energy>
  </scstep>
  <scstep>
   <time name="diag">    0.36    0.36</time>
   <time name="diis">    1.29    1.30</time>
   <time name="orth">    0.07    0.07</time>
   <time name="total">    2.24    2.25</time>
   <energy>
    <i name="e_fr_energy">   -258.35438875 </i>
    <i name="e_wo_entrp">   -258.35438875 </i>
    <i name="e_0_energy">   -258.35438875 </i>
   </energy>
  </scstep>
  <scstep>
   <time name="diag">    0.36    0.36</time>
   <time name="diis">    1.47    1.49</time>
   <time name="orth">    0.07    0.07</time>
   <time name="total">    2.42    2.44</time>
   <energy>
    <i name="e_fr_energy">   -258.35992779 </i>
    <i name="e_wo_entrp">   -258.35992779 </i>
    <i name="e_0_energy">   -258.35992779 </i>
   </energy>
  </scstep>
  <scstep>
   <time name="diag">    0.36    0.36</time>
   <time name="diis">    1.42    1.43</time>
   <time name="orth">    0.07    0.07</time>
   <time name="total">    2.37    2.39</time>
   <energy>
    <i name="e_fr_energy">   -258.36115555 </i>
    <i name="e_wo_entrp">   -258.36115555 </i>
    <i name="e_0_energy">   -258.36115555 </i>
   </energy>
  </scstep>
  <scstep>
   <time name="diag">    0.36    0.36</time>
   <time name="diis">    1.63    1.64</time>
   <time name="orth">    0.07    0.07</time>
   <time name="total">    2.58    2.60</time>
   <energy>
    <i name="e_fr_energy">   -258.36158691 </i>
    <i name="e_wo_entrp">   -258.36158691 </i>
    <i name="e_0_energy">   -258.36158691 </i>
   </energy>
  </scstep>
  <scstep>
   <time name="diag">    0.36    0.36</time>
   <time name="diis">    1.57    1.59</time>
   <time name="orth">    0.07    0.07</time>
   <time name="total">    2.52    2.53</time>
   <energy>
    <i name="e_fr_energy">   -258.36167826 </i>
    <i name="e_wo_entrp">   -258.36167826 </i>
    <i name="e_0_energy">   -258.36167826 </i>
   </energy>
  </scstep>
  <scstep>
   <time name="diag">    0.35    0.36</time>
   <time name="diis">    1.44    1.49</time>
   <time name="orth">    0.07    0.07</time>
   <time name="total">    2.39    2.44</time>
   <energy>
    <i name="e_fr_energy">   -258.36169493 </i>
    <i name="e_wo_entrp">   -258.36169493 </i>
    <i name="e_0_energy">   -258.36169493 </i>
   </energy>
  </scstep>
  <scstep>
   <time name="diag">    0.36    0.36</time>
   <time name="diis">    1.60    1.61</time>
   <time name="orth">    0.07    0.07</time>
   <time name="total">    2.56    2.57</time>
   <energy>
    <i name="e_fr_energy">   -258.36170220 </i>
    <i name="e_wo_entrp">   -258.36170220 </i>
    <i name="e_0_energy">   -258.36170220 </i>
   </energy>
  </scstep>
  <scstep>
   <time name="diag">    0.36    0.36</time>
   <time name="diis">    1.29    1.30</time>
   <time name="orth">    0.07    0.07</time>
   <time name="total">    2.23    2.25</time>
   <energy>
    <i name="e_fr_energy">   -258.36170181 </i>
    <i name="e_wo_entrp">   -258.36170181 </i>
    <i name="e_0_energy">   -258.36170181 </i>
   </energy>
  </scstep>
  <scstep>
   <time name="diag">    0.35    0.36</time>
   <time name="diis">    0.98    0.99</time>
   <time name="orth">    0.07    0.07</time>
   <time name="total">    1.86    1.87</time>
   <energy>
    <i name="alphaZ">    302.76445894 </i>
    <i name="ewald">  -8846.61551041 </i>
    <i name="hartreedc">  -2193.16555362 </i>
    <i name="XCdc">    537.90306529 </i>
    <i name="pawpsdc">   9809.91384881 </i>
    <i name="pawaedc">  -9953.83800396 </i>
    <i name="eentropy">     -0.00000000 </i>
    <i name="bandstr">  -2618.46400208 </i>
    <i name="atom">  12703.13999606 </i>
    <i name="e_fr_energy">   -258.36170096 </i>
    <i name="e_wo_entrp">   -258.36170096 </i>
    <i name="e_0_energy">   -258.36170096 </i>
   </energy>
  </scstep>
  <structure>
   <crystal>
    <varray name="basis" >
     <v>       9.64270734       0.00000000       0.00000000 </v>
     <v>       0.00000000       9.64270734       0.00000000 </v>
     <v>       0.00000000       0.00000000       9.64270734 </v>
    </varray>
    <i name="volume">    896.59633311 </i>
    <varray name="rec_basis" >
     <v>       0.10370531       0.00000000       0.00000000 </v>
     <v>       0.00000000       0.10370531       0.00000000 </v>
     <v>       0.00000000       0.00000000       0.10370531 </v>
    </varray>
   </crystal>
   <varray name="positions" >
    <v>       0.98896189       0.29530728       0.29010286 </v>
    <v>       0.93522420       0.55141367       0.70267455 </v>
    <v>       0.06609844       0.19915152       0.87442337 </v>
    <v>       0.01605119       0.73049906       0.27469582 </v>
    <v>       0.97031506       0.83467360       0.82244488 </v>
    <v>       0.21199589       0.79796601       0.01223973 </v>
    <v>       0.67850968       0.32320199       0.03290730 </v>
    <v>       0.65887185       0.71885415       0.98075963 </v>
    <v>       0.19428522       0.99570652       0.19929534 </v>
    <v>       0.29568126       0.01816646       0.69471372 </v>
    <v>       0.72498060       0.97552324       0.71075064 </v>
    <v>       0.82406318       0.04159980       0.15159842 </v>
    <v>       0.20880977       0.67606988       0.47118675 </v>
    <v>       0.19822361       0.32209698       0.54140315 </v>
    <v>       0.80061304       0.71690079       0.51345111 </v>
    <v>       0.73308721       0.16471216       0.47020002 </v>
    <v>       0.31034680       0.45422848       0.84922672 </v>
    <v>       0.33363762       0.54355117       0.17816879 </v>
    <v>       0.77511214       0.48713875       0.29891171 </v>
    <v>       0.66056676       0.51496615       0.79509677 </v>
    <v>       0.49402036       0.21801622       0.70824896 </v>
    <v>       0.46111448       0.84849992       0.32753826 </v>
    <v>       0.52011247       0.20537108       0.28224933 </v>
    <v>       0.52979743       0.79050245       0.67064959 </v>
    <v>       0.50171755       0.49999012       0.49732981 </v>
    <v>       0.50269962       0.01106639       0.00126282 </v>
    <v>       0.99420524       0.50690982       0.00138403 </v>
    <v>       0.01089263       0.00558822       0.50757856 </v>
    <v>       0.12157670       0.86104930       0.61778458 </v>
    <v>       0.14085864       0.12979417       0.39344996 </v>
    <v>       0.87252052       0.90836059       0.37669072 </v>
    <v>       0.90542623       0.12746783       0.64548924 </v>
    <v>       0.86454223       0.63199228       0.11417167 </v>
    <v>       0.87382586       0.38063542       0.87708274 </v>
    <v>       0.11335669       0.62513158       0.86638505 </v>
    <v>       0.13017074       0.38810217       0.10934024 </v>
    <v>       0.64258048       0.12433277       0.88602982 </v>
    <v>       0.61883821       0.89895275       0.14162404 </v>
    <v>       0.37084365       0.14008024       0.10099676 </v>
    <v>       0.40148264       0.87206422       0.87348475 </v>
    <v>       0.60514775       0.64500334       0.37956884 </v>
    <v>       0.64635379       0.37749505       0.59515185 </v>
    <v>       0.37962228       0.60157952       0.63916749 </v>
    <v>       0.37440198       0.38605006       0.37173525 </v>
    <v>       0.75690243       0.73652545       0.74882395 </v>
    <v>       0.75581938       0.25523268       0.24919412 </v>
    <v>       0.24965258       0.76251514       0.24734179 </v>
    <v>       0.26512371       0.24475553       0.75116324 </v>
    <v>       0.02478474       0.98823468       0.00856459 </v>
    <v>       0.99156109       0.52823241       0.46386131 </v>
    <v>       0.52550428       0.00825692       0.53246317 </v>
    <v>       0.51361525       0.50837878       0.99280771 </v>
   </varray>
  </structure>
  <varray name="forces" >
   <v>      -0.00047684       0.00162600       0.00192785 </v>
   <v>      -0.00064582      -0.00093685      -0.00014595 </v>
   <v>       0.00093581       0.00084237       0.00207396 </v>
   <v>      -0.00010231       0.00060063      -0.00046521 </v>
   <v>      -0.00009107      -0.00008868      -0.00067168 </v>
   <v>       0.00013220      -0.00018285      -0.00046989 </v>
   <v>      -0.00097460      -0.00048357       0.00030886 </v>
   <v>      -0.00040282       0.00045322      -0.00042204 </v>
   <v>       0.00008888       0.00031194      -0.00035404 </v>
   <v>      -0.00004538      -0.00011164      -0.00005448 </v>
   <v>       0.00027688      -0.00008625       0.00002036 </v>
   <v>       0.00046438       0.00048637      -0.00019388 </v>
   <v>      -0.00003084      -0.00048694      -0.00035596 </v>
   <v>      -0.00016191       0.00038019       0.00005386 </v>
   <v>       0.00053612      -0.00036529      -0.00029225 </v>
   <v>       0.00064073       0.00029133       0.00036565 </v>
   <v>       0.00000405      -0.00005182       0.00030799 </v>
   <v>      -0.00020990      -0.00035180       0.00006615 </v>
   <v>      -0.00120759       0.00053762      -0.00113639 </v>
   <v>      -0.00031649       0.00020010       0.00022718 </v>
   <v>       0.00003007      -0.00005060      -0.00028935 </v>
   <v>      -0.00028451       0.00015397      -0.00014246 </v>
   <v>      -0.00000292      -0.00153075       0.00141242 </v>
   <v>       0.00025309       0.00016345      -0.00102916 </v>
   <v>       0.00070479       0.00000601       0.00129570 </v>
   <v>       0.00006936       0.00110279      -0.00084218 </v>
   <v>      -0.00231185       0.00073609      -0.00042379 </v>
   <v>      -0.00068685       0.00032618       0.00146162 </v>
   <v>       0.00097592      -0.00126087      -0.00028647 </v>
   <v>       0.00090222       0.00077883      -0.00144154 </v>
   <v>      -0.00079398      -0.00037778      -0.00144099 </v>
   <v>       0.00040204       0.00026654       0.00067845 </v>
   <v>      -0.00079848       0.00094090       0.00003305 </v>
   <v>      -0.00018747      -0.00104022      -0.00004218 </v>
   <v>       0.00097199      -0.00035026      -0.00100549 </v>
   <v>       0.00193804      -0.00178592       0.00077035 </v>
   <v>       0.00107223       0.00019592      -0.00032054 </v>
   <v>       0.00091382      -0.00038364       0.00081996 </v>
   <v>      -0.00086946       0.00108883       0.00097568 </v>
   <v>      -0.00013582      -0.00128499      -0.00064486 </v>
   <v>       0.00009263       0.00114142      -0.00045703 </v>
   <v>       0.00098704      -0.00028453       0.00008885 </v>
   <v>      -0.00102010       0.00034465       0.00112426 </v>
   <v>      -0.00079512      -0.00105064      -0.00131205 </v>
   <v>       0.00017066      -0.00015699       0.00017769 </v>
   <v>       0.00001254       0.00008303       0.00010511 </v>
   <v>       0.00020074      -0.00014721      -0.00021213 </v>
   <v>       0.00038004      -0.00022367       0.00049824 </v>
   <v>      -0.00008180      -0.00006032      -0.00020095 </v>
   <v>       0.00024209      -0.00080957      -0.00002335 </v>
   <v>      -0.00009973       0.00039316      -0.00109289 </v>
   <v>      -0.00066469       0.00049208       0.00097593 </v>
  </varray>
  <varray name="stress" >
   <v>      -2.72880253       2.75122555       1.58450538 </v>
   <v>       2.75122570       0.39743287       1.81057229 </v>
   <v>       1.58450444       1.81057280       2.40696780 </v>
  </varray>
  <energy>
   <i name="e_fr_energy">   -272.02365744 </i>
   <i name="e_wo_entrp">   -272.02365744 </i>
   <i name="e_0_energy">   -272.02365744 </i>
  </energy>
  <time name="totalsc">   64.22   65.04</time>
 </calculation>
 <calculation>
  <scstep>
   <time name="dav">    2.31    2.33</time>
   <time name="total">    2.84    2.86</time>
   <energy>
    <i name="alphaZ">    302.76445894 </i>
    <i name="ewald">  -8846.65296995 </i>
    <i name="hartreedc">  -2193.14087694 </i>
    <i name="XCdc">    537.90230117 </i>
    <i name="pawpsdc">   9809.89493288 </i>
    <i name="pawaedc">  -9953.81889921 </i>
    <i name="eentropy">     -0.00000000 </i>
    <i name="bandstr">  -2618.45064316 </i>
    <i name="atom">  12703.13999606 </i>
    <i name="e_fr_energy">   -258.36170021 </i>
    <i name="e_wo_entrp">   -258.36170021 </i>
    <i name="e_0_energy">   -258.36170021 </i>
   </energy>
  </scstep>
  <scstep>
   <time name="diag">    0.36    0.37</time>
   <time name="diis">    0.86    0.87</time>
   <time name="orth">    0.07    0.07</time>
   <time name="total">    1.75    1.76</time>
   <energy>
    <i name="alphaZ">    302.76445894 </i>
    <i name="ewald">  -8846.65296995 </i>
    <i name="hartreedc">  -2193.14069431 </i>
    <i name="XCdc">    537.90203261 </i>
    <i name="pawpsdc">   9809.84277651 </i>
    <i name="pawaedc">  -9953.76619404 </i>
    <i name="eentropy">     -0.00000000 </i>
    <i name="bandstr">  -2618.45110617 </i>
    <i name="atom">  12703.13999606 </i>
    <i name="e_fr_energy">   -258.36170035 </i>
    <i name="e_wo_entrp">   -258.36170035 </i>
    <i name="e_0_energy">   -258.36170035 </i>
   </energy>
  </scstep>
  <structure>
   <crystal>
    <varray name="basis" >
     <v>       9.64270734       0.00000000       0.00000000 </v>
     <v>       0.00000000       9.64270734       0.00000000 </v>
     <v>       0.00000000       0.00000000       9.64270734 </v>
    </varray>
    <i name="volume">    896.59633311 </i>
    <varray name="rec_basis" >
     <v>       0.10370531       0.00000000       0.00000000 </v>
     <v>       0.00000000       0.10370531       0.00000000 </v>
     <v>       0.00000000       0.00000000       0.10370531 </v>
    </varray>
   </crystal>
   <varray name="positions" >
    <v>       0.98896094       0.29531054       0.29010671 </v>
    <v>       0.93522290       0.55141179       0.70267426 </v>
    <v>       0.06610031       0.19915321       0.87442752 </v>
    <v>       0.01605098       0.73050026       0.27469489 </v>
    <v>       0.97031488       0.83467342       0.82244353 </v>
    <v>       0.21199616       0.79796564       0.01223879 </v>
    <v>       0.67850773       0.32320102       0.03290792 </v>
    <v>       0.65887104       0.71885506       0.98075878 </v>
    <v>       0.19428540       0.99570714       0.19929463 </v>
    <v>       0.29568117       0.01816624       0.69471361 </v>
    <v>       0.72498115       0.97552306       0.71075068 </v>
    <v>       0.82406411       0.04160077       0.15159803 </v>
    <v>       0.20880971       0.67606890       0.47118604 </v>
    <v>       0.19822329       0.32209774       0.54140326 </v>
    <v>       0.80061411       0.71690006       0.51345053 </v>
    <v>       0.73308849       0.16471274       0.47020075 </v>
    <v>       0.31034681       0.45422838       0.84922733 </v>
    <v>       0.33363720       0.54355046       0.17816892 </v>
    <v>       0.77510972       0.48713983       0.29890944 </v>
    <v>       0.66056613       0.51496655       0.79509723 </v>
    <v>       0.49402042       0.21801612       0.70824838 </v>
    <v>       0.46111391       0.84850023       0.32753797 </v>
    <v>       0.52011246       0.20536802       0.28225216 </v>
    <v>       0.52979793       0.79050278       0.67064753 </v>
    <v>       0.50171896       0.49999014       0.49733241 </v>
    <v>       0.50269976       0.01106859       0.00126114 </v>
    <v>       0.99420062       0.50691129       0.00138318 </v>
    <v>       0.01089126       0.00558887       0.50758148 </v>
    <v>       0.12157865       0.86104678       0.61778400 </v>
    <v>       0.14086044       0.12979572       0.39344707 </v>
    <v>       0.87251893       0.90835983       0.37668783 </v>
    <v>       0.90542703       0.12746836       0.64549060 </v>
    <v>       0.86454063       0.63199416       0.11417174 </v>
    <v>       0.87382548       0.38063334       0.87708265 </v>
    <v>       0.11335863       0.62513088       0.86638304 </v>
    <v>       0.13017462       0.38809860       0.10934178 </v>
    <v>       0.64258263       0.12433316       0.88602917 </v>
    <v>       0.61884004       0.89895198       0.14162568 </v>
    <v>       0.37084191       0.14008242       0.10099871 </v>
    <v>       0.40148237       0.87206165       0.87348346 </v>
    <v>       0.60514793       0.64500563       0.37956792 </v>
    <v>       0.64635577       0.37749448       0.59515202 </v>
    <v>       0.37962024       0.60158021       0.63916974 </v>
    <v>       0.37440039       0.38604795       0.37173262 </v>
    <v>       0.75690278       0.73652513       0.74882431 </v>
    <v>       0.75581941       0.25523284       0.24919433 </v>
    <v>       0.24965299       0.76251485       0.24734137 </v>
    <v>       0.26512447       0.24475508       0.75116423 </v>
    <v>       0.02478458       0.98823456       0.00856419 </v>
    <v>       0.99156158       0.52823079       0.46386127 </v>
    <v>       0.52550409       0.00825771       0.53246098 </v>
    <v>       0.51361392       0.50837977       0.99280966 </v>
   </varray>
  </structure>
  <varray name="forces" >
   <v>      -0.00016619       0.00096131       0.00111847 </v>
   <v>      -0.00033803      -0.00056346      -0.00016800 </v>
   <v>       0.00066480       0.00052340       0.00134883 </v>
   <v>      -0.00001024       0.00036168      -0.00025278 </v>
   <v>       0.00002563      -0.00006613      -0.00038228 </v>
   <v>       0.00006778      -0.00011241      -0.00027020 </v>
   <v>      -0.00064837      -0.00024201       0.00021277 </v>
   <v>      -0.00032137       0.00029427      -0.00025176 </v>
   <v>       0.00001351       0.00016608      -0.00018857 </v>
   <v>      -0.00004083      -0.00011567      -0.00008020 </v>
   <v>       0.00011740      -0.00012123      -0.00004028 </v>
   <v>       0.00028520       0.00026739      -0.00010915 </v>
   <v>      -0.00002094      -0.00034409      -0.00028891 </v>
   <v>      -0.00010375       0.00021711      -0.00001605 </v>
   <v>       0.00033025      -0.00020247      -0.00021208 </v>
   <v>       0.00036700       0.00013923       0.00011339 </v>
   <v>      -0.00002216      -0.00006730       0.00026150 </v>
   <v>      -0.00018302      -0.00024879       0.00003253 </v>
   <v>      -0.00076218       0.00028779      -0.00067709 </v>
   <v>      -0.00024077       0.00010459       0.00015672 </v>
   <v>      -0.00000826      -0.00004772      -0.00022085 </v>
   <v>      -0.00018358       0.00011078      -0.00011958 </v>
   <v>      -0.00001454      -0.00094904       0.00087241 </v>
   <v>       0.00013417       0.00010194      -0.00063474 </v>
   <v>       0.00003076      -0.00006670       0.00051235 </v>
   <v>      -0.00011706       0.00055666      -0.00028275 </v>
   <v>      -0.00063907      -0.00000323       0.00009274 </v>
   <v>      -0.00016855       0.00002261       0.00031842 </v>
   <v>       0.00039613      -0.00058043      -0.00026909 </v>
   <v>       0.00011285       0.00014357      -0.00052905 </v>
   <v>      -0.00018754      -0.00005275      -0.00045113 </v>
   <v>       0.00004900       0.00029591       0.00049030 </v>
   <v>      -0.00058133       0.00071772       0.00008727 </v>
   <v>      -0.00022113      -0.00059684      -0.00008730 </v>
   <v>       0.00028357      -0.00041532      -0.00036123 </v>
   <v>       0.00031125      -0.00046360      -0.00011603 </v>
   <v>       0.00059836       0.00014092      -0.00034225 </v>
   <v>       0.00019603       0.00008746       0.00004588 </v>
   <v>      -0.00027211       0.00042498       0.00045543 </v>
   <v>       0.00007485      -0.00053485      -0.00025184 </v>
   <v>      -0.00002652       0.00044941      -0.00001145 </v>
   <v>       0.00065421      -0.00017498       0.00017051 </v>
   <v>      -0.00043018       0.00007261       0.00050850 </v>
   <v>      -0.00004573      -0.00026314      -0.00025348 </v>
   <v>       0.00006734      -0.00008600       0.00002786 </v>
   <v>      -0.00001616       0.00013941       0.00012031 </v>
   <v>      -0.00010371      -0.00003541      -0.00020251 </v>
   <v>       0.00039233      -0.00018009       0.00018850 </v>
   <v>       0.00030510      -0.00043222       0.00008061 </v>
   <v>      -0.00009064       0.00008970      -0.00013256 </v>
   <v>       0.00019339       0.00017142       0.00018325 </v>
   <v>       0.00029303       0.00011790      -0.00019533 </v>
  </varray>
  <varray name="stress" >
   <v>      -2.74895584       2.75080727       1.58219234 </v>
   <v>       2.75080713       0.37815179       1.81272109 </v>
   <v>       1.58219151       1.81272160       2.38747650 </v>
  </varray>
  <energy>
   <i name="e_fr_energy">   -272.02365909 </i>
   <i name="e_wo_entrp">   -272.02365909 </i>
   <i name="e_0_energy">   -272.02365909 </i>
  </energy>
  <time name="totalsc">    7.68    7.76</time>
 </calculation>
 <calculation>
  <scstep>
   <time name="dav">    2.27    2.29</time>
   <time name="total">    2.79    2.82</time>
   <energy>
    <i name="alphaZ">    302.76445894 </i>
    <i name="ewald">  -8846.67843928 </i>
    <i name="hartreedc">  -2193.12075944 </i>
    <i name="XCdc">    537.90132201 </i>
    <i name="pawpsdc">   9809.81168270 </i>
    <i name="pawaedc">  -9953.73460639 </i>
    <i name="eentropy">     -0.00000000 </i>
    <i name="bandstr">  -2618.44535395 </i>
    <i name="atom">  12703.13999606 </i>
    <i name="e_fr_energy">   -258.36169936 </i>
    <i name="e_wo_entrp">   -258.36169936 </i>
    <i name="e_0_energy">   -258.36169936 </i>
   </energy>
  </scstep>
  <scstep>
   <time name="diag">    0.37    0.37</time>
   <time name="diis">    0.81    0.82</time>
   <time name="orth">    0.07    0.07</time>
   <time name="total">    1.70    1.71</time>
   <energy>
    <i name="alphaZ">    302.76445894 </i>
    <i name="ewald">  -8846.67843928 </i>
    <i name="hartreedc">  -2193.11873290 </i>
    <i name="XCdc">    537.90114318 </i>
    <i name="pawpsdc">   9809.77313905 </i>
    <i name="pawaedc">  -9953.69579654 </i>
    <i name="eentropy">     -0.00000000 </i>
    <i name="bandstr">  -2618.44746783 </i>
    <i name="atom">  12703.13999606 </i>
    <i name="e_fr_energy">   -258.36169933 </i>
    <i name="e_wo_entrp">   -258.36169933 </i>
    <i name="e_0_energy">   -258.36169933 </i>
   </energy>
  </scstep>
  <structure>
   <crystal>
    <varray name="basis" >
     <v>       9.64270734       0.00000000       0.00000000 </v>
     <v>       0.00000000       9.64270734       0.00000000 </v>
     <v>       0.00000000       0.00000000       9.64270734 </v>
    </varray>
    <i name="volume">    896.59633311 </i>
    <varray name="rec_basis" >
     <v>       0.10370531       0.00000000       0.00000000 </v>
     <v>       0.00000000       0.10370531       0.00000000 </v>
     <v>       0.00000000       0.00000000       0.10370531 </v>
    </varray>
   </crystal>
   <varray name="positions" >
    <v>       0.98896029       0.29531275       0.29010934 </v>
    <v>       0.93522203       0.55141052       0.70267406 </v>
    <v>       0.06610158       0.19915436       0.87443034 </v>
    <v>       0.01605084       0.73050108       0.27469426 </v>
    <v>       0.97031476       0.83467330       0.82244262 </v>
    <v>       0.21199634       0.79796539       0.01223815 </v>
    <v>       0.67850641       0.32320036       0.03290834 </v>
    <v>       0.65887050       0.71885568       0.98075821 </v>
    <v>       0.19428552       0.99570757       0.19929415 </v>
    <v>       0.29568111       0.01816609       0.69471353 </v>
    <v>       0.72498153       0.97552295       0.71075070 </v>
    <v>       0.82406474       0.04160143       0.15159777 </v>
    <v>       0.20880967       0.67606824       0.47118555 </v>
    <v>       0.19822307       0.32209826       0.54140334 </v>
    <v>       0.80061484       0.71689956       0.51345013 </v>
    <v>       0.73308936       0.16471314       0.47020125 </v>
    <v>       0.31034682       0.45422831       0.84922775 </v>
    <v>       0.33363692       0.54354998       0.17816901 </v>
    <v>       0.77510808       0.48714056       0.29890789 </v>
    <v>       0.66056570       0.51496682       0.79509754 </v>
    <v>       0.49402046       0.21801605       0.70824798 </v>
    <v>       0.46111352       0.84850044       0.32753778 </v>
    <v>       0.52011246       0.20536593       0.28225408 </v>
    <v>       0.52979828       0.79050300       0.67064613 </v>
    <v>       0.50171992       0.49999014       0.49733417 </v>
    <v>       0.50269986       0.01107010       0.00125999 </v>
    <v>       0.99419747       0.50691229       0.00138260 </v>
    <v>       0.01089032       0.00558932       0.50758347 </v>
    <v>       0.12157998       0.86104506       0.61778361 </v>
    <v>       0.14086167       0.12979678       0.39344511 </v>
    <v>       0.87251785       0.90835932       0.37668587 </v>
    <v>       0.90542758       0.12746873       0.64549152 </v>
    <v>       0.86453954       0.63199544       0.11417178 </v>
    <v>       0.87382523       0.38063193       0.87708259 </v>
    <v>       0.11335995       0.62513040       0.86638167 </v>
    <v>       0.13017726       0.38809617       0.10934283 </v>
    <v>       0.64258408       0.12433343       0.88602874 </v>
    <v>       0.61884128       0.89895146       0.14162680 </v>
    <v>       0.37084073       0.14008390       0.10100004 </v>
    <v>       0.40148218       0.87205990       0.87348258 </v>
    <v>       0.60514806       0.64500718       0.37956730 </v>
    <v>       0.64635711       0.37749410       0.59515214 </v>
    <v>       0.37961885       0.60158068       0.63917127 </v>
    <v>       0.37439930       0.38604652       0.37173083 </v>
    <v>       0.75690301       0.73652492       0.74882455 </v>
    <v>       0.75581942       0.25523295       0.24919447 </v>
    <v>       0.24965326       0.76251465       0.24734108 </v>
    <v>       0.26512498       0.24475478       0.75116491 </v>
    <v>       0.02478447       0.98823448       0.00856392 </v>
    <v>       0.99156191       0.52822969       0.46386123 </v>
    <v>       0.52550395       0.00825824       0.53245949 </v>
    <v>       0.51361302       0.50838044       0.99281099 </v>
   </varray>
  </structure>
  <varray name="forces" >
   <v>      -0.00019300       0.00130377       0.00146735 </v>
   <v>      -0.00041278      -0.00070997      -0.00020832 </v>
   <v>       0.00088113       0.00069670       0.00180247 </v>
   <v>       0.00000613       0.00045589      -0.00030394 </v>
   <v>       0.00005819      -0.00007452      -0.00042692 </v>
   <v>       0.00007593      -0.00014318      -0.00032233 </v>
   <v>      -0.00083844      -0.00030146       0.00028131 </v>
   <v>      -0.00040955       0.00036825      -0.00027490 </v>
   <v>       0.00000147       0.00020223      -0.00024541 </v>
   <v>      -0.00005458      -0.00010670      -0.00008381 </v>
   <v>       0.00013219      -0.00013910      -0.00004503 </v>
   <v>       0.00032959       0.00030854      -0.00011981 </v>
   <v>      -0.00002345      -0.00040974      -0.00035662 </v>
   <v>      -0.00011571       0.00024261      -0.00002862 </v>
   <v>       0.00036959      -0.00021272      -0.00026539 </v>
   <v>       0.00041047       0.00015608       0.00009928 </v>
   <v>      -0.00004776      -0.00007081       0.00032894 </v>
   <v>      -0.00021616      -0.00029221       0.00002602 </v>
   <v>      -0.00101495       0.00037872      -0.00088780 </v>
   <v>      -0.00029965       0.00012336       0.00019545 </v>
   <v>      -0.00001335      -0.00004246      -0.00024911 </v>
   <v>      -0.00021158       0.00014947      -0.00013077 </v>
   <v>      -0.00003248      -0.00124612       0.00115997 </v>
   <v>       0.00015523       0.00012667      -0.00083449 </v>
   <v>      -0.00039314      -0.00010063      -0.00003721 </v>
   <v>      -0.00023197       0.00021145       0.00009194 </v>
   <v>       0.00043493      -0.00048703       0.00042013 </v>
   <v>       0.00024258      -0.00012714      -0.00042511 </v>
   <v>       0.00029961      -0.00044287      -0.00040047 </v>
   <v>      -0.00020773      -0.00006302      -0.00024638 </v>
   <v>      -0.00002894       0.00013701      -0.00025307 </v>
   <v>       0.00007722       0.00038716       0.00062242 </v>
   <v>      -0.00065883       0.00078588      -0.00001452 </v>
   <v>      -0.00026108      -0.00063246      -0.00006056 </v>
   <v>       0.00010946      -0.00060973      -0.00027610 </v>
   <v>      -0.00029948      -0.00003118      -0.00055966 </v>
   <v>       0.00062474       0.00014226      -0.00031137 </v>
   <v>       0.00005891       0.00031835      -0.00018306 </v>
   <v>      -0.00004105       0.00032175       0.00030727 </v>
   <v>       0.00023209      -0.00039207      -0.00013059 </v>
   <v>      -0.00018959       0.00033011       0.00017801 </v>
   <v>       0.00069746      -0.00010875       0.00017507 </v>
   <v>      -0.00033307      -0.00004283       0.00041254 </v>
   <v>       0.00029860       0.00002431       0.00007651 </v>
   <v>       0.00010551      -0.00010585       0.00006966 </v>
   <v>      -0.00003799       0.00018291       0.00014669 </v>
   <v>      -0.00004203      -0.00005565      -0.00023881 </v>
   <v>       0.00037034      -0.00018631       0.00024382 </v>
   <v>       0.00024532      -0.00043645      -0.00000463 </v>
   <v>      -0.00003705      -0.00014028      -0.00012753 </v>
   <v>       0.00014471       0.00028431      -0.00011641 </v>
   <v>       0.00028402       0.00007346       0.00006392 </v>
  </varray>
  <varray name="stress" >
   <v>      -2.75843548       2.75120259       1.58095446 </v>
   <v>       2.75120280       0.36919033       1.81345290 </v>
   <v>       1.58095355       1.81345328       2.37871924 </v>
  </varray>
  <energy>
   <i name="e_fr_energy">   -272.02365961 </i>
   <i name="e_wo_entrp">   -272.02365961 </i>
   <i name="e_0_energy">   -272.02365961 </i>
  </energy>
  <time name="totalsc">    7.58    7.66</time>
 </calculation>
 <calculation>
  <scstep>
   <time name="dav">    2.47    2.49</time>
   <time name="total">    2.99    3.02</time>
   <energy>
    <i name="alphaZ">    302.76445894 </i>
    <i name="ewald">  -8846.72937221 </i>
    <i name="hartreedc">  -2193.07797768 </i>
    <i name="XCdc">    537.89998906 </i>
    <i name="pawpsdc">   9809.75165501 </i>
    <i name="pawaedc">  -9953.67414902 </i>
    <i name="eentropy">     -0.00000000 </i>
    <i name="bandstr">  -2618.43629652 </i>
    <i name="atom">  12703.13999606 </i>
    <i name="e_fr_energy">   -258.36169636 </i>
    <i name="e_wo_entrp">   -258.36169636 </i>
    <i name="e_0_energy">   -258.36169636 </i>
   </energy>
  </scstep>
  <scstep>
   <time name="diag">    0.36    0.37</time>
   <time name="diis">    1.03    1.04</time>
   <time name="orth">    0.07    0.07</time>
   <time name="total">    1.91    1.93</time>
   <energy>
    <i name="alphaZ">    302.76445894 </i>
    <i name="ewald">  -8846.72937221 </i>
    <i name="hartreedc">  -2193.07482056 </i>
    <i name="XCdc">    537.89982233 </i>
    <i name="pawpsdc">   9809.70189243 </i>
    <i name="pawaedc">  -9953.62422360 </i>
    <i name="eentropy">     -0.00000000 </i>
    <i name="bandstr">  -2618.43944994 </i>
    <i name="atom">  12703.13999606 </i>
    <i name="e_fr_energy">   -258.36169655 </i>
    <i name="e_wo_entrp">   -258.36169655 </i>
    <i name="e_0_energy">   -258.36169655 </i>
   </energy>
  </scstep>
  <structure>
   <crystal>
    <varray name="basis" >
     <v>       9.64270734       0.00000000       0.00000000 </v>
     <v>       0.00000000       9.64270734       0.00000000 </v>
     <v>       0.00000000       0.00000000       9.64270734 </v>
    </varray>
    <i name="volume">    896.59633311 </i>
    <varray name="rec_basis" >
     <v>       0.10370531       0.00000000       0.00000000 </v>
     <v>       0.00000000       0.10370531       0.00000000 </v>
     <v>       0.00000000       0.00000000       0.10370531 </v>
    </varray>
   </crystal>
   <varray name="positions" >
    <v>       0.98895899       0.29531718       0.29011458 </v>
    <v>       0.93522027       0.55140797       0.70267366 </v>
    <v>       0.06610413       0.19915665       0.87443598 </v>
    <v>       0.01605056       0.73050272       0.27469299 </v>
    <v>       0.97031451       0.83467306       0.82244079 </v>
    <v>       0.21199670       0.79796489       0.01223687 </v>
    <v>       0.67850375       0.32319905       0.03290918 </v>
    <v>       0.65886940       0.71885691       0.98075706 </v>
    <v>       0.19428576       0.99570841       0.19929319 </v>
    <v>       0.29568099       0.01816579       0.69471339 </v>
    <v>       0.72498228       0.97552271       0.71075076 </v>
    <v>       0.82406600       0.04160276       0.15159724 </v>
    <v>       0.20880958       0.67606691       0.47118458 </v>
    <v>       0.19822262       0.32209929       0.54140348 </v>
    <v>       0.80061630       0.71689857       0.51344933 </v>
    <v>       0.73309110       0.16471393       0.47020225 </v>
    <v>       0.31034683       0.45422817       0.84922859 </v>
    <v>       0.33363634       0.54354902       0.17816919 </v>
    <v>       0.77510479       0.48714202       0.29890480 </v>
    <v>       0.66056484       0.51496737       0.79509816 </v>
    <v>       0.49402055       0.21801591       0.70824719 </v>
    <v>       0.46111275       0.84850086       0.32753739 </v>
    <v>       0.52011245       0.20536177       0.28225793 </v>
    <v>       0.52979897       0.79050344       0.67064333 </v>
    <v>       0.50172183       0.49999016       0.49733770 </v>
    <v>       0.50270005       0.01107310       0.00125770 </v>
    <v>       0.99419118       0.50691429       0.00138145 </v>
    <v>       0.01088845       0.00559020       0.50758745 </v>
    <v>       0.12158264       0.86104163       0.61778283 </v>
    <v>       0.14086412       0.12979890       0.39344119 </v>
    <v>       0.87251569       0.90835829       0.37668195 </v>
    <v>       0.90542868       0.12746945       0.64549337 </v>
    <v>       0.86453737       0.63199800       0.11417187 </v>
    <v>       0.87382472       0.38062910       0.87708248 </v>
    <v>       0.11336260       0.62512945       0.86637894 </v>
    <v>       0.13018253       0.38809131       0.10934493 </v>
    <v>       0.64258700       0.12433396       0.88602787 </v>
    <v>       0.61884377       0.89895041       0.14162903 </v>
    <v>       0.37083836       0.14008686       0.10100269 </v>
    <v>       0.40148181       0.87205640       0.87348083 </v>
    <v>       0.60514831       0.64501029       0.37956606 </v>
    <v>       0.64635980       0.37749332       0.59515239 </v>
    <v>       0.37961608       0.60158162       0.63917433 </v>
    <v>       0.37439714       0.38604366       0.37172726 </v>
    <v>       0.75690347       0.73652449       0.74882503 </v>
    <v>       0.75581946       0.25523318       0.24919476 </v>
    <v>       0.24965380       0.76251425       0.24734050 </v>
    <v>       0.26512602       0.24475417       0.75116627 </v>
    <v>       0.02478425       0.98823431       0.00856337 </v>
    <v>       0.99156256       0.52822748       0.46386117 </v>
    <v>       0.52550368       0.00825931       0.53245652 </v>
    <v>       0.51361121       0.50838178       0.99281365 </v>
   </varray>
  </structure>
  <varray name="forces" >
   <v>       0.00010910       0.00082168       0.00083266 </v>
   <v>      -0.00014520      -0.00039651      -0.00018491 </v>
   <v>       0.00072408       0.00045841       0.00131416 </v>
   <v>       0.00010310       0.00034787      -0.00017176 </v>
   <v>       0.00018849      -0.00009018      -0.00026247 </v>
   <v>       0.00003356      -0.00012800      -0.00019389 </v>
   <v>      -0.00059345      -0.00011538       0.00024444 </v>
   <v>      -0.00040928       0.00031284      -0.00015353 </v>
   <v>      -0.00005625       0.00007717      -0.00016085 </v>
   <v>      -0.00004847      -0.00011017      -0.00007356 </v>
   <v>       0.00004243      -0.00018211      -0.00007804 </v>
   <v>       0.00022855       0.00018288      -0.00004551 </v>
   <v>      -0.00000467      -0.00033524      -0.00033525 </v>
   <v>      -0.00003448       0.00010528      -0.00008663 </v>
   <v>       0.00023806      -0.00008771      -0.00022343 </v>
   <v>       0.00023004       0.00004593      -0.00009165 </v>
   <v>      -0.00007412      -0.00009630       0.00033712 </v>
   <v>      -0.00022107      -0.00024540       0.00001222 </v>
   <v>      -0.00069062       0.00018329      -0.00053938 </v>
   <v>      -0.00028278       0.00005858       0.00019188 </v>
   <v>      -0.00002686      -0.00004122      -0.00019196 </v>
   <v>      -0.00014345       0.00013468      -0.00012616 </v>
   <v>      -0.00005848      -0.00079385       0.00074937 </v>
   <v>       0.00005478       0.00007804      -0.00052184 </v>
   <v>      -0.00131078      -0.00019322      -0.00121611 </v>
   <v>      -0.00047150      -0.00052542       0.00086626 </v>
   <v>       0.00282304      -0.00156250       0.00114697 </v>
   <v>       0.00109786      -0.00048090      -0.00202009 </v>
   <v>      -0.00030141       0.00028120      -0.00049103 </v>
   <v>      -0.00118812      -0.00079355       0.00085558 </v>
   <v>       0.00062963       0.00061772       0.00074576 </v>
   <v>      -0.00013112       0.00044290       0.00062047 </v>
   <v>      -0.00051675       0.00058964      -0.00007375 </v>
   <v>      -0.00030349      -0.00029228      -0.00001373 </v>
   <v>      -0.00065295      -0.00082021       0.00036642 </v>
   <v>      -0.00216052       0.00146370      -0.00177946 </v>
   <v>       0.00022751       0.00008276      -0.00020126 </v>
   <v>      -0.00066310       0.00092924      -0.00098501 </v>
   <v>       0.00068936      -0.00034941      -0.00034829 </v>
   <v>       0.00059608       0.00040551       0.00035173 </v>
   <v>      -0.00049106      -0.00037165       0.00072829 </v>
   <v>       0.00042897       0.00004992       0.00020534 </v>
   <v>       0.00025805      -0.00039869      -0.00017531 </v>
   <v>       0.00125182       0.00098281       0.00125643 </v>
   <v>       0.00005582      -0.00006915      -0.00003707 </v>
   <v>      -0.00007160       0.00018563       0.00014172 </v>
   <v>      -0.00013806      -0.00000841      -0.00020070 </v>
   <v>       0.00025783      -0.00012609       0.00009061 </v>
   <v>       0.00028894      -0.00041762       0.00006663 </v>
   <v>      -0.00013148       0.00013031      -0.00010487 </v>
   <v>       0.00017599       0.00017255       0.00028229 </v>
   <v>       0.00058804      -0.00010939      -0.00031882 </v>
  </varray>
  <varray name="stress" >
   <v>      -2.77355729       2.75084094       1.57772248 </v>
   <v>       2.75084096       0.35518867       1.81609321 </v>
   <v>       1.57772125       1.81609359       2.36451289 </v>
  </varray>
  <energy>
   <i name="e_fr_energy">   -272.02365993 </i>
   <i name="e_wo_entrp">   -272.02365993 </i>
   <i name="e_0_energy">   -272.02365993 </i>
  </energy>
  <time name="totalsc">    8.00    8.08</time>
 </calculation>
 <calculation>
  <scstep>
   <time name="dav">    2.26    2.28</time>
   <time name="total">    2.79    2.81</time>
   <energy>
    <i name="alphaZ">    302.76445894 </i>
    <i name="ewald">  -8846.70646591 </i>
    <i name="hartreedc">  -2193.09133916 </i>
    <i name="XCdc">    537.90020137 </i>
    <i name="pawpsdc">   9809.67112691 </i>
    <i name="pawaedc">  -9953.59329015 </i>
    <i name="eentropy">     -0.00000000 </i>
    <i name="bandstr">  -2618.44638574 </i>
    <i name="atom">  12703.13999606 </i>
    <i name="e_fr_energy">   -258.36169770 </i>
    <i name="e_wo_entrp">   -258.36169770 </i>
    <i name="e_0_energy">   -258.36169770 </i>
   </energy>
  </scstep>
  <scstep>
   <time name="diag">    0.36    0.36</time>
   <time name="diis">    0.76    0.76</time>
   <time name="orth">    0.07    0.07</time>
   <time name="total">    1.64    1.65</time>
   <energy>
    <i name="alphaZ">    302.76445894 </i>
    <i name="ewald">  -8846.70646591 </i>
    <i name="hartreedc">  -2193.09185858 </i>
    <i name="XCdc">    537.90023463 </i>
    <i name="pawpsdc">   9809.67988168 </i>
    <i name="pawaedc">  -9953.60201975 </i>
    <i name="eentropy">     -0.00000000 </i>
    <i name="bandstr">  -2618.44592492 </i>
    <i name="atom">  12703.13999606 </i>
    <i name="e_fr_energy">   -258.36169785 </i>
    <i name="e_wo_entrp">   -258.36169785 </i>
    <i name="e_0_energy">   -258.36169785 </i>
   </energy>
  </scstep>
  <structure>
   <crystal>
    <varray name="basis" >
     <v>       9.64270734       0.00000000       0.00000000 </v>
     <v>       0.00000000       9.64270734       0.00000000 </v>
     <v>       0.00000000       0.00000000       9.64270734 </v>
    </varray>
    <i name="volume">    896.59633311 </i>
    <varray name="rec_basis" >
     <v>       0.10370531       0.00000000       0.00000000 </v>
     <v>       0.00000000       0.10370531       0.00000000 </v>
     <v>       0.00000000       0.00000000       0.10370531 </v>
    </varray>
   </crystal>
   <varray name="positions" >
    <v>       0.98895957       0.29531519       0.29011222 </v>
    <v>       0.93522106       0.55140912       0.70267384 </v>
    <v>       0.06610298       0.19915562       0.87443344 </v>
    <v>       0.01605069       0.73050198       0.27469356 </v>
    <v>       0.97031462       0.83467317       0.82244161 </v>
    <v>       0.21199654       0.79796512       0.01223744 </v>
    <v>       0.67850495       0.32319964       0.03290880 </v>
    <v>       0.65886989       0.71885635       0.98075758 </v>
    <v>       0.19428565       0.99570803       0.19929362 </v>
    <v>       0.29568104       0.01816592       0.69471345 </v>
    <v>       0.72498194       0.97552282       0.71075074 </v>
    <v>       0.82406543       0.04160216       0.15159748 </v>
    <v>       0.20880962       0.67606751       0.47118502 </v>
    <v>       0.19822282       0.32209883       0.54140342 </v>
    <v>       0.80061565       0.71689902       0.51344969 </v>
    <v>       0.73309032       0.16471358       0.47020180 </v>
    <v>       0.31034682       0.45422823       0.84922821 </v>
    <v>       0.33363660       0.54354946       0.17816911 </v>
    <v>       0.77510627       0.48714136       0.29890619 </v>
    <v>       0.66056522       0.51496712       0.79509788 </v>
    <v>       0.49402051       0.21801597       0.70824755 </v>
    <v>       0.46111310       0.84850067       0.32753756 </v>
    <v>       0.52011246       0.20536364       0.28225620 </v>
    <v>       0.52979866       0.79050324       0.67064459 </v>
    <v>       0.50172097       0.49999015       0.49733611 </v>
    <v>       0.50269996       0.01107175       0.00125873 </v>
    <v>       0.99419401       0.50691339       0.00138197 </v>
    <v>       0.01088930       0.00558981       0.50758566 </v>
    <v>       0.12158144       0.86104317       0.61778318 </v>
    <v>       0.14086302       0.12979795       0.39344295 </v>
    <v>       0.87251666       0.90835875       0.37668371 </v>
    <v>       0.90542818       0.12746913       0.64549254 </v>
    <v>       0.86453835       0.63199685       0.11417183 </v>
    <v>       0.87382495       0.38063037       0.87708253 </v>
    <v>       0.11336141       0.62512988       0.86638017 </v>
    <v>       0.13018016       0.38809349       0.10934398 </v>
    <v>       0.64258569       0.12433372       0.88602826 </v>
    <v>       0.61884265       0.89895088       0.14162802 </v>
    <v>       0.37083943       0.14008553       0.10100150 </v>
    <v>       0.40148198       0.87205798       0.87348162 </v>
    <v>       0.60514820       0.64500889       0.37956662 </v>
    <v>       0.64635859       0.37749367       0.59515228 </v>
    <v>       0.37961733       0.60158120       0.63917295 </v>
    <v>       0.37439811       0.38604495       0.37172887 </v>
    <v>       0.75690326       0.73652469       0.74882482 </v>
    <v>       0.75581944       0.25523308       0.24919463 </v>
    <v>       0.24965356       0.76251443       0.24734076 </v>
    <v>       0.26512555       0.24475444       0.75116566 </v>
    <v>       0.02478435       0.98823439       0.00856362 </v>
    <v>       0.99156227       0.52822847       0.46386120 </v>
    <v>       0.52550380       0.00825883       0.53245786 </v>
    <v>       0.51361202       0.50838117       0.99281245 </v>
   </varray>
  </structure>
  <varray name="forces" >
   <v>      -0.00044709       0.00225452       0.00252386 </v>
   <v>      -0.00079251      -0.00125876      -0.00027556 </v>
   <v>       0.00142873       0.00118971       0.00300727 </v>
   <v>      -0.00001617       0.00086670      -0.00061583 </v>
   <v>       0.00002502      -0.00012416      -0.00090372 </v>
   <v>       0.00014665      -0.00028760      -0.00061895 </v>
   <v>      -0.00144591      -0.00056525       0.00049968 </v>
   <v>      -0.00073186       0.00069705      -0.00052496 </v>
   <v>       0.00005058       0.00037262      -0.00050208 </v>
   <v>      -0.00011148      -0.00016870      -0.00010926 </v>
   <v>       0.00035083      -0.00019451      -0.00001361 </v>
   <v>       0.00067324       0.00070642      -0.00024605 </v>
   <v>      -0.00005252      -0.00078878      -0.00063974 </v>
   <v>      -0.00023362       0.00053151       0.00008752 </v>
   <v>       0.00078028      -0.00048431      -0.00044774 </v>
   <v>       0.00082745       0.00034167       0.00033200 </v>
   <v>      -0.00005706      -0.00011957       0.00061216 </v>
   <v>      -0.00038834      -0.00051209       0.00009378 </v>
   <v>      -0.00168950       0.00064046      -0.00148188 </v>
   <v>      -0.00058724       0.00026910       0.00041467 </v>
[...]
       <r>     8.0022    10.5902   144.2251 </r>
       <r>     8.1959    14.3713   147.0094 </r>
       <r>     8.3895    13.8586   149.6964 </r>
       <r>     8.5832    14.8820   152.5814 </r>
       <r>     8.7768    13.6945   155.2358 </r>
       <r>     8.9705    15.9898   158.3368 </r>
       <r>     9.1641    15.4092   161.3234 </r>
       <r>     9.3578    18.6915   164.9431 </r>
       <r>     9.5514    19.7607   168.7727 </r>
       <r>     9.7451    17.2563   172.1162 </r>
       <r>     9.9387    16.5438   175.3234 </r>
       <r>    10.1324     3.4914   176.0000 </r>
       <r>    10.3260     0.0000   176.0000 </r>
       <r>    10.5197     0.0000   176.0000 </r>
       <r>    10.7133     0.0000   176.0000 </r>
       <r>    10.9070     0.0000   176.0000 </r>
       <r>    11.1006     0.0000   176.0000 </r>
       <r>    11.2943     0.0000   176.0000 </r>
       <r>    11.4879     0.0000   176.0000 </r>
       <r>    11.6816     0.0000   176.0000 </r>
       <r>    11.8752     0.0000   176.0000 </r>
       <r>    12.0689     0.0000   176.0000 </r>
       <r>    12.2625     0.0000   176.0000 </r>
       <r>    12.4562     0.0000   176.0000 </r>
       <r>    12.6498     0.0000   176.0000 </r>
      </set>
      <set comment="spin 2">
       <r>   -45.4453     0.0000     0.0000 </r>
       <r>   -45.2516     0.0000     0.0000 </r>
       <r>   -45.0580     0.0000     0.0000 </r>
       <r>   -44.8643     0.0000     0.0000 </r>
       <r>   -44.6707     0.0000     0.0000 </r>
       <r>   -44.4770     0.0000     0.0000 </r>
       <r>   -44.2834     0.0000     0.0000 </r>
       <r>   -44.0897     0.0000     0.0000 </r>
       <r>   -43.8961     0.0000     0.0000 </r>
       <r>   -43.7024     0.0000     0.0000 </r>
       <r>   -43.5088     0.0000     0.0000 </r>
       <r>   -43.3151     0.0000     0.0000 </r>
       <r>   -43.1215     0.0000     0.0000 </r>
       <r>   -42.9278     0.0000     0.0000 </r>
       <r>   -42.7342     5.1616     0.9995 </r>
       <r>   -42.5405     7.4131     2.4355 </r>
       <r>   -42.3469    57.4021    13.5534 </r>
       <r>   -42.1532    33.8291    20.1059 </r>
       <r>   -41.9596    19.7683    23.9342 </r>
       <r>   -41.7659     0.3396    24.0000 </r>
       <r>   -41.5723     0.0000    24.0000 </r>
       <r>   -41.3786     0.0000    24.0000 </r>
       <r>   -41.1850     0.0000    24.0000 </r>
       <r>   -40.9913     0.0000    24.0000 </r>
       <r>   -40.7977     0.0000    24.0000 </r>
       <r>   -40.6040     0.0000    24.0000 </r>
       <r>   -40.4104     0.0000    24.0000 </r>
       <r>   -40.2167     0.0000    24.0000 </r>
       <r>   -40.0231     0.0000    24.0000 </r>
       <r>   -39.8294     0.0000    24.0000 </r>
       <r>   -39.6358     0.0000    24.0000 </r>
       <r>   -39.4421     0.0000    24.0000 </r>
       <r>   -39.2485     0.0000    24.0000 </r>
       <r>   -39.0548     0.0000    24.0000 </r>
       <r>   -38.8612     0.0000    24.0000 </r>
       <r>   -38.6675     0.0000    24.0000 </r>
       <r>   -38.4739     0.0000    24.0000 </r>
       <r>   -38.2802     0.0000    24.0000 </r>
       <r>   -38.0866     0.0000    24.0000 </r>
       <r>   -37.8929     0.0000    24.0000 </r>
       <r>   -37.6993     0.0000    24.0000 </r>
       <r>   -37.5056     0.0000    24.0000 </r>
       <r>   -37.3120     0.0000    24.0000 </r>
       <r>   -37.1183     0.0000    24.0000 </r>
       <r>   -36.9246     0.0000    24.0000 </r>
       <r>   -36.7310     0.0000    24.0000 </r>
       <r>   -36.5373     0.0000    24.0000 </r>
       <r>   -36.3437     0.0000    24.0000 </r>
       <r>   -36.1500     0.0000    24.0000 </r>
       <r>   -35.9564     0.0000    24.0000 </r>
       <r>   -35.7627     0.0000    24.0000 </r>
       <r>   -35.5691     0.0000    24.0000 </r>
       <r>   -35.3754     0.0000    24.0000 </r>
       <r>   -35.1818     0.0000    24.0000 </r>
       <r>   -34.9881     0.0000    24.0000 </r>
       <r>   -34.7945     0.0000    24.0000 </r>
       <r>   -34.6008     0.0000    24.0000 </r>
       <r>   -34.4072     0.0000    24.0000 </r>
       <r>   -34.2135     0.0000    24.0000 </r>
       <r>   -34.0199     0.0000    24.0000 </r>
       <r>   -33.8262     0.0000    24.0000 </r>
       <r>   -33.6326     0.0000    24.0000 </r>
       <r>   -33.4389     0.0000    24.0000 </r>
       <r>   -33.2453     0.0000    24.0000 </r>
       <r>   -33.0516     0.0000    24.0000 </r>
       <r>   -32.8580     0.0000    24.0000 </r>
       <r>   -32.6643     0.0000    24.0000 </r>
       <r>   -32.4707     0.0000    24.0000 </r>
       <r>   -32.2770     0.0000    24.0000 </r>
       <r>   -32.0834     0.0000    24.0000 </r>
       <r>   -31.8897     0.0000    24.0000 </r>
       <r>   -31.6961     0.0000    24.0000 </r>
       <r>   -31.5024     0.0000    24.0000 </r>
       <r>   -31.3088     0.0000    24.0000 </r>
       <r>   -31.1151     0.0000    24.0000 </r>
       <r>   -30.9215     0.0000    24.0000 </r>
       <r>   -30.7278     0.0000    24.0000 </r>
       <r>   -30.5342     0.0000    24.0000 </r>
       <r>   -30.3405     0.0000    24.0000 </r>
       <r>   -30.1469     0.0000    24.0000 </r>
       <r>   -29.9532     0.0000    24.0000 </r>
       <r>   -29.7596     0.0000    24.0000 </r>
       <r>   -29.5659     0.0000    24.0000 </r>
       <r>   -29.3723     0.0000    24.0000 </r>
       <r>   -29.1786     0.0000    24.0000 </r>
       <r>   -28.9850     0.0000    24.0000 </r>
       <r>   -28.7913     0.0000    24.0000 </r>
       <r>   -28.5977     0.0000    24.0000 </r>
       <r>   -28.4040     0.0000    24.0000 </r>
       <r>   -28.2104     0.0000    24.0000 </r>
       <r>   -28.0167     0.0000    24.0000 </r>
       <r>   -27.8231     0.0000    24.0000 </r>
       <r>   -27.6294     0.0000    24.0000 </r>
       <r>   -27.4358     0.0000    24.0000 </r>
       <r>   -27.2421     0.0000    24.0000 </r>
       <r>   -27.0485     0.0000    24.0000 </r>
       <r>   -26.8548     0.0000    24.0000 </r>
       <r>   -26.6612     0.0000    24.0000 </r>
       <r>   -26.4675     0.0000    24.0000 </r>
       <r>   -26.2739     0.0000    24.0000 </r>
       <r>   -26.0802     0.0000    24.0000 </r>
       <r>   -25.8866     0.0000    24.0000 </r>
       <r>   -25.6929     0.0000    24.0000 </r>
       <r>   -25.4993     0.0000    24.0000 </r>
       <r>   -25.3056     0.0000    24.0000 </r>
       <r>   -25.1120     0.0000    24.0000 </r>
       <r>   -24.9183     0.0000    24.0000 </r>
       <r>   -24.7247     0.0000    24.0000 </r>
       <r>   -24.5310     0.0000    24.0000 </r>
       <r>   -24.3374     0.0000    24.0000 </r>
       <r>   -24.1437     0.0000    24.0000 </r>
       <r>   -23.9501     0.0000    24.0000 </r>
       <r>   -23.7564     0.0000    24.0000 </r>
       <r>   -23.5628     0.0000    24.0000 </r>
       <r>   -23.3691     0.0000    24.0000 </r>
       <r>   -23.1755     0.0000    24.0000 </r>
       <r>   -22.9818     0.0000    24.0000 </r>
       <r>   -22.7882     0.0000    24.0000 </r>
       <r>   -22.5945     0.0000    24.0000 </r>
       <r>   -22.4009     0.0000    24.0000 </r>
       <r>   -22.2072     0.0000    24.0000 </r>
       <r>   -22.0136     0.0000    24.0000 </r>
       <r>   -21.8199     0.0000    24.0000 </r>
       <r>   -21.6263     0.0000    24.0000 </r>
       <r>   -21.4326     0.0000    24.0000 </r>
       <r>   -21.2390     0.0000    24.0000 </r>
       <r>   -21.0453     0.0000    24.0000 </r>
       <r>   -20.8517     0.0000    24.0000 </r>
       <r>   -20.6580     0.0000    24.0000 </r>
       <r>   -20.4644     0.0000    24.0000 </r>
       <r>   -20.2707     0.0000    24.0000 </r>
       <r>   -20.0771     0.0000    24.0000 </r>
       <r>   -19.8834     0.0000    24.0000 </r>
       <r>   -19.6898     0.0000    24.0000 </r>
       <r>   -19.4961     0.0000    24.0000 </r>
       <r>   -19.3025     0.0000    24.0000 </r>
       <r>   -19.1088     0.0000    24.0000 </r>
       <r>   -18.9152     0.0000    24.0000 </r>
       <r>   -18.7215     0.0000    24.0000 </r>
       <r>   -18.5279     0.0000    24.0000 </r>
       <r>   -18.3342     0.0000    24.0000 </r>
       <r>   -18.1406     0.0000    24.0000 </r>
       <r>   -17.9469     0.0000    24.0000 </r>
       <r>   -17.7533     0.0000    24.0000 </r>
       <r>   -17.5596     0.0000    24.0000 </r>
       <r>   -17.3660     0.0000    24.0000 </r>
       <r>   -17.1723     0.0000    24.0000 </r>
       <r>   -16.9787     0.0000    24.0000 </r>
       <r>   -16.7850     0.0000    24.0000 </r>
       <r>   -16.5914     0.0000    24.0000 </r>
       <r>   -16.3977     0.0000    24.0000 </r>
       <r>   -16.2041     0.0000    24.0000 </r>
       <r>   -16.0104     0.0000    24.0000 </r>
       <r>   -15.8168     0.0000    24.0000 </r>
       <r>   -15.6231     0.0000    24.0000 </r>
       <r>   -15.4295     0.0000    24.0000 </r>
       <r>   -15.2358     0.0000    24.0000 </r>
       <r>   -15.0422     0.0000    24.0000 </r>
       <r>   -14.8485     0.0000    24.0000 </r>
       <r>   -14.6549     0.0000    24.0000 </r>
       <r>   -14.4612     0.0000    24.0000 </r>
       <r>   -14.2676     0.0000    24.0000 </r>
       <r>   -14.0739     0.0000    24.0000 </r>
       <r>   -13.8803     0.0000    24.0000 </r>
       <r>   -13.6866     0.0000    24.0000 </r>
       <r>   -13.4930     0.0000    24.0000 </r>
       <r>   -13.2993     0.0000    24.0000 </r>
       <r>   -13.1057     0.0099    24.0019 </r>
       <r>   -12.9120    15.0448    26.9153 </r>
       <r>   -12.7184    10.4341    28.9359 </r>
       <r>   -12.5247     8.5364    30.5902 </r>
       <r>   -12.3311     7.2801    32.0000 </r>
       <r>   -12.1374     0.0000    32.0000 </r>
       <r>   -11.9438     0.0000    32.0000 </r>
       <r>   -11.7501     0.0000    32.0000 </r>
       <r>   -11.5565     0.0000    32.0000 </r>
       <r>   -11.3628     0.0000    32.0000 </r>
       <r>   -11.1692     0.0000    32.0000 </r>
       <r>   -10.9755     0.0000    32.0000 </r>
       <r>   -10.7819     0.0000    32.0000 </r>
       <r>   -10.5882     0.0000    32.0000 </r>
       <r>   -10.3946     0.0000    32.0000 </r>
       <r>   -10.2009    10.8489    34.1009 </r>
       <r>   -10.0073    15.4683    37.0979 </r>
       <r>    -9.8136    25.2880    41.9952 </r>
       <r>    -9.6200    10.3513    44.0000 </r>
       <r>    -9.4263     0.0000    44.0000 </r>
       <r>    -9.2327     0.0000    44.0000 </r>
       <r>    -9.0390     0.0000    44.0000 </r>
       <r>    -8.8454     0.0000    44.0000 </r>
       <r>    -8.6517     5.1448    44.9963 </r>
       <r>    -8.4581     0.0000    45.0000 </r>
       <r>    -8.2644     9.1546    46.7728 </r>
       <r>    -8.0708     1.1647    47.0000 </r>
       <r>    -7.8771     0.0000    47.0000 </r>
       <r>    -7.6835     0.0013    47.0002 </r>
       <r>    -7.4898     5.1627    48.0000 </r>
       <r>    -7.2962     0.0000    48.0000 </r>
       <r>    -7.1025     0.0000    48.0000 </r>
       <r>    -6.9089     0.0000    48.0000 </r>
       <r>    -6.7152     0.0000    48.0000 </r>
       <r>    -6.5216     0.0000    48.0000 </r>
       <r>    -6.3279     0.0000    48.0000 </r>
       <r>    -6.1343     0.0017    48.0003 </r>
       <r>    -5.9406     5.1622    49.0000 </r>
       <r>    -5.7470     0.0046    49.0009 </r>
       <r>    -5.5533    10.2889    50.9933 </r>
       <r>    -5.3597     5.1638    52.0000 </r>
       <r>    -5.1660     0.0000    52.0000 </r>
       <r>    -4.9724     0.0000    52.0000 </r>
       <r>    -4.7787     0.0000    52.0000 </r>
       <r>    -4.5851     0.0000    52.0000 </r>
       <r>    -4.3914     0.0000    52.0000 </r>
       <r>    -4.1978     0.0000    52.0000 </r>
       <r>    -4.0041     0.0000    52.0000 </r>
       <r>    -3.8105     0.0000    52.0000 </r>
       <r>    -3.6168     0.0000    52.0000 </r>
       <r>    -3.4232     0.0000    52.0000 </r>
       <r>    -3.2295     0.0247    52.0048 </r>
       <r>    -3.0359    15.4666    54.9999 </r>
       <r>    -2.8422     0.1485    55.0288 </r>
       <r>    -2.6486    11.1793    57.1936 </r>
       <r>    -2.4549     9.1873    58.9728 </r>
       <r>    -2.2613    17.0501    62.2745 </r>
       <r>    -2.0676     8.8985    64.0000 </r>
       <r>    -1.8740     0.0000    64.0000 </r>
       <r>    -1.6803     0.0000    64.0000 </r>
       <r>    -1.4867    11.4569    66.2186 </r>
       <r>    -1.2930    20.3941    70.1726 </r>
       <r>    -1.0994    18.6389    73.7846 </r>
       <r>    -0.9057    11.3811    75.9994 </r>
       <r>    -0.7121     0.0000    76.0000 </r>
       <r>    -0.5184     7.3949    77.4320 </r>
       <r>    -0.3247    11.9191    79.7428 </r>
       <r>    -0.1311    12.7090    82.2039 </r>
       <r>     0.0626    22.3885    86.5426 </r>
       <r>     0.2562    24.2645    91.2461 </r>
       <r>     0.4499    18.6070    94.8522 </r>
       <r>     0.6435     5.9205    96.0001 </r>
       <r>     0.8372     9.6738    97.8735 </r>
       <r>     1.0308    19.0174   101.5595 </r>
       <r>     1.2245    22.7474   105.9671 </r>
       <r>     1.4181    21.7872   110.1889 </r>
       <r>     1.6118    24.8052   114.9945 </r>
       <r>     1.8054    10.1821   116.9706 </r>
       <r>     1.9991    10.4639   118.9971 </r>
       <r>     2.1927     0.0000   119.0000 </r>
       <r>     2.3864     5.1625   119.9997 </r>
       <r>     2.5800     0.0000   120.0000 </r>
       <r>     2.7737     0.0000   120.0000 </r>
       <r>     2.9673     0.0000   120.0000 </r>
       <r>     3.1610     0.0000   120.0000 </r>
       <r>     3.3546     0.0000   120.0000 </r>
       <r>     3.5483     0.0000   120.0000 </r>
       <r>     3.7419     0.0000   120.0000 </r>
       <r>     3.9356     0.0000   120.0000 </r>
       <r>     4.1292     0.0000   120.0000 </r>
       <r>     4.3229     0.0000   120.0000 </r>
       <r>     4.5165     4.0957   120.7931 </r>
       <r>     4.7102     1.0511   121.0000 </r>
       <r>     4.9038     0.0000   121.0000 </r>
       <r>     5.0975     0.0000   121.0000 </r>
       <r>     5.2911     3.8866   121.7527 </r>
       <r>     5.4848    11.0511   123.8927 </r>
       <r>     5.6784     0.5487   124.0000 </r>
       <r>     5.8721     0.0000   124.0000 </r>
       <r>     6.0657    11.4691   126.2210 </r>
       <r>     6.2594    15.8059   129.2818 </r>
       <r>     6.4530     4.1787   130.0919 </r>
       <r>     6.6467     9.3138   131.8955 </r>
       <r>     6.8403     9.1837   133.6744 </r>
       <r>     7.0340    11.8814   135.9752 </r>
       <r>     7.2276     5.2810   136.9999 </r>
       <r>     7.4213     5.0680   137.9814 </r>
       <r>     7.6149    10.2404   139.9647 </r>
       <r>     7.8086    11.3802   142.1703 </r>
       <r>     8.0022    10.5902   144.2251 </r>
       <r>     8.1959    14.3713   147.0094 </r>
       <r>     8.3895    13.8586   149.6964 </r>
       <r>     8.5832    14.8820   152.5814 </r>
       <r>     8.7768    13.6945   155.2358 </r>
       <r>     8.9705    15.9898   158.3368 </r>
       <r>     9.1641    15.4092   161.3234 </r>
       <r>     9.3578    18.6915   164.9431 </r>
       <r>     9.5514    19.7667   168.7738 </r>
       <r>     9.7451    17.2624   172.1186 </r>
       <r>     9.9387    16.4897   175.3161 </r>
       <r>    10.1324     3.5137   176.0000 </r>
       <r>    10.3260     0.0000   176.0000 </r>
       <r>    10.5197     0.0000   176.0000 </r>
       <r>    10.7133     0.0000   176.0000 </r>
       <r>    10.9070     0.0000   176.0000 </r>
       <r>    11.1006     0.0000   176.0000 </r>
       <r>    11.2943     0.0000   176.0000 </r>
       <r>    11.4879     0.0000   176.0000 </r>
       <r>    11.6816     0.0000   176.0000 </r>
       <r>    11.8752     0.0000   176.0000 </r>
       <r>    12.0689     0.0000   176.0000 </r>
       <r>    12.2625     0.0000   176.0000 </r>
       <r>    12.4562     0.0000   176.0000 </r>
       <r>    12.6498     0.0000   176.0000 </r>
      </set>
     </set>
    </array>
   </total>
  </dos>
 </calculation>
 <structure name="finalpos" >
  <crystal>
   <varray name="basis" >
    <v>       9.64270734       0.00000000       0.00000000 </v>
    <v>       0.00000000       9.64270734       0.00000000 </v>
    <v>       0.00000000       0.00000000       9.64270734 </v>
   </varray>
   <i name="volume">    896.59633311 </i>
   <varray name="rec_basis" >
    <v>       0.10370531       0.00000000       0.00000000 </v>
    <v>       0.00000000       0.10370531       0.00000000 </v>
    <v>       0.00000000       0.00000000       0.10370531 </v>
   </varray>
  </crystal>
  <varray name="positions" >
   <v>       0.98895804       0.29532280       0.29012079 </v>
   <v>       0.93521850       0.55140503       0.70267294 </v>
   <v>       0.06610790       0.19915964       0.87444367 </v>
   <v>       0.01605064       0.73050474       0.27469157 </v>
   <v>       0.97031477       0.83467270       0.82243879 </v>
   <v>       0.21199698       0.79796424       0.01223549 </v>
   <v>       0.67850026       0.32319779       0.03291038 </v>
   <v>       0.65886754       0.71885861       0.98075579 </v>
   <v>       0.19428580       0.99570912       0.19929204 </v>
   <v>       0.29568073       0.01816535       0.69471309 </v>
   <v>       0.72498295       0.97552214       0.71075058 </v>
   <v>       0.82406751       0.04160430       0.15159670 </v>
   <v>       0.20880950       0.67606507       0.47118298 </v>
   <v>       0.19822220       0.32210035       0.54140358 </v>
   <v>       0.80061803       0.71689759       0.51344826 </v>
   <v>       0.73309306       0.16471465       0.47020286 </v>
   <v>       0.31034668       0.45422781       0.84923004 </v>
   <v>       0.33363537       0.54354784       0.17816939 </v>
   <v>       0.77510065       0.48714357       0.29890118 </v>
   <v>       0.66056344       0.51496791       0.79509913 </v>
   <v>       0.49402058       0.21801571       0.70824612 </v>
   <v>       0.46111171       0.84850154       0.32753680 </v>
   <v>       0.52011241       0.20535648       0.28226285 </v>
   <v>       0.52979967       0.79050397       0.67063985 </v>
   <v>       0.50171955       0.49998965       0.49733664 </v>
   <v>       0.50269885       0.01107365       0.00125865 </v>
   <v>       0.99419467       0.50691149       0.00138385 </v>
   <v>       0.01089023       0.00558953       0.50758463 </v>
   <v>       0.12158382       0.86103982       0.61778098 </v>
   <v>       0.14086288       0.12979839       0.39344061 </v>
   <v>       0.87251559       0.90835910       0.37668102 </v>
   <v>       0.90542919       0.12747110       0.64549646 </v>
   <v>       0.86453441       0.63200138       0.11417162 </v>
   <v>       0.87382337       0.38062622       0.87708237 </v>
   <v>       0.11336279       0.62512669       0.86637765 </v>
   <v>       0.13018061       0.38809156       0.10934205 </v>
   <v>       0.64258974       0.12433456       0.88602659 </v>
   <v>       0.61884402       0.89895206       0.14162814 </v>
   <v>       0.37083862       0.14008808       0.10100362 </v>
   <v>       0.40148314       0.87205498       0.87348032 </v>
   <v>       0.60514726       0.64501173       0.37956711 </v>
   <v>       0.64636290       0.37749292       0.59515321 </v>
   <v>       0.37961473       0.60158130       0.63917624 </v>
   <v>       0.37439889       0.38604404       0.37172798 </v>
   <v>       0.75690392       0.73652399       0.74882525 </v>
   <v>       0.75581924       0.25523393       0.24919529 </v>
   <v>       0.24965366       0.76251409       0.24733958 </v>
   <v>       0.26512738       0.24475331       0.75116728 </v>
   <v>       0.02478470       0.98823285       0.00856279 </v>
   <v>       0.99156270       0.52822582       0.46386082 </v>
   <v>       0.52550401       0.00826085       0.53245462 </v>
   <v>       0.51361125       0.50838270       0.99281521 </v>
  </varray>
 </structure>
</modeling>
