unknown system                          
           1
     9.642707    0.000000    0.000000
     0.000000    9.642707    0.000000
     0.000000    0.000000    9.642707
   Li   P    S    Cl
    24     4    20     4
Direct configuration=     1
   0.98896189  0.29530728  0.29010286
   0.93522420  0.55141367  0.70267455
   0.06609844  0.19915152  0.87442337
   0.01605119  0.73049906  0.27469582
   0.97031506  0.83467360  0.82244488
   0.21199589  0.79796601  0.01223973
   0.67850968  0.32320199  0.03290730
   0.65887185  0.71885415  0.98075963
   0.19428522  0.99570652  0.19929534
   0.29568126  0.01816646  0.69471372
   0.72498060  0.97552324  0.71075064
   0.82406318  0.04159980  0.15159842
   0.20880977  0.67606988  0.47118675
   0.19822361  0.32209698  0.54140315
   0.80061304  0.71690079  0.51345111
   0.73308721  0.16471216  0.47020002
   0.31034680  0.45422848  0.84922672
   0.33363762  0.54355117  0.17816879
   0.77511214  0.48713875  0.29891171
   0.66056676  0.51496615  0.79509677
   0.49402036  0.21801622  0.70824896
   0.46111448  0.84849992  0.32753826
   0.52011247  0.20537108  0.28224933
   0.52979743  0.79050245  0.67064959
   0.50171755  0.49999012  0.49732981
   0.50269962  0.01106639  0.00126282
   0.99420524  0.50690982  0.00138403
   0.01089263  0.00558822  0.50757856
   0.12157670  0.86104930  0.61778458
   0.14085864  0.12979417  0.39344996
   0.87252052  0.90836059  0.37669072
   0.90542623  0.12746783  0.64548924
   0.86454223  0.63199228  0.11417167
   0.87382586  0.38063542  0.87708274
   0.11335669  0.62513158  0.86638505
   0.13017074  0.38810217  0.10934024
   0.64258048  0.12433277  0.88602982
   0.61883821  0.89895275  0.14162404
   0.37084365  0.14008024  0.10099676
   0.40148264  0.87206422  0.87348475
   0.60514775  0.64500334  0.37956884
   0.64635379  0.37749505  0.59515185
   0.37962228  0.60157952  0.63916749
   0.37440198  0.38605006  0.37173525
   0.75690243  0.73652545  0.74882395
   0.75581938  0.25523268  0.24919412
   0.24965258  0.76251514  0.24734179
   0.26512371  0.24475553  0.75116324
   0.02478474  0.98823468  0.00856459
   0.99156109  0.52823241  0.46386131
   0.52550428  0.00825692  0.53246317
   0.51361525  0.50837878  0.99280771
Direct configuration=     2
   0.98896094  0.29531054  0.29010671
   0.93522290  0.55141179  0.70267426
   0.06610031  0.19915321  0.87442752
   0.01605098  0.73050026  0.27469489
   0.97031488  0.83467342  0.82244353
   0.21199616  0.79796564  0.01223879
   0.67850773  0.32320102  0.03290792
   0.65887104  0.71885506  0.98075878
   0.19428540  0.99570714  0.19929463
   0.29568117  0.01816624  0.69471361
   0.72498115  0.97552306  0.71075068
   0.82406411  0.04160077  0.15159803
   0.20880971  0.67606890  0.47118604
   0.19822329  0.32209774  0.54140326
   0.80061411  0.71690006  0.51345053
   0.73308849  0.16471274  0.47020075
   0.31034681  0.45422838  0.84922733
   0.33363720  0.54355046  0.17816892
   0.77510972  0.48713983  0.29890944
   0.66056613  0.51496655  0.79509723
   0.49402042  0.21801612  0.70824838
   0.46111391  0.84850023  0.32753797
   0.52011246  0.20536802  0.28225216
   0.52979793  0.79050278  0.67064753
   0.50171896  0.49999014  0.49733241
   0.50269976  0.01106859  0.00126114
   0.99420062  0.50691129  0.00138318
   0.01089126  0.00558887  0.50758148
   0.12157865  0.86104678  0.61778400
   0.14086044  0.12979572  0.39344707
   0.87251893  0.90835983  0.37668783
   0.90542703  0.12746836  0.64549060
   0.86454063  0.63199416  0.11417174
   0.87382548  0.38063334  0.87708265
   0.11335863  0.62513088  0.86638304
   0.13017462  0.38809860  0.10934178
   0.64258263  0.12433316  0.88602917
   0.61884004  0.89895198  0.14162568
   0.37084191  0.14008242  0.10099871
   0.40148237  0.87206165  0.87348346
   0.60514793  0.64500563  0.37956792
   0.64635577  0.37749448  0.59515202
   0.37962024  0.60158021  0.63916974
   0.37440039  0.38604795  0.37173262
   0.75690278  0.73652513  0.74882431
   0.75581941  0.25523284  0.24919433
   0.24965299  0.76251485  0.24734137
   0.26512447  0.24475508  0.75116423
   0.02478458  0.98823456  0.00856419
   0.99156158  0.52823079  0.46386127
   0.52550409  0.00825771  0.53246098
   0.51361392  0.50837977  0.99280966
Direct configuration=     3
   0.98896029  0.29531275  0.29010934
   0.93522203  0.55141052  0.70267406
   0.06610158  0.19915436  0.87443034
   0.01605084  0.73050108  0.27469426
   0.97031476  0.83467330  0.82244262
   0.21199634  0.79796539  0.01223815
   0.67850641  0.32320036  0.03290834
   0.65887050  0.71885568  0.98075821
   0.19428552  0.99570757  0.19929415
   0.29568111  0.01816609  0.69471353
   0.72498153  0.97552295  0.71075070
   0.82406474  0.04160143  0.15159777
   0.20880967  0.67606824  0.47118555
   0.19822307  0.32209826  0.54140334
   0.80061484  0.71689956  0.51345013
   0.73308936  0.16471314  0.47020125
   0.31034682  0.45422831  0.84922775
   0.33363692  0.54354998  0.17816901
   0.77510808  0.48714056  0.29890789
   0.66056570  0.51496682  0.79509754
   0.49402046  0.21801605  0.70824798
   0.46111352  0.84850044  0.32753778
   0.52011246  0.20536593  0.28225408
   0.52979828  0.79050300  0.67064613
   0.50171992  0.49999014  0.49733417
   0.50269986  0.01107010  0.00125999
   0.99419747  0.50691229  0.00138260
   0.01089032  0.00558932  0.50758347
   0.12157998  0.86104506  0.61778361
   0.14086167  0.12979678  0.39344511
   0.87251785  0.90835932  0.37668587
   0.90542758  0.12746873  0.64549152
   0.86453954  0.63199544  0.11417178
   0.87382523  0.38063193  0.87708259
   0.11335995  0.62513040  0.86638167
   0.13017726  0.38809617  0.10934283
   0.64258408  0.12433343  0.88602874
   0.61884128  0.89895146  0.14162680
   0.37084073  0.14008390  0.10100004
   0.40148218  0.87205990  0.87348258
   0.60514806  0.64500718  0.37956730
   0.64635711  0.37749410  0.59515214
   0.37961885  0.60158068  0.63917127
   0.37439930  0.38604652  0.37173083
   0.75690301  0.73652492  0.74882455
   0.75581942  0.25523295  0.24919447
   0.24965326  0.76251465  0.24734108
   0.26512498  0.24475478  0.75116491
   0.02478447  0.98823448  0.00856392
   0.99156191  0.52822969  0.46386123
   0.52550395  0.00825824  0.53245949
   0.51361302  0.50838044  0.99281099
Direct configuration=     4
   0.98895899  0.29531718  0.29011458
   0.93522027  0.55140797  0.70267366
   0.06610413  0.19915665  0.87443598
   0.01605056  0.73050272  0.27469299
   0.97031451  0.83467306  0.82244079
   0.21199670  0.79796489  0.01223687
   0.67850375  0.32319905  0.03290918
   0.65886940  0.71885691  0.98075706
   0.19428576  0.99570841  0.19929319
   0.29568099  0.01816579  0.69471339
   0.72498228  0.97552271  0.71075076
   0.82406600  0.04160276  0.15159724
   0.20880958  0.67606691  0.47118458
   0.19822262  0.32209929  0.54140348
   0.80061630  0.71689857  0.51344933
   0.73309110  0.16471393  0.47020225
   0.31034683  0.45422817  0.84922859
   0.33363634  0.54354902  0.17816919
   0.77510479  0.48714202  0.29890480
   0.66056484  0.51496737  0.79509816
   0.49402055  0.21801591  0.70824719
   0.46111275  0.84850086  0.32753739
   0.52011245  0.20536177  0.28225793
   0.52979897  0.79050344  0.67064333
   0.50172183  0.49999016  0.49733770
   0.50270005  0.01107310  0.00125770
   0.99419118  0.50691429  0.00138145
   0.01088845  0.00559020  0.50758745
   0.12158264  0.86104163  0.61778283
   0.14086412  0.12979890  0.39344119
   0.87251569  0.90835829  0.37668195
   0.90542868  0.12746945  0.64549337
   0.86453737  0.63199800  0.11417187
   0.87382472  0.38062910  0.87708248
   0.11336260  0.62512945  0.86637894
   0.13018253  0.38809131  0.10934493
   0.64258700  0.12433396  0.88602787
   0.61884377  0.89895041  0.14162903
   0.37083836  0.14008686  0.10100269
   0.40148181  0.87205640  0.87348083
   0.60514831  0.64501029  0.37956606
   0.64635980  0.37749332  0.59515239
   0.37961608  0.60158162  0.63917433
   0.37439714  0.38604366  0.37172726
   0.75690347  0.73652449  0.74882503
   0.75581946  0.25523318  0.24919476
   0.24965380  0.76251425  0.24734050
   0.26512602  0.24475417  0.75116627
   0.02478425  0.98823431  0.00856337
   0.99156256  0.52822748  0.46386117
   0.52550368  0.00825931  0.53245652
   0.51361121  0.50838178  0.99281365
Direct configuration=     5
   0.98895957  0.29531519  0.29011222
   0.93522106  0.55140912  0.70267384
   0.06610298  0.19915562  0.87443344
   0.01605069  0.73050198  0.27469356
   0.97031462  0.83467317  0.82244161
   0.21199654  0.79796512  0.01223744
   0.67850495  0.32319964  0.03290880
   0.65886989  0.71885635  0.98075758
   0.19428565  0.99570803  0.19929362
   0.29568104  0.01816592  0.69471345
   0.72498194  0.97552282  0.71075074
   0.82406543  0.04160216  0.15159748
   0.20880962  0.67606751  0.47118502
   0.19822282  0.32209883  0.54140342
   0.80061565  0.71689902  0.51344969
   0.73309032  0.16471358  0.47020180
   0.31034682  0.45422823  0.84922821
   0.33363660  0.54354946  0.17816911
   0.77510627  0.48714136  0.29890619
   0.66056522  0.51496712  0.79509788
   0.49402051  0.21801597  0.70824755
   0.46111310  0.84850067  0.32753756
   0.52011246  0.20536364  0.28225620
   0.52979866  0.79050324  0.67064459
   0.50172097  0.49999015  0.49733611
   0.50269996  0.01107175  0.00125873
   0.99419401  0.50691339  0.00138197
   0.01088930  0.00558981  0.50758566
   0.12158144  0.86104317  0.61778318
   0.14086302  0.12979795  0.39344295
   0.87251666  0.90835875  0.37668371
   0.90542818  0.12746913  0.64549254
   0.86453835  0.63199685  0.11417183
   0.87382495  0.38063037  0.87708253
   0.11336141  0.62512988  0.86638017
   0.13018016  0.38809349  0.10934398
   0.64258569  0.12433372  0.88602826
   0.61884265  0.89895088  0.14162802
   0.37083943  0.14008553  0.10100150
   0.40148198  0.87205798  0.87348162
   0.60514820  0.64500889  0.37956662
   0.64635859  0.37749367  0.59515228
   0.37961733  0.60158120  0.63917295
   0.37439811  0.38604495  0.37172887
   0.75690326  0.73652469  0.74882482
   0.75581944  0.25523308  0.24919463
   0.24965356  0.76251443  0.24734076
   0.26512555  0.24475444  0.75116566
   0.02478435  0.98823439  0.00856362
   0.99156227  0.52822847  0.46386120
   0.52550380  0.00825883  0.53245786
   0.51361202  0.50838117  0.99281245
Direct configuration=     6
   0.98895918  0.29531653  0.29011382
   0.93522053  0.55140834  0.70267372
   0.06610376  0.19915631  0.87443516
   0.01605060  0.73050248  0.27469318
   0.97031455  0.83467309  0.82244106
   0.21199665  0.79796497  0.01223706
   0.67850414  0.32319924  0.03290906
   0.65886956  0.71885673  0.98075723
   0.19428572  0.99570829  0.19929333
   0.29568100  0.01816583  0.69471341
   0.72498217  0.97552275  0.71075075
   0.82406582  0.04160256  0.15159732
   0.20880960  0.67606711  0.47118472
   0.19822269  0.32209914  0.54140346
   0.80061609  0.71689872  0.51344945
   0.73309085  0.16471382  0.47020210
   0.31034683  0.45422819  0.84922847
   0.33363643  0.54354917  0.17816916
   0.77510527  0.48714181  0.29890525
   0.66056496  0.51496729  0.79509806
   0.49402053  0.21801593  0.70824731
   0.46111286  0.84850080  0.32753745
   0.52011245  0.20536238  0.28225736
   0.52979887  0.79050338  0.67064374
   0.50172155  0.49999016  0.49733718
   0.50270002  0.01107266  0.00125804
   0.99419210  0.50691400  0.00138162
   0.01088873  0.00559007  0.50758687
   0.12158225  0.86104213  0.61778295
   0.14086376  0.12979859  0.39344176
   0.87251600  0.90835844  0.37668252
   0.90542851  0.12746935  0.64549310
   0.86453769  0.63199763  0.11417186
   0.87382479  0.38062951  0.87708250
   0.11336221  0.62512959  0.86637934
   0.13018176  0.38809202  0.10934462
   0.64258658  0.12433388  0.88602799
   0.61884340  0.89895057  0.14162870
   0.37083871  0.14008643  0.10100230
   0.40148187  0.87205692  0.87348109
   0.60514828  0.64500983  0.37956624
   0.64635940  0.37749344  0.59515235
   0.37961648  0.60158148  0.63917388
   0.37439746  0.38604408  0.37172779
   0.75690340  0.73652456  0.74882496
   0.75581945  0.25523315  0.24919471
   0.24965372  0.76251431  0.24734059
   0.26512587  0.24475426  0.75116607
   0.02478428  0.98823434  0.00856345
   0.99156247  0.52822781  0.46386118
   0.52550372  0.00825915  0.53245695
   0.51361147  0.50838158  0.99281326
Direct configuration=     7
   0.98895804  0.29532280  0.29012079
   0.93521850  0.55140503  0.70267294
   0.06610790  0.19915964  0.87444367
   0.01605064  0.73050474  0.27469157
   0.97031477  0.83467270  0.82243879
   0.21199698  0.79796424  0.01223549
   0.67850026  0.32319779  0.03291038
   0.65886754  0.71885861  0.98075579
   0.19428580  0.99570912  0.19929204
   0.29568073  0.01816535  0.69471309
   0.72498295  0.97552214  0.71075058
   0.82406751  0.04160430  0.15159670
   0.20880950  0.67606507  0.47118298
   0.19822220  0.32210035  0.54140358
   0.80061803  0.71689759  0.51344826
   0.73309306  0.16471465  0.47020286
   0.31034668  0.45422781  0.84923004
   0.33363537  0.54354784  0.17816939
   0.77510065  0.48714357  0.29890118
   0.66056344  0.51496791  0.79509913
   0.49402058  0.21801571  0.70824612
   0.46111171  0.84850154  0.32753680
   0.52011241  0.20535648  0.28226285
   0.52979967  0.79050397  0.67063985
   0.50171955  0.49998965  0.49733664
   0.50269885  0.01107365  0.00125865
   0.99419467  0.50691149  0.00138385
   0.01089023  0.00558953  0.50758463
   0.12158382  0.86103982  0.61778098
   0.14086288  0.12979839  0.39344061
   0.87251559  0.90835910  0.37668102
   0.90542919  0.12747110  0.64549646
   0.86453441  0.63200138  0.11417162
   0.87382337  0.38062622  0.87708237
   0.11336279  0.62512669  0.86637765
   0.13018061  0.38809156  0.10934205
   0.64258974  0.12433456  0.88602659
   0.61884402  0.89895206  0.14162814
   0.37083862  0.14008808  0.10100362
   0.40148314  0.87205498  0.87348032
   0.60514726  0.64501173  0.37956711
   0.64636290  0.37749292  0.59515321
   0.37961473  0.60158130  0.63917624
   0.37439889  0.38604404  0.37172798
   0.75690392  0.73652399  0.74882525
   0.75581924  0.25523393  0.24919529
   0.24965366  0.76251409  0.24733958
   0.26512738  0.24475331  0.75116728
   0.02478470  0.98823285  0.00856279
   0.99156270  0.52822582  0.46386082
   0.52550401  0.00826085  0.53245462
   0.51361125  0.50838270  0.99281521
