  52  52   0   4
  0.1726460E+02  0.9646875E-09  0.9646875E-09  0.9646875E-09  0.2000000E-15
  1.000000000000000E-004
  CAR 
 unknown system                          
     12.60991898    -45.20502342  301      2.05869199      1.00000000
    -45.205  0.0000E+00  0.0000E+00  0.0000E+00  0.0000E+00
    -45.012  0.0000E+00  0.0000E+00  0.0000E+00  0.0000E+00
    -44.820  0.0000E+00  0.0000E+00  0.0000E+00  0.0000E+00
    -44.627  0.0000E+00  0.0000E+00  0.0000E+00  0.0000E+00
    -44.434  0.0000E+00  0.0000E+00  0.0000E+00  0.0000E+00
    -44.241  0.0000E+00  0.0000E+00  0.0000E+00  0.0000E+00
    -44.049  0.0000E+00  0.0000E+00  0.0000E+00  0.0000E+00
    -43.856  0.0000E+00  0.0000E+00  0.0000E+00  0.0000E+00
    -43.663  0.0000E+00  0.0000E+00  0.0000E+00  0.0000E+00
    -43.471  0.0000E+00  0.0000E+00  0.0000E+00  0.0000E+00
    -43.278  0.0000E+00  0.0000E+00  0.0000E+00  0.0000E+00
    -43.085  0.0000E+00  0.0000E+00  0.0000E+00  0.0000E+00
    -42.892  0.0000E+00  0.0000E+00  0.0000E+00  0.0000E+00
    -42.700  0.1924E-10  0.1924E-10  0.3708E-11  0.3708E-11
    -42.507  0.1428E-01  0.1428E-01  0.2752E-02  0.2752E-02
    -42.314  0.5641E-01  0.5641E-01  0.1362E-01  0.1362E-01
    -42.122  0.5381E-01  0.5381E-01  0.2400E-01  0.2400E-01
    -41.929  0.0000E+00  0.0000E+00  0.2400E-01  0.2400E-01
    -41.736  0.0000E+00  0.0000E+00  0.2400E-01  0.2400E-01
    -41.543  0.0000E+00  0.0000E+00  0.2400E-01  0.2400E-01
    -41.351  0.0000E+00  0.0000E+00  0.2400E-01  0.2400E-01
    -41.158  0.0000E+00  0.0000E+00  0.2400E-01  0.2400E-01
    -40.965  0.0000E+00  0.0000E+00  0.2400E-01  0.2400E-01
    -40.773  0.0000E+00  0.0000E+00  0.2400E-01  0.2400E-01
    -40.580  0.0000E+00  0.0000E+00  0.2400E-01  0.2400E-01
    -40.387  0.0000E+00  0.0000E+00  0.2400E-01  0.2400E-01
    -40.194  0.0000E+00  0.0000E+00  0.2400E-01  0.2400E-01
    -40.002  0.0000E+00  0.0000E+00  0.2400E-01  0.2400E-01
    -39.809  0.0000E+00  0.0000E+00  0.2400E-01  0.2400E-01
    -39.616  0.0000E+00  0.0000E+00  0.2400E-01  0.2400E-01
    -39.424  0.0000E+00  0.0000E+00  0.2400E-01  0.2400E-01
    -39.231  0.0000E+00  0.0000E+00  0.2400E-01  0.2400E-01
    -39.038  0.0000E+00  0.0000E+00  0.2400E-01  0.2400E-01
    -38.845  0.0000E+00  0.0000E+00  0.2400E-01  0.2400E-01
    -38.653  0.0000E+00  0.0000E+00  0.2400E-01  0.2400E-01
    -38.460  0.0000E+00  0.0000E+00  0.2400E-01  0.2400E-01
    -38.267  0.0000E+00  0.0000E+00  0.2400E-01  0.2400E-01
    -38.075  0.0000E+00  0.0000E+00  0.2400E-01  0.2400E-01
    -37.882  0.0000E+00  0.0000E+00  0.2400E-01  0.2400E-01
    -37.689  0.0000E+00  0.0000E+00  0.2400E-01  0.2400E-01
    -37.496  0.0000E+00  0.0000E+00  0.2400E-01  0.2400E-01
    -37.304  0.0000E+00  0.0000E+00  0.2400E-01  0.2400E-01
    -37.111  0.0000E+00  0.0000E+00  0.2400E-01  0.2400E-01
    -36.918  0.0000E+00  0.0000E+00  0.2400E-01  0.2400E-01
    -36.725  0.0000E+00  0.0000E+00  0.2400E-01  0.2400E-01
    -36.533  0.0000E+00  0.0000E+00  0.2400E-01  0.2400E-01
    -36.340  0.0000E+00  0.0000E+00  0.2400E-01  0.2400E-01
    -36.147  0.0000E+00  0.0000E+00  0.2400E-01  0.2400E-01
    -35.955  0.0000E+00  0.0000E+00  0.2400E-01  0.2400E-01
    -35.762  0.0000E+00  0.0000E+00  0.2400E-01  0.2400E-01
    -35.569  0.0000E+00  0.0000E+00  0.2400E-01  0.2400E-01
    -35.376  0.0000E+00  0.0000E+00  0.2400E-01  0.2400E-01
    -35.184  0.0000E+00  0.0000E+00  0.2400E-01  0.2400E-01
    -34.991  0.0000E+00  0.0000E+00  0.2400E-01  0.2400E-01
    -34.798  0.0000E+00  0.0000E+00  0.2400E-01  0.2400E-01
    -34.606  0.0000E+00  0.0000E+00  0.2400E-01  0.2400E-01
    -34.413  0.0000E+00  0.0000E+00  0.2400E-01  0.2400E-01
    -34.220  0.0000E+00  0.0000E+00  0.2400E-01  0.2400E-01
    -34.027  0.0000E+00  0.0000E+00  0.2400E-01  0.2400E-01
    -33.835  0.0000E+00  0.0000E+00  0.2400E-01  0.2400E-01
    -33.642  0.0000E+00  0.0000E+00  0.2400E-01  0.2400E-01
    -33.449  0.0000E+00  0.0000E+00  0.2400E-01  0.2400E-01
    -33.257  0.0000E+00  0.0000E+00  0.2400E-01  0.2400E-01
    -33.064  0.0000E+00  0.0000E+00  0.2400E-01  0.2400E-01
    -32.871  0.0000E+00  0.0000E+00  0.2400E-01  0.2400E-01
    -32.678  0.0000E+00  0.0000E+00  0.2400E-01  0.2400E-01
    -32.486  0.0000E+00  0.0000E+00  0.2400E-01  0.2400E-01
    -32.293  0.0000E+00  0.0000E+00  0.2400E-01  0.2400E-01
    -32.100  0.0000E+00  0.0000E+00  0.2400E-01  0.2400E-01
    -31.908  0.0000E+00  0.0000E+00  0.2400E-01  0.2400E-01
    -31.715  0.0000E+00  0.0000E+00  0.2400E-01  0.2400E-01
    -31.522  0.0000E+00  0.0000E+00  0.2400E-01  0.2400E-01
    -31.329  0.0000E+00  0.0000E+00  0.2400E-01  0.2400E-01
    -31.137  0.0000E+00  0.0000E+00  0.2400E-01  0.2400E-01
    -30.944  0.0000E+00  0.0000E+00  0.2400E-01  0.2400E-01
    -30.751  0.0000E+00  0.0000E+00  0.2400E-01  0.2400E-01
    -30.559  0.0000E+00  0.0000E+00  0.2400E-01  0.2400E-01
    -30.366  0.0000E+00  0.0000E+00  0.2400E-01  0.2400E-01
    -30.173  0.0000E+00  0.0000E+00  0.2400E-01  0.2400E-01
    -29.980  0.0000E+00  0.0000E+00  0.2400E-01  0.2400E-01
    -29.788  0.0000E+00  0.0000E+00  0.2400E-01  0.2400E-01
    -29.595  0.0000E+00  0.0000E+00  0.2400E-01  0.2400E-01
    -29.402  0.0000E+00  0.0000E+00  0.2400E-01  0.2400E-01
    -29.210  0.0000E+00  0.0000E+00  0.2400E-01  0.2400E-01
    -29.017  0.0000E+00  0.0000E+00  0.2400E-01  0.2400E-01
    -28.824  0.0000E+00  0.0000E+00  0.2400E-01  0.2400E-01
    -28.631  0.0000E+00  0.0000E+00  0.2400E-01  0.2400E-01
    -28.439  0.0000E+00  0.0000E+00  0.2400E-01  0.2400E-01
    -28.246  0.0000E+00  0.0000E+00  0.2400E-01  0.2400E-01
    -28.053  0.0000E+00  0.0000E+00  0.2400E-01  0.2400E-01
    -27.861  0.0000E+00  0.0000E+00  0.2400E-01  0.2400E-01
    -27.668  0.0000E+00  0.0000E+00  0.2400E-01  0.2400E-01
    -27.475  0.0000E+00  0.0000E+00  0.2400E-01  0.2400E-01
    -27.282  0.0000E+00  0.0000E+00  0.2400E-01  0.2400E-01
    -27.090  0.0000E+00  0.0000E+00  0.2400E-01  0.2400E-01
    -26.897  0.0000E+00  0.0000E+00  0.2400E-01  0.2400E-01
    -26.704  0.0000E+00  0.0000E+00  0.2400E-01  0.2400E-01
    -26.512  0.0000E+00  0.0000E+00  0.2400E-01  0.2400E-01
    -26.319  0.0000E+00  0.0000E+00  0.2400E-01  0.2400E-01
    -26.126  0.0000E+00  0.0000E+00  0.2400E-01  0.2400E-01
    -25.933  0.0000E+00  0.0000E+00  0.2400E-01  0.2400E-01
    -25.741  0.0000E+00  0.0000E+00  0.2400E-01  0.2400E-01
    -25.548  0.0000E+00  0.0000E+00  0.2400E-01  0.2400E-01
    -25.355  0.0000E+00  0.0000E+00  0.2400E-01  0.2400E-01
    -25.163  0.0000E+00  0.0000E+00  0.2400E-01  0.2400E-01
    -24.970  0.0000E+00  0.0000E+00  0.2400E-01  0.2400E-01
    -24.777  0.0000E+00  0.0000E+00  0.2400E-01  0.2400E-01
    -24.584  0.0000E+00  0.0000E+00  0.2400E-01  0.2400E-01
    -24.392  0.0000E+00  0.0000E+00  0.2400E-01  0.2400E-01
    -24.199  0.0000E+00  0.0000E+00  0.2400E-01  0.2400E-01
    -24.006  0.0000E+00  0.0000E+00  0.2400E-01  0.2400E-01
    -23.813  0.0000E+00  0.0000E+00  0.2400E-01  0.2400E-01
    -23.621  0.0000E+00  0.0000E+00  0.2400E-01  0.2400E-01
    -23.428  0.0000E+00  0.0000E+00  0.2400E-01  0.2400E-01
    -23.235  0.0000E+00  0.0000E+00  0.2400E-01  0.2400E-01
    -23.043  0.0000E+00  0.0000E+00  0.2400E-01  0.2400E-01
    -22.850  0.0000E+00  0.0000E+00  0.2400E-01  0.2400E-01
    -22.657  0.0000E+00  0.0000E+00  0.2400E-01  0.2400E-01
    -22.464  0.0000E+00  0.0000E+00  0.2400E-01  0.2400E-01
    -22.272  0.0000E+00  0.0000E+00  0.2400E-01  0.2400E-01
    -22.079  0.0000E+00  0.0000E+00  0.2400E-01  0.2400E-01
    -21.886  0.0000E+00  0.0000E+00  0.2400E-01  0.2400E-01
    -21.694  0.0000E+00  0.0000E+00  0.2400E-01  0.2400E-01
    -21.501  0.0000E+00  0.0000E+00  0.2400E-01  0.2400E-01
    -21.308  0.0000E+00  0.0000E+00  0.2400E-01  0.2400E-01
    -21.115  0.0000E+00  0.0000E+00  0.2400E-01  0.2400E-01
    -20.923  0.0000E+00  0.0000E+00  0.2400E-01  0.2400E-01
    -20.730  0.0000E+00  0.0000E+00  0.2400E-01  0.2400E-01
    -20.537  0.0000E+00  0.0000E+00  0.2400E-01  0.2400E-01
    -20.345  0.0000E+00  0.0000E+00  0.2400E-01  0.2400E-01
    -20.152  0.0000E+00  0.0000E+00  0.2400E-01  0.2400E-01
    -19.959  0.0000E+00  0.0000E+00  0.2400E-01  0.2400E-01
    -19.766  0.0000E+00  0.0000E+00  0.2400E-01  0.2400E-01
    -19.574  0.0000E+00  0.0000E+00  0.2400E-01  0.2400E-01
    -19.381  0.0000E+00  0.0000E+00  0.2400E-01  0.2400E-01
    -19.188  0.0000E+00  0.0000E+00  0.2400E-01  0.2400E-01
    -18.996  0.0000E+00  0.0000E+00  0.2400E-01  0.2400E-01
    -18.803  0.0000E+00  0.0000E+00  0.2400E-01  0.2400E-01
    -18.610  0.0000E+00  0.0000E+00  0.2400E-01  0.2400E-01
    -18.417  0.0000E+00  0.0000E+00  0.2400E-01  0.2400E-01
    -18.225  0.0000E+00  0.0000E+00  0.2400E-01  0.2400E-01
    -18.032  0.0000E+00  0.0000E+00  0.2400E-01  0.2400E-01
    -17.839  0.0000E+00  0.0000E+00  0.2400E-01  0.2400E-01
    -17.647  0.0000E+00  0.0000E+00  0.2400E-01  0.2400E-01
    -17.454  0.0000E+00  0.0000E+00  0.2400E-01  0.2400E-01
    -17.261  0.0000E+00  0.0000E+00  0.2400E-01  0.2400E-01
    -17.068  0.0000E+00  0.0000E+00  0.2400E-01  0.2400E-01
    -16.876  0.0000E+00  0.0000E+00  0.2400E-01  0.2400E-01
    -16.683  0.0000E+00  0.0000E+00  0.2400E-01  0.2400E-01
    -16.490  0.0000E+00  0.0000E+00  0.2400E-01  0.2400E-01
    -16.298  0.0000E+00  0.0000E+00  0.2400E-01  0.2400E-01
    -16.105  0.0000E+00  0.0000E+00  0.2400E-01  0.2400E-01
    -15.912  0.0000E+00  0.0000E+00  0.2400E-01  0.2400E-01
    -15.719  0.0000E+00  0.0000E+00  0.2400E-01  0.2400E-01
    -15.527  0.0000E+00  0.0000E+00  0.2400E-01  0.2400E-01
    -15.334  0.0000E+00  0.0000E+00  0.2400E-01  0.2400E-01
    -15.141  0.0000E+00  0.0000E+00  0.2400E-01  0.2400E-01
    -14.949  0.0000E+00  0.0000E+00  0.2400E-01  0.2400E-01
    -14.756  0.0000E+00  0.0000E+00  0.2400E-01  0.2400E-01
    -14.563  0.0000E+00  0.0000E+00  0.2400E-01  0.2400E-01
    -14.370  0.0000E+00  0.0000E+00  0.2400E-01  0.2400E-01
    -14.178  0.0000E+00  0.0000E+00  0.2400E-01  0.2400E-01
    -13.985  0.0000E+00  0.0000E+00  0.2400E-01  0.2400E-01
    -13.792  0.0000E+00  0.0000E+00  0.2400E-01  0.2400E-01
    -13.600  0.0000E+00  0.0000E+00  0.2400E-01  0.2400E-01
    -13.407  0.0000E+00  0.0000E+00  0.2400E-01  0.2400E-01
    -13.214  0.0000E+00  0.0000E+00  0.2400E-01  0.2400E-01
    -13.021  0.1001E-02  0.1001E-02  0.2419E-01  0.2419E-01
    -12.829  0.1975E-01  0.1975E-01  0.2800E-01  0.2800E-01
    -12.636  0.1377E-02  0.1377E-02  0.2827E-01  0.2827E-01
    -12.443  0.1938E-01  0.1938E-01  0.3200E-01  0.3200E-01
    -12.251  0.0000E+00  0.0000E+00  0.3200E-01  0.3200E-01
    -12.058  0.0000E+00  0.0000E+00  0.3200E-01  0.3200E-01
    -11.865  0.0000E+00  0.0000E+00  0.3200E-01  0.3200E-01
    -11.672  0.0000E+00  0.0000E+00  0.3200E-01  0.3200E-01
    -11.480  0.0000E+00  0.0000E+00  0.3200E-01  0.3200E-01
    -11.287  0.0000E+00  0.0000E+00  0.3200E-01  0.3200E-01
    -11.094  0.0000E+00  0.0000E+00  0.3200E-01  0.3200E-01
    -10.901  0.0000E+00  0.0000E+00  0.3200E-01  0.3200E-01
    -10.709  0.0000E+00  0.0000E+00  0.3200E-01  0.3200E-01
    -10.516  0.0000E+00  0.0000E+00  0.3200E-01  0.3200E-01
    -10.323  0.1595E-06  0.1595E-06  0.3200E-01  0.3200E-01
    -10.131  0.1558E-01  0.1558E-01  0.3500E-01  0.3500E-01
     -9.938  0.2276E-01  0.2276E-01  0.3939E-01  0.3939E-01
     -9.745  0.2390E-01  0.2390E-01  0.4400E-01  0.4400E-01
     -9.552  0.0000E+00  0.0000E+00  0.4400E-01  0.4400E-01
     -9.360  0.0000E+00  0.0000E+00  0.4400E-01  0.4400E-01
     -9.167  0.0000E+00  0.0000E+00  0.4400E-01  0.4400E-01
     -8.974  0.0000E+00  0.0000E+00  0.4400E-01  0.4400E-01
     -8.782  0.0000E+00  0.0000E+00  0.4400E-01  0.4400E-01
     -8.589  0.0000E+00  0.0000E+00  0.4400E-01  0.4400E-01
     -8.396  0.3017E-07  0.3017E-07  0.4400E-01  0.4400E-01
     -8.203  0.2037E-01  0.2037E-01  0.4793E-01  0.4793E-01
     -8.011  0.3643E-03  0.3643E-03  0.4800E-01  0.4800E-01
     -7.818  0.0000E+00  0.0000E+00  0.4800E-01  0.4800E-01
     -7.625  0.0000E+00  0.0000E+00  0.4800E-01  0.4800E-01
     -7.433  0.0000E+00  0.0000E+00  0.4800E-01  0.4800E-01
     -7.240  0.0000E+00  0.0000E+00  0.4800E-01  0.4800E-01
     -7.047  0.0000E+00  0.0000E+00  0.4800E-01  0.4800E-01
     -6.854  0.0000E+00  0.0000E+00  0.4800E-01  0.4800E-01
     -6.662  0.0000E+00  0.0000E+00  0.4800E-01  0.4800E-01
     -6.469  0.0000E+00  0.0000E+00  0.4800E-01  0.4800E-01
     -6.276  0.0000E+00  0.0000E+00  0.4800E-01  0.4800E-01
     -6.084  0.2312E-02  0.2312E-02  0.4845E-01  0.4845E-01
     -5.891  0.2877E-02  0.2877E-02  0.4900E-01  0.4900E-01
     -5.698  0.3379E-03  0.3379E-03  0.4907E-01  0.4907E-01
     -5.505  0.1517E-01  0.1517E-01  0.5199E-01  0.5199E-01
     -5.313  0.5319E-04  0.5319E-04  0.5200E-01  0.5200E-01
     -5.120  0.0000E+00  0.0000E+00  0.5200E-01  0.5200E-01
     -4.927  0.0000E+00  0.0000E+00  0.5200E-01  0.5200E-01
     -4.735  0.0000E+00  0.0000E+00  0.5200E-01  0.5200E-01
     -4.542  0.0000E+00  0.0000E+00  0.5200E-01  0.5200E-01
     -4.349  0.0000E+00  0.0000E+00  0.5200E-01  0.5200E-01
     -4.156  0.0000E+00  0.0000E+00  0.5200E-01  0.5200E-01
     -3.964  0.0000E+00  0.0000E+00  0.5200E-01  0.5200E-01
     -3.771  0.0000E+00  0.0000E+00  0.5200E-01  0.5200E-01
     -3.578  0.0000E+00  0.0000E+00  0.5200E-01  0.5200E-01
     -3.386  0.0000E+00  0.0000E+00  0.5200E-01  0.5200E-01
     -3.193  0.2207E-02  0.2207E-02  0.5243E-01  0.5243E-01
     -3.000  0.1336E-01  0.1336E-01  0.5500E-01  0.5500E-01
     -2.807  0.2804E-02  0.2804E-02  0.5554E-01  0.5554E-01
     -2.615  0.1184E-01  0.1184E-01  0.5782E-01  0.5782E-01
     -2.422  0.9124E-02  0.9124E-02  0.5958E-01  0.5958E-01
     -2.229  0.1981E-01  0.1981E-01  0.6340E-01  0.6340E-01
     -2.037  0.3119E-02  0.3119E-02  0.6400E-01  0.6400E-01
     -1.844  0.0000E+00  0.0000E+00  0.6400E-01  0.6400E-01
     -1.651  0.1287E-10  0.1287E-10  0.6400E-01  0.6400E-01
     -1.458  0.1471E-01  0.1471E-01  0.6683E-01  0.6683E-01
     -1.266  0.2114E-01  0.2114E-01  0.7091E-01  0.7091E-01
     -1.073  0.1854E-01  0.1854E-01  0.7449E-01  0.7449E-01
     -0.880  0.7812E-02  0.7812E-02  0.7600E-01  0.7600E-01
     -0.688  0.2088E-15  0.2088E-15  0.7600E-01  0.7600E-01
     -0.495  0.6770E-02  0.6770E-02  0.7730E-01  0.7730E-01
     -0.302  0.1233E-01  0.1233E-01  0.7968E-01  0.7968E-01
     -0.109  0.1067E-01  0.1067E-01  0.8174E-01  0.8174E-01
      0.083  0.2826E-01  0.2826E-01  0.8718E-01  0.8718E-01
      0.276  0.2520E-01  0.2520E-01  0.9204E-01  0.9204E-01
      0.469  0.1824E-01  0.1824E-01  0.9556E-01  0.9556E-01
      0.661  0.2271E-02  0.2271E-02  0.9600E-01  0.9600E-01
      0.854  0.8494E-02  0.8494E-02  0.9764E-01  0.9764E-01
      1.047  0.2105E-01  0.2105E-01  0.1017E+00  0.1017E+00
      1.240  0.2104E-01  0.2104E-01  0.1057E+00  0.1057E+00
      1.432  0.2740E-01  0.2740E-01  0.1110E+00  0.1110E+00
      1.625  0.2757E-01  0.2757E-01  0.1163E+00  0.1163E+00
      1.818  0.1818E-01  0.1818E-01  0.1199E+00  0.1199E+00
      2.011  0.7675E-03  0.7675E-03  0.1200E+00  0.1200E+00
      2.203  0.0000E+00  0.0000E+00  0.1200E+00  0.1200E+00
      2.396  0.0000E+00  0.0000E+00  0.1200E+00  0.1200E+00
      2.589  0.0000E+00  0.0000E+00  0.1200E+00  0.1200E+00
      2.781  0.0000E+00  0.0000E+00  0.1200E+00  0.1200E+00
      2.974  0.0000E+00  0.0000E+00  0.1200E+00  0.1200E+00
      3.167  0.0000E+00  0.0000E+00  0.1200E+00  0.1200E+00
      3.360  0.0000E+00  0.0000E+00  0.1200E+00  0.1200E+00
      3.552  0.0000E+00  0.0000E+00  0.1200E+00  0.1200E+00
      3.745  0.0000E+00  0.0000E+00  0.1200E+00  0.1200E+00
      3.938  0.0000E+00  0.0000E+00  0.1200E+00  0.1200E+00
      4.130  0.0000E+00  0.0000E+00  0.1200E+00  0.1200E+00
      4.323  0.3444E-15  0.3444E-15  0.1200E+00  0.1200E+00
      4.516  0.4871E-02  0.4871E-02  0.1209E+00  0.1209E+00
      4.709  0.3176E-03  0.3176E-03  0.1210E+00  0.1210E+00
      4.901  0.0000E+00  0.0000E+00  0.1210E+00  0.1210E+00
      5.094  0.6481E-18  0.6481E-18  0.1210E+00  0.1210E+00
      5.287  0.2037E-02  0.2037E-02  0.1214E+00  0.1214E+00
      5.479  0.1353E-01  0.1353E-01  0.1240E+00  0.1240E+00
      5.672  0.0000E+00  0.0000E+00  0.1240E+00  0.1240E+00
      5.865  0.8106E-06  0.8106E-06  0.1240E+00  0.1240E+00
      6.058  0.1019E-01  0.1019E-01  0.1260E+00  0.1260E+00
      6.250  0.1561E-01  0.1561E-01  0.1290E+00  0.1290E+00
      6.443  0.5313E-02  0.5313E-02  0.1300E+00  0.1300E+00
      6.636  0.1067E-01  0.1067E-01  0.1321E+00  0.1321E+00
      6.828  0.7343E-02  0.7343E-02  0.1335E+00  0.1335E+00
      7.021  0.1311E-01  0.1311E-01  0.1360E+00  0.1360E+00
      7.214  0.4966E-02  0.4966E-02  0.1370E+00  0.1370E+00
      7.407  0.1142E-02  0.1142E-02  0.1372E+00  0.1372E+00
      7.599  0.1086E-01  0.1086E-01  0.1393E+00  0.1393E+00
      7.792  0.1100E-01  0.1100E-01  0.1414E+00  0.1414E+00
      7.985  0.1103E-01  0.1103E-01  0.1435E+00  0.1435E+00
      8.177  0.1347E-01  0.1347E-01  0.1461E+00  0.1461E+00
      8.370  0.1531E-01  0.1531E-01  0.1491E+00  0.1491E+00
      8.563  0.1506E-01  0.1506E-01  0.1520E+00  0.1520E+00
      8.756  0.1437E-01  0.1437E-01  0.1547E+00  0.1547E+00
      8.948  0.1819E-01  0.1819E-01  0.1583E+00  0.1583E+00
      9.141  0.1747E-01  0.1747E-01  0.1616E+00  0.1616E+00
      9.334  0.2041E-01  0.2041E-01  0.1656E+00  0.1656E+00
      9.526  0.1522E-01  0.1522E-01  0.1685E+00  0.1685E+00
      9.719  0.1816E-01  0.1815E-01  0.1720E+00  0.1720E+00
      9.912  0.1472E-01  0.1520E-01  0.1748E+00  0.1749E+00
     10.105  0.6063E-02  0.5559E-02  0.1760E+00  0.1760E+00
     10.297  0.0000E+00  0.0000E+00  0.1760E+00  0.1760E+00
     10.490  0.0000E+00  0.0000E+00  0.1760E+00  0.1760E+00
     10.683  0.0000E+00  0.0000E+00  0.1760E+00  0.1760E+00
     10.875  0.0000E+00  0.0000E+00  0.1760E+00  0.1760E+00
     11.068  0.0000E+00  0.0000E+00  0.1760E+00  0.1760E+00
     11.261  0.0000E+00  0.0000E+00  0.1760E+00  0.1760E+00
     11.454  0.0000E+00  0.0000E+00  0.1760E+00  0.1760E+00
     11.646  0.0000E+00  0.0000E+00  0.1760E+00  0.1760E+00
     11.839  0.0000E+00  0.0000E+00  0.1760E+00  0.1760E+00
     12.032  0.0000E+00  0.0000E+00  0.1760E+00  0.1760E+00
     12.224  0.0000E+00  0.0000E+00  0.1760E+00  0.1760E+00
     12.417  0.0000E+00  0.0000E+00  0.1760E+00  0.1760E+00
     12.610  0.0000E+00  0.0000E+00  0.1760E+00  0.1760E+00
