 vasp.6.4.1 05Apr23 (build Jun 07 2023 15:38:11) complex                        
  
 executed on             LinuxIFC date 2023.10.19  05:17:37
 running  128 mpi-ranks, with    1 threads/rank, on    1 nodes
 distrk:  each k-point on  128 cores,    1 groups
 distr:  one band on NCORE=  32 cores,    4 groups


--------------------------------------------------------------------------------------------------------


 INCAR:
   GGA = PE
   PREC = Accu
   EDIFF = 1.e-6
   EDIFFG = -1.e-3
   ENCUT = 520.
   NELM = 100
   NELMDL = -10
   LASPH = .TRUE.
   LREAL = Auto
   LMAXMIX = 4
   ISPIN = 2
   LDIAG = .TRUE.
   LPLANE = .TRUE.
   IVDW = 12
   SIGMA = 0.03
   ISMEAR = 0
   NSW = 1000    number of steps for IOM
   IBRION = 2    ionic relax: 0-MD 1-quasi-New 2-CG
   ISIF = 2    ionic relaxation + stress tensor calcn.
   LCHARG = .FALSE.
   LWAVE = .FALSE.
   ALGO = F
   KPAR = 1
   NPAR = 4
   POTIM = 0.2

 POTCAR:    PAW_PBE Li_sv_GW 25Mar2010            
 POTCAR:    PAW_PBE P_GW 19Mar2012                
 POTCAR:    PAW_PBE S_GW 19Mar2012                
 POTCAR:    PAW_PBE Cl_GW 19Mar2012               
 -----------------------------------------------------------------------------
|                                                                             |
|           W    W    AA    RRRRR   N    N  II  N    N   GGGG   !!!           |
|           W    W   A  A   R    R  NN   N  II  NN   N  G    G  !!!           |
|           W    W  A    A  R    R  N N  N  II  N N  N  G       !!!           |
|           W WW W  AAAAAA  RRRRR   N  N N  II  N  N N  G  GGG   !            |
|           WW  WW  A    A  R   R   N   NN  II  N   NN  G    G                |
|           W    W  A    A  R    R  N    N  II  N    N   GGGG   !!!           |
|                                                                             |
|     You use a magnetic or noncollinear calculation, but did not specify     |
|     the initial magnetic moment with the MAGMOM tag. Note that a            |
|     default of 1 will be used for all atoms. This ferromagnetic setup       |
|     may break the symmetry of the crystal, in particular it may rule        |
|     out finding an antiferromagnetic solution. Thence, we recommend         |
|     setting the initial magnetic moment manually or verifying carefully     |
|     that this magnetic setup is desired.                                    |
|                                                                             |
 -----------------------------------------------------------------------------

 POTCAR:    PAW_PBE Li_sv_GW 25Mar2010            
   SHA256 =  24a6ace15a582615486b36ce4dc781b048409f4015b7684ed1273ae395fa2fdc Li_sv_GW/POTCAR       
   COPYR  = (c) Copyright 25Mar2010 Georg Kresse                                                    
   COPYR  = This file is part of the software VASP. Any use, copying, and all other rights are regul
   COPYR  = If you do not have a valid VASP license, you may not use, copy or distribute this file. 
   VRHFIN =Li: 1s2s                                                                                 
   LEXCH  = PE                                                                                      
   EATOM  =   200.9989 eV,   14.7730 Ry                                                             
                                                                                                    
   TITEL  = PAW_PBE Li_sv_GW 25Mar2010                                                              
   LULTRA =        F    use ultrasoft PP ?                                                          
   IUNSCR =        0    unscreen: 0-lin 1-nonlin 2-no                                               
   RPACOR =    0.000    partial core radius                                                         
   POMASS =    7.010; ZVAL   =    3.000    mass and valenz                                          
   RCORE  =    1.500    outmost cutoff radius                                                       
   RWIGS  =    1.600; RWIGS  =    0.847    wigner-seitz radius (au A)                               
   ENMAX  =  433.699; ENMIN  =  325.274 eV                                                          
   RCLOC  =    1.003    cutoff for local pot                                                        
   LCOR   =        T    correct aug charges                                                         
   LPAW   =        T    paw PP                                                                      
   EAUG   = 1041.699                                                                                
   RMAX   =    1.536    core radius for proj-oper                                                   
   RAUG   =    1.300    factor for augmentation sphere                                              
   RDEP   =    1.520    radius for radial grids                                                     
   RDEPT  =    1.300    core radius for aug-charge                                                  
                                                                                                    
   Atomic configuration                                                                             
    4 entries                                                                                       
     n  l   j            E        occ.                                                              
     1  0  0.50       -53.3604   2.0000                                                             
     1  0  0.50       -52.0001   0.0000                                                             
     2  1  0.50        -1.5636   1.0000                                                             
     3  2  1.50        -1.3606   0.0000                                                             
   Description                                                                                      
     l       E           TYP  RCUT    TYP  RCUT                                                     
     0    -53.3603633     23  1.200                                                                 
     0    -52.0001064     23  1.200                                                                 
     0    176.8757380     23  1.300                                                                 
     1     -1.5635925     23  1.500                                                                 
     1    108.8466080     23  1.500                                                                 
     2     81.6349560     23  1.500                                                                 
  local pseudopotential read in
  kinetic energy density of atom read in
  atomic valenz-charges read in
  non local Contribution for L=           0  read in
    real space projection operators read in
  non local Contribution for L=           0  read in
    real space projection operators read in
  non local Contribution for L=           0  read in
    real space projection operators read in
  non local Contribution for L=           1  read in
    real space projection operators read in
  non local Contribution for L=           1  read in
    real space projection operators read in
  non local Contribution for L=           2  read in
    real space projection operators read in
    PAW grid and wavefunctions read in
 
   number of l-projection  operators is LMAX  =           6
   number of lm-projection operators is LMMAX =          14
 
 POTCAR:    PAW_PBE P_GW 19Mar2012                
   SHA256 =  715c28f2291d37b61637ce89646c59f66f71c8b8d8bfba631e5feb9f7b42defe P_GW/POTCAR           
   COPYR  = (c) Copyright 19Mar2012 Georg Kresse                                                    
   COPYR  = This file is part of the software VASP. Any use, copying, and all other rights are regul
   COPYR  = If you do not have a valid VASP license, you may not use, copy or distribute this file. 
   VRHFIN =P : s2p3                                                                                 
   LEXCH  = PE                                                                                      
   EATOM  =   176.0430 eV,   12.9388 Ry                                                             
                                                                                                    
   TITEL  = PAW_PBE P_GW 19Mar2012                                                                  
   LULTRA =        F    use ultrasoft PP ?                                                          
   IUNSCR =        1    unscreen: 0-lin 1-nonlin 2-no                                               
   RPACOR =    1.400    partial core radius                                                         
   POMASS =   30.974; ZVAL   =    5.000    mass and valenz                                          
   RCORE  =    2.000    outmost cutoff radius                                                       
   RWIGS  =    1.900; RWIGS  =    1.005    wigner-seitz radius (au A)                               
   ENMAX  =  255.040; ENMIN  =  191.280 eV                                                          
   ICORE  =        3    local potential                                                             
   LCOR   =        T    correct aug charges                                                         
   LPAW   =        T    paw PP                                                                      
   EAUG   =  499.732                                                                                
   DEXC   =    0.000                                                                                
   RMAX   =    2.047    core radius for proj-oper                                                   
   RAUG   =    1.300    factor for augmentation sphere                                              
   RDEP   =    2.059    radius for radial grids                                                     
   RDEPT  =    1.900    core radius for aug-charge                                                  
                                                                                                    
   Atomic configuration                                                                             
    7 entries                                                                                       
     n  l   j            E        occ.                                                              
     1  0  0.50     -2084.0982   2.0000                                                             
     2  0  0.50      -173.9859   2.0000                                                             
     2  1  1.50      -124.4865   6.0000                                                             
     3  0  0.50       -13.9692   2.0000                                                             
     3  1  0.50        -5.5067   3.0000                                                             
     3  2  1.50        -6.8029   0.0000                                                             
     4  3  2.50        -1.3606   0.0000                                                             
   Description                                                                                      
     l       E           TYP  RCUT    TYP  RCUT                                                     
     0    -13.9691528     23  1.900                                                                 
     0    102.0436950     23  1.900                                                                 
     1     -5.5066939     23  1.900                                                                 
     1    102.0436950     23  1.900                                                                 
     2     -8.1634956     23  2.000                                                                 
     2     81.6349560     23  2.000                                                                 
     3     27.2116520     23  2.000                                                                 
  local pseudopotential read in
  partial core-charges read in
  partial kinetic energy density read in
  kinetic energy density of atom read in
  atomic valenz-charges read in
  non local Contribution for L=           0  read in
    real space projection operators read in
  non local Contribution for L=           0  read in
    real space projection operators read in
  non local Contribution for L=           1  read in
    real space projection operators read in
  non local Contribution for L=           1  read in
    real space projection operators read in
  non local Contribution for L=           2  read in
    real space projection operators read in
  non local Contribution for L=           2  read in
    real space projection operators read in
    PAW grid and wavefunctions read in
 
   number of l-projection  operators is LMAX  =           6
   number of lm-projection operators is LMMAX =          18
 
 POTCAR:    PAW_PBE S_GW 19Mar2012                
   SHA256 =  357db9cfb0783579b2eebe03197c2d807131fea8ea663b1fcfb6ce2fa75af011 S_GW/POTCAR           
   COPYR  = (c) Copyright 19Mar2012 Georg Kresse                                                    
   COPYR  = This file is part of the software VASP. Any use, copying, and all other rights are regul
   COPYR  = If you do not have a valid VASP license, you may not use, copy or distribute this file. 
   VRHFIN =S : s2p4                                                                                 
   LEXCH  = PE                                                                                      
   EATOM  =   276.8230 eV,   20.3459 Ry                                                             
                                                                                                    
   TITEL  = PAW_PBE S_GW 19Mar2012                                                                  
   LULTRA =        F    use ultrasoft PP ?                                                          
   IUNSCR =        1    unscreen: 0-lin 1-nonlin 2-no                                               
   RPACOR =    1.400    partial core radius                                                         
   POMASS =   32.066; ZVAL   =    6.000    mass and valenz                                          
   RCORE  =    1.900    outmost cutoff radius                                                       
   RWIGS  =    1.900; RWIGS  =    1.005    wigner-seitz radius (au A)                               
   ENMAX  =  258.689; ENMIN  =  194.016 eV                                                          
   ICORE  =        3    local potential                                                             
   LCOR   =        T    correct aug charges                                                         
   LPAW   =        T    paw PP                                                                      
   EAUG   =  488.319                                                                                
   DEXC   =    0.000                                                                                
   RMAX   =    1.942    core radius for proj-oper                                                   
   RAUG   =    1.300    factor for augmentation sphere                                              
   RDEP   =    1.954    radius for radial grids                                                     
   RDEPT  =    1.900    core radius for aug-charge                                                  
                                                                                                    
   Atomic configuration                                                                             
    7 entries                                                                                       
     n  l   j            E        occ.                                                              
     1  0  0.50     -2405.8406   2.0000                                                             
     2  0  0.50      -211.7007   2.0000                                                             
     2  1  1.50      -156.4958   6.0000                                                             
     3  0  0.50       -17.2562   2.0000                                                             
     3  1  0.50        -7.0085   4.0000                                                             
     3  2  1.50        -8.1635   0.0000                                                             
     4  3  2.50        -1.3606   0.0000                                                             
   Description                                                                                      
     l       E           TYP  RCUT    TYP  RCUT                                                     
     0    -17.2561639     23  1.700                                                                 
     0     88.4378690     23  1.900                                                                 
     1     -7.0085399     23  1.900                                                                 
     1     88.4378690     23  1.900                                                                 
     2    -10.8846608     23  1.900                                                                 
     2     54.4233040     23  1.900                                                                 
     3     27.2116520     23  1.800                                                                 
  local pseudopotential read in
  partial core-charges read in
  partial kinetic energy density read in
  kinetic energy density of atom read in
  atomic valenz-charges read in
  non local Contribution for L=           0  read in
    real space projection operators read in
  non local Contribution for L=           0  read in
    real space projection operators read in
  non local Contribution for L=           1  read in
    real space projection operators read in
  non local Contribution for L=           1  read in
    real space projection operators read in
  non local Contribution for L=           2  read in
    real space projection operators read in
  non local Contribution for L=           2  read in
    real space projection operators read in
    PAW grid and wavefunctions read in
 
   number of l-projection  operators is LMAX  =           6
   number of lm-projection operators is LMMAX =          18
 
 POTCAR:    PAW_PBE Cl_GW 19Mar2012               
   SHA256 =  3ef3b3169d6a9a89979f58b4cf17d927a58518fc660d8883d88cacaee8175441 Cl_GW/POTCAR          
   COPYR  = (c) Copyright 19Mar2012 Georg Kresse                                                    
   COPYR  = This file is part of the software VASP. Any use, copying, and all other rights are regul
   COPYR  = If you do not have a valid VASP license, you may not use, copy or distribute this file. 
   VRHFIN =Cl: s2p5                                                                                 
   LEXCH  = PE                                                                                      
   EATOM  =   409.7259 eV,   30.1140 Ry                                                             
                                                                                                    
   TITEL  = PAW_PBE Cl_GW 19Mar2012                                                                 
   LULTRA =        F    use ultrasoft PP ?                                                          
   IUNSCR =        1    unscreen: 0-lin 1-nonlin 2-no                                               
   RPACOR =    1.400    partial core radius                                                         
   POMASS =   35.453; ZVAL   =    7.000    mass and valenz                                          
   RCORE  =    1.900    outmost cutoff radius                                                       
   RWIGS  =    1.900; RWIGS  =    1.005    wigner-seitz radius (au A)                               
   ENMAX  =  262.472; ENMIN  =  196.854 eV                                                          
   ICORE  =        3    local potential                                                             
   LCOR   =        T    correct aug charges                                                         
   LPAW   =        T    paw PP                                                                      
   EAUG   =  456.703                                                                                
   DEXC   =    0.000                                                                                
   RMAX   =    1.945    core radius for proj-oper                                                   
   RAUG   =    1.300    factor for augmentation sphere                                              
   RDEP   =    2.020    radius for radial grids                                                     
   RDEPT  =    1.900    core radius for aug-charge                                                  
                                                                                                    
   Atomic configuration                                                                             
    7 entries                                                                                       
     n  l   j            E        occ.                                                              
     1  0  0.50     -2751.1850   2.0000                                                             
     2  0  0.50      -252.6861   2.0000                                                             
     2  1  1.50      -191.6157   6.0000                                                             
     3  0  0.50       -20.6916   2.0000                                                             
     3  1  0.50        -8.5949   5.0000                                                             
     3  2  1.50        -9.5241   0.0000                                                             
     4  3  2.50        -9.5241   0.0000                                                             
   Description                                                                                      
     l       E           TYP  RCUT    TYP  RCUT                                                     
     0    -20.6915657     23  1.700                                                                 
     0     95.2407820     23  1.800                                                                 
     1     -8.5948577     23  1.900                                                                 
     1     95.2407820     23  1.900                                                                 
     2    -10.8846608     23  1.900                                                                 
     2     54.4233040     23  1.900                                                                 
     3     27.2116520     23  1.900                                                                 
  local pseudopotential read in
  partial core-charges read in
  partial kinetic energy density read in
  kinetic energy density of atom read in
  atomic valenz-charges read in
  non local Contribution for L=           0  read in
    real space projection operators read in
  non local Contribution for L=           0  read in
    real space projection operators read in
  non local Contribution for L=           1  read in
    real space projection operators read in
  non local Contribution for L=           1  read in
    real space projection operators read in
  non local Contribution for L=           2  read in
    real space projection operators read in
  non local Contribution for L=           2  read in
    real space projection operators read in
    PAW grid and wavefunctions read in
 
   number of l-projection  operators is LMAX  =           6
   number of lm-projection operators is LMMAX =          18
 
 Optimization of the real space projectors (new method)

 maximal supplied QI-value         = 25.13
 optimisation between [QCUT,QGAM] = [ 11.56, 23.12] = [ 37.43,149.72] Ry 
 Optimized for a Real-space Cutoff    1.28 Angstroem

   l    n(q)    QCUT    max X(q) W(low)/X(q) W(high)/X(q)  e(spline) 
   0      9    11.561    87.733    0.11E-03    0.32E-04    0.56E-06
   0      9    11.561    82.800    0.11E-03    0.35E-04    0.56E-06
   0      9    11.561     2.509    0.22E-03    0.42E-04    0.79E-06
   1      8    11.561    12.580    0.94E-04    0.26E-03    0.21E-06
   1      8    11.561     1.319    0.33E-04    0.15E-03    0.19E-06
   2      8    11.561     1.993    0.36E-04    0.89E-04    0.26E-06
 Optimization of the real space projectors (new method)

 maximal supplied QI-value         = 18.90
 optimisation between [QCUT,QGAM] = [ 11.53, 23.24] = [ 37.21,151.29] Ry 
 Optimized for a Real-space Cutoff    1.21 Angstroem

   l    n(q)    QCUT    max X(q) W(low)/X(q) W(high)/X(q)  e(spline) 
   0      8    11.527     8.355    0.73E-04    0.70E-04    0.26E-07
   0      8    11.527     1.401    0.17E-03    0.17E-03    0.63E-07
   1      8    11.527     4.747    0.13E-03    0.17E-03    0.11E-06
   1      8    11.527     2.025    0.16E-03    0.18E-03    0.12E-06
   2      7    11.527     3.169    0.51E-04    0.25E-03    0.60E-07
   2      7    11.527     3.441    0.82E-04    0.22E-03    0.14E-06
 Optimization of the real space projectors (new method)

 maximal supplied QI-value         = 19.84
 optimisation between [QCUT,QGAM] = [ 11.51, 23.22] = [ 37.09,150.92] Ry 
 Optimized for a Real-space Cutoff    1.49 Angstroem

   l    n(q)    QCUT    max X(q) W(low)/X(q) W(high)/X(q)  e(spline) 
   0     10    11.508     7.541    0.34E-04    0.13E-04    0.69E-07
   0     10    11.508     1.809    0.49E-04    0.27E-04    0.14E-06
   1     10    11.508     4.107    0.27E-05    0.41E-05    0.14E-06
   1     10    11.508     2.196    0.26E-05    0.25E-05    0.22E-06
   2      9    11.508     4.265    0.18E-03    0.11E-03    0.81E-06
   2      9    11.508     1.925    0.97E-04    0.76E-04    0.47E-06
 Optimization of the real space projectors (new method)

 maximal supplied QI-value         = 19.84
 optimisation between [QCUT,QGAM] = [ 11.51, 23.22] = [ 37.09,150.92] Ry 
 Optimized for a Real-space Cutoff    1.21 Angstroem

   l    n(q)    QCUT    max X(q) W(low)/X(q) W(high)/X(q)  e(spline) 
   0      8    11.508     6.761    0.57E-04    0.57E-04    0.35E-07
   0      8    11.508     1.642    0.14E-03    0.14E-03    0.91E-07
   1      8    11.508     3.519    0.20E-04    0.72E-04    0.47E-07
   1      8    11.508     2.150    0.27E-04    0.11E-03    0.89E-07
   2      7    11.508     2.976    0.19E-03    0.33E-03    0.16E-06
   2      7    11.508     1.494    0.14E-03    0.29E-03    0.14E-06
  PAW_PBE Li_sv_GW 25Mar2010            :
 energy of atom  1       EATOM= -200.9989
 kinetic energy error for atom=    0.0127 (will be added to EATOM!!)
  PAW_PBE P_GW 19Mar2012                :
 energy of atom  2       EATOM= -176.0430
 kinetic energy error for atom=    0.0011 (will be added to EATOM!!)
  PAW_PBE S_GW 19Mar2012                :
 energy of atom  3       EATOM= -276.8230
 kinetic energy error for atom=    0.0024 (will be added to EATOM!!)
  PAW_PBE Cl_GW 19Mar2012               :
 energy of atom  4       EATOM= -409.7259
 kinetic energy error for atom=    0.0030 (will be added to EATOM!!)
 
 
 POSCAR: Li24 P4 S20 Cl4
  positions in direct lattice
  velocities in cartesian coordinates
 exchange correlation table for  LEXCH =        8
   RHO(1)=    0.500       N(1)  =     2000
   RHO(2)=  100.500       N(2)  =     4000

 VTST: version 4.1, (05/19/21)

 CHAIN: initializing optimizer
 
 OPT: Using VASP Conjugate-Gradient optimizer
 CHAIN: Read ICHAIN            0
 
 POSCAR: Li24 P4 S20 Cl4
  positions in direct lattice
  velocities in cartesian coordinates
 


--------------------------------------------------------------------------------------------------------


 ion  position               nearest neighbor table
   1  0.973  0.156  0.223-
   2  0.975  0.668  0.704-
   3  0.018  0.185  0.794-
   4  0.021  0.700  0.272-
   5  0.212  0.198  0.988-
   6  0.187  0.847  0.038-
   7  0.792  0.213  0.020-
   8  0.839  0.825  0.960-
   9  0.338  0.960  0.328-
  10  0.309  0.045  0.672-
  11  0.724  0.984  0.692-
  12  0.679  0.007  0.296-
  13  0.202  0.707  0.478-
  14  0.167  0.332  0.535-
  15  0.785  0.711  0.510-
  16  0.663  0.212  0.478-
  17  0.289  0.490  0.829-
  18  0.277  0.510  0.215-
  19  0.812  0.457  0.318-
  20  0.680  0.547  0.847-
  21  0.476  0.294  0.793-
  22  0.479  0.690  0.161-
  23  0.531  0.316  0.183-
  24  0.521  0.795  0.688-
  25  0.497  0.500  0.502-  42 2.05  41 2.05  44 2.05  43 2.06
  26  0.504  0.997  0.992-  40 2.04  38 2.05  37 2.05  39 2.06
  27  0.988  0.499  0.005-  34 2.04  33 2.05  36 2.06  35 2.06
  28  0.006  0.002  0.499-  29 2.05  30 2.05  32 2.06  31 2.06
  29  0.113  0.881  0.636-  28 2.05
  30  0.149  0.118  0.392-  28 2.05
  31  0.888  0.887  0.364-  28 2.06
  32  0.881  0.142  0.599-  28 2.06
  33  0.850  0.613  0.117-  27 2.05
  34  0.880  0.386  0.862-  27 2.04
  35  0.114  0.639  0.904-  27 2.06
  36  0.098  0.370  0.134-  27 2.06
  37  0.625  0.123  0.869-  26 2.05
  38  0.633  0.869  0.101-  26 2.05
  39  0.389  0.111  0.131-  26 2.06
  40  0.372  0.886  0.869-  26 2.04
  41  0.612  0.617  0.367-  25 2.05
  42  0.632  0.399  0.631-  25 2.05
  43  0.369  0.617  0.626-  25 2.06
  44  0.381  0.363  0.388-  25 2.05
  45  0.752  0.755  0.743-
  46  0.745  0.236  0.252-
  47  0.257  0.746  0.248-
  48  0.243  0.262  0.759-
  49  0.001  0.030  1.000-
  50  0.999  0.543  0.483-
  51  0.520  0.996  0.511-
  52  0.478  0.486  0.001-
 
  LATTYP: Found a simple cubic cell.
 ALAT       =     9.6468745816
  
  Lattice vectors:
  
 A1 = (   9.6468745816,   0.0000000000,   0.0000000000)
 A2 = (   0.0000000000,   9.6468745816,   0.0000000000)
 A3 = (   0.0000000000,   0.0000000000,   9.6468745816)


Analysis of symmetry for initial positions (statically):
=====================================================================
 Subroutine PRICEL returns:
 Original cell was already a primitive cell.
 

 Routine SETGRP: Setting up the symmetry group for a 
 simple cubic supercell.


 Subroutine GETGRP returns: Found  1 space group operations
 (whereof  1 operations were pure point group operations)
 out of a pool of 48 trial point group operations.


The static configuration has the point symmetry C_1 .


Analysis of symmetry for dynamics (positions and initial velocities):
=====================================================================
 Subroutine PRICEL returns:
 Original cell was already a primitive cell.
 

 Routine SETGRP: Setting up the symmetry group for a 
 simple cubic supercell.


 Subroutine GETGRP returns: Found  1 space group operations
 (whereof  1 operations were pure point group operations)
 out of a pool of 48 trial point group operations.


The dynamic configuration has the point symmetry C_1 .


Analysis of structural, dynamic, and magnetic symmetry:
=====================================================================
 Subroutine PRICEL returns:
 Original cell was already a primitive cell.
 

 Routine SETGRP: Setting up the symmetry group for a 
 simple cubic supercell.


 Subroutine GETGRP returns: Found  1 space group operations
 (whereof  1 operations were pure point group operations)
 out of a pool of 48 trial point group operations.


The overall configuration has the point symmetry C_1 .


 Subroutine INISYM returns: Found  1 space group operations
 (whereof  1 operations are pure point group operations),
 and found     1 'primitive' translations


----------------------------------------------------------------------------------------

                                     Primitive cell                                     

  volume of cell :     897.7593

  direct lattice vectors                    reciprocal lattice vectors
     9.646874582  0.000000000  0.000000000     0.103660516  0.000000000  0.000000000
     0.000000000  9.646874582  0.000000000     0.000000000  0.103660516  0.000000000
     0.000000000  0.000000000  9.646874582     0.000000000  0.000000000  0.103660516

  length of vectors
     9.646874582  9.646874582  9.646874582     0.103660516  0.103660516  0.103660516

  position of ions in fractional coordinates (direct lattice)
     0.973027049  0.155962533  0.223035581
     0.975161854  0.668122746  0.704487643
     0.018066838  0.184665257  0.794010904
     0.021497854  0.700113211  0.272121080
     0.211605593  0.198341814  0.988328905
     0.186589013  0.847209092  0.037795187
     0.791998085  0.212788479  0.019514473
     0.838531889  0.824760915  0.960475610
     0.337534572  0.960199185  0.328201882
     0.308588193  0.045190185  0.672104644
     0.723712296  0.983602159  0.691599935
     0.678803918  0.007212651  0.296348737
     0.202023804  0.706712214  0.478399158
     0.167408670  0.332243249  0.534878723
     0.784620589  0.711025770  0.510415165
     0.663126294  0.211586646  0.478455698
     0.288605930  0.490059462  0.828631391
     0.276852876  0.510376900  0.214897654
     0.812367653  0.456827803  0.317529891
     0.679900355  0.546514951  0.846646123
     0.475669887  0.294450522  0.792801489
     0.479376459  0.690042646  0.161036054
     0.530568499  0.315609911  0.182686173
     0.520974483  0.794955432  0.688149259
     0.496784169  0.500171885  0.502129570
     0.504097204  0.997051939  0.991910211
     0.988421182  0.498744845  0.004775544
     0.006214333  0.002293838  0.498964463
     0.112928023  0.880782475  0.636205250
     0.149439216  0.117648587  0.391991854
     0.887911780  0.886854971  0.363735326
     0.880724019  0.142377471  0.599042082
     0.849882334  0.613447481  0.117491085
     0.879756531  0.386094667  0.861910588
     0.113979569  0.639404840  0.904455713
     0.098480009  0.369825959  0.134321875
     0.624536216  0.122904191  0.869391071
     0.633139512  0.868921729  0.101108301
     0.389481902  0.111295478  0.130797313
     0.371957016  0.886214878  0.868758712
     0.611858826  0.616996831  0.366612114
     0.631680651  0.398988598  0.631385835
     0.368996457  0.617254680  0.626315087
     0.380690916  0.363059432  0.388165532
     0.751850858  0.754546107  0.743408471
     0.745266717  0.235729202  0.252042727
     0.256624424  0.746393858  0.248018479
     0.243091249  0.262169308  0.758542009
     0.000731390  0.030228872  0.999757719
     0.999043971  0.542563586  0.482920751
     0.520344185  0.995943057  0.511250970
     0.477643248  0.485624403  0.001413790

  ion indices of the primitive-cell ions
   primitive index   ion index
                 1           1
                 2           2
                 3           3
                 4           4
                 5           5
                 6           6
                 7           7
                 8           8
                 9           9
                10          10
                11          11
                12          12
                13          13
                14          14
                15          15
                16          16
                17          17
                18          18
                19          19
                20          20
                21          21
                22          22
                23          23
                24          24
                25          25
                26          26
                27          27
                28          28
                29          29
                30          30
                31          31
                32          32
                33          33
                34          34
                35          35
                36          36
                37          37
                38          38
                39          39
                40          40
                41          41
                42          42
                43          43
                44          44
                45          45
                46          46
                47          47
                48          48
                49          49
                50          50
                51          51
                52          52

----------------------------------------------------------------------------------------

 
 
 KPOINTS: Automatic mesh                          

Automatic generation of k-mesh.
 Grid dimensions read from file:
 generate k-points for:    2    2    2

 Generating k-lattice:

  Cartesian coordinates                     Fractional coordinates (reciprocal lattice)
     0.051830258  0.000000000  0.000000000     0.500000000  0.000000000  0.000000000
     0.000000000  0.051830258  0.000000000     0.000000000  0.500000000  0.000000000
     0.000000000  0.000000000  0.051830258     0.000000000  0.000000000  0.500000000

  Length of vectors
     0.051830258  0.051830258  0.051830258

  Shift w.r.t. Gamma in fractional coordinates (k-lattice)
     0.500000000  0.500000000  0.500000000

 
 Subroutine IBZKPT returns following result:
 ===========================================
 
 Found      4 irreducible k-points:
 
 Following reciprocal coordinates:
            Coordinates               Weight
  0.250000  0.250000  0.250000      2.000000
 -0.250000  0.250000  0.250000      2.000000
 -0.250000 -0.250000  0.250000      2.000000
  0.250000 -0.250000  0.250000      2.000000
 
 Following cartesian coordinates:
            Coordinates               Weight
  0.025915  0.025915  0.025915      2.000000
 -0.025915  0.025915  0.025915      2.000000
 -0.025915 -0.025915  0.025915      2.000000
  0.025915 -0.025915  0.025915      2.000000
 


--------------------------------------------------------------------------------------------------------




 Dimension of arrays:
   k-points           NKPTS =      4   k-points in BZ     NKDIM =      4   number of bands    NBANDS=    176
   number of dos      NEDOS =    301   number of ions     NIONS =     52
   non local maximal  LDIM  =      6   non local SUM 2l+1 LMDIM =     18
   total plane-waves  NPLWV = 373248
   max r-space proj   IRMAX =   5800   max aug-charges    IRDMAX=  17745
   dimension x,y,z NGX =    72 NGY =   72 NGZ =   72
   dimension x,y,z NGXF=   144 NGYF=  144 NGZF=  144
   support grid    NGXF=   144 NGYF=  144 NGZF=  144
   ions per type =              24   4  20   4
   NGX,Y,Z   is equivalent  to a cutoff of  12.41, 12.41, 12.41 a.u.
   NGXF,Y,Z  is equivalent  to a cutoff of  24.82, 24.82, 24.82 a.u.

 SYSTEM =  unknown system                          
 POSCAR =  Li24 P4 S20 Cl4                         

 Startparameter for this run:
   NWRITE =      2    write-flag & timer
   PREC   = accu      normal or accurate (medium, high low for compatibility)
   ISTART =      0    job   : 0-new  1-cont  2-samecut
   ICHARG =      2    charge: 1-file 2-atom 10-const
   ISPIN  =      2    spin polarized calculation?
   LNONCOLLINEAR =      F non collinear calculations
   LSORBIT =      F    spin-orbit coupling
   INIWAV =      1    electr: 0-lowe 1-rand  2-diag
   LASPH  =      T    aspherical Exc in radial PAW
 Electronic Relaxation 1
   ENCUT  =  520.0 eV  38.22 Ry    6.18 a.u.  17.94 17.94 17.94*2*pi/ulx,y,z
   ENINI  =  520.0     initial cutoff
   ENAUG  = 1041.7 eV  augmentation charge cutoff
   NELM   =    100;   NELMIN=  2; NELMDL=-10     # of ELM steps 
   EDIFF  = 0.1E-05   stopping-criterion for ELM
   LREAL  =      T    real-space projection
   NLSPLINE    = F    spline interpolate recip. space projectors
   LCOMPAT=      F    compatible to vasp.4.4
   GGA_COMPAT  = T    GGA compatible to vasp.4.4-vasp.4.6
   LMAXPAW     = -100 max onsite density
   LMAXMIX     =    4 max onsite mixed and CHGCAR
   VOSKOWN=      0    Vosko Wilk Nusair interpolation
   ROPT   =   -0.00025  -0.00025  -0.00025  -0.00025
 Ionic relaxation
   EDIFFG = -.1E-02   stopping-criterion for IOM
   NSW    =   1000    number of steps for IOM
   NBLOCK =      1;   KBLOCK =   1000    inner block; outer block 
   IBRION =      2    ionic relax: 0-MD 1-quasi-New 2-CG
   NFREE  =      1    steps in history (QN), initial steepest desc. (CG)
   ISIF   =      2    stress and relaxation
   IWAVPR =     11    prediction:  0-non 1-charg 2-wave 3-comb
   ISYM   =      2    0-nonsym 1-usesym 2-fastsym
   LCORR  =      T    Harris-Foulkes like correction to forces

   POTIM  = 0.2000    time-step for ionic-motion
   TEIN   =    0.0    initial temperature
   TEBEG  =    0.0;   TEEND  =   0.0 temperature during run
   SMASS  =  -3.00    Nose mass-parameter (am)
   estimated Nose-frequenzy (Omega)   =  0.10E-29 period in steps = 0.31E+47 mass=  -0.213E-26a.u.
   SCALEE = 1.0000    scale energy and forces
   NPACO  =    256;   APACO  = 10.0  distance and # of slots for P.C.
   PSTRESS=    0.0 pullay stress

  Mass of Ions in am
   POMASS =   7.01 30.97 32.07 35.45
  Ionic Valenz
   ZVAL   =   3.00  5.00  6.00  7.00
  Atomic Wigner-Seitz radii
   RWIGS  =  -1.00 -1.00 -1.00 -1.00
  virtual crystal weights 
   VCA    =   1.00  1.00  1.00  1.00
   NELECT =     240.0000    total number of electrons
   NUPDOWN=      -1.0000    fix difference up-down

 DOS related values:
   EMIN   =  10.00;   EMAX   =-10.00  energy-range for DOS
   EFERMI =   0.00;   METHOD = LEGACY      
   ISMEAR =     0;   SIGMA  =   0.03  broadening in eV -4-tet -1-fermi 0-gaus

 Electronic relaxation 2 (details)
   IALGO  =     68    algorithm
   LDIAG  =      T    sub-space diagonalisation (order eigenvalues)
   LSUBROT=      F    optimize rotation matrix (better conditioning)
   TURBO    =      0    0=normal 1=particle mesh
   IRESTART =      0    0=no restart 2=restart with 2 vectors
   NREBOOT  =      0    no. of reboots
   NMIN     =      0    reboot dimension
   EREF     =   0.00    reference energy to select bands
   IMIX   =      4    mixing-type and parameters
     AMIX     =   0.40;   BMIX     =  1.00
     AMIX_MAG =   1.60;   BMIX_MAG =  1.00
     AMIN     =   0.10
     WC   =   100.;   INIMIX=   1;  MIXPRE=   1;  MAXMIX= -45

 Intra band minimization:
   WEIMIN = 0.0010     energy-eigenvalue tresh-hold
   EBREAK =  0.14E-08  absolut break condition
   DEPER  =   0.30     relativ break condition  

   TIME   =   0.40     timestep for ELM

  volume/ion in A,a.u.               =      17.26       116.51
  Fermi-wavevector in a.u.,A,eV,Ry     =   1.054610  1.992924 15.132435  1.112203
  Thomas-Fermi vector in A             =   2.189777
 
 Write flags
   LWAVE        =      F    write WAVECAR
   LDOWNSAMPLE  =      F    k-point downsampling of WAVECAR
   LCHARG       =      F    write CHGCAR
   LVTOT        =      F    write LOCPOT, total local potential
   LVHAR        =      F    write LOCPOT, Hartree potential only
   LELF         =      F    write electronic localiz. function (ELF)
   LORBIT       =      0    0 simple, 1 ext, 2 COOP (PROOUT), +10 PAW based schemes


 Dipole corrections
   LMONO  =      F    monopole corrections only (constant potential shift)
   LDIPOL =      F    correct potential (dipole corrections)
   IDIPOL =      0    1-x, 2-y, 3-z, 4-all directions 
   EPSILON=  1.0000000 bulk dielectric constant

 Exchange correlation treatment:
   GGA     =    PE    GGA type
   LEXCH   =     8    internal setting for exchange type
   LIBXC   =     F    Libxc                    
   VOSKOWN =     0    Vosko Wilk Nusair interpolation
   LHFCALC =     F    Hartree Fock is set to
   LHFONE  =     F    Hartree Fock one center treatment
   AEXX    =    0.0000 exact exchange contribution

 Linear response parameters
   LEPSILON=     F    determine dielectric tensor
   LRPA    =     F    only Hartree local field effects (RPA)
   LNABLA  =     F    use nabla operator in PAW spheres
   LVEL    =     F    velocity operator in full k-point grid
   CSHIFT  =0.1000    complex shift for real part using Kramers Kronig
   OMEGAMAX=  -1.0    maximum frequency
   DEG_THRESHOLD= 0.2000000E-02 threshold for treating states as degnerate
   RTIME   =   -0.100 relaxation time in fs
  (WPLASMAI=    0.000 imaginary part of plasma frequency in eV, 0.658/RTIME)
   DFIELD  = 0.0000000 0.0000000 0.0000000 field for delta impulse in time
 
  Optional k-point grid parameters
   LKPOINTS_OPT  =     F    use optional k-point grid
   KPOINTS_OPT_MODE=     1    mode for optional k-point grid
 
 Orbital magnetization related:
   ORBITALMAG=     F  switch on orbital magnetization
   LCHIMAG   =     F  perturbation theory with respect to B field
   DQ        =  0.001000  dq finite difference perturbation B field
   LLRAUG    =     F  two centre corrections for induced B field
   LBONE     =     F  B-component reconstruction in AE one-centre
   LVGVCALC  =     T  calculate vGv susceptibility
   LVGVAPPL  =     F  apply vGv susceptibility instead of pGv for G=0

 Random number generation:
   RANDOM_GENERATOR = DEFAULT
   PCG_SEED         = not used


--------------------------------------------------------------------------------------------------------


 conjugate gradient relaxation of ions
 charge density and potential will be updated during run
 spin polarized calculation
 RMM-DIIS sequential band-by-band and
  variant of blocked Davidson during initial phase
 perform sub-space diagonalisation
    before iterative eigenvector-optimisation
 modified Broyden-mixing scheme, WC =      100.0
 initial mixing is a Kerker type mixing with AMIX =  0.4000 and BMIX =      1.0000
 Hartree-type preconditioning will be used
 using additional bands           56
 real space projection scheme for non local part
 use partial core corrections
 calculate Harris-corrections to forces 
   (improved forces if not selfconsistent)
 use gradient corrections 
 use of overlap-Matrix (Vanderbilt PP)
 Gauss-broadening in eV      SIGMA  =   0.03


--------------------------------------------------------------------------------------------------------


  energy-cutoff  :      520.00
  volume of cell :      897.76
      direct lattice vectors                 reciprocal lattice vectors
     9.646874582  0.000000000  0.000000000     0.103660516  0.000000000  0.000000000
     0.000000000  9.646874582  0.000000000     0.000000000  0.103660516  0.000000000
     0.000000000  0.000000000  9.646874582     0.000000000  0.000000000  0.103660516

  length of vectors
     9.646874582  9.646874582  9.646874582     0.103660516  0.103660516  0.103660516


 
 k-points in units of 2pi/SCALE and weight: Automatic mesh                          
   0.02591513  0.02591513  0.02591513       0.250
  -0.02591513  0.02591513  0.02591513       0.250
  -0.02591513 -0.02591513  0.02591513       0.250
   0.02591513 -0.02591513  0.02591513       0.250
 
 k-points in reciprocal lattice and weights: Automatic mesh                          
   0.25000000  0.25000000  0.25000000       0.250
  -0.25000000  0.25000000  0.25000000       0.250
  -0.25000000 -0.25000000  0.25000000       0.250
   0.25000000 -0.25000000  0.25000000       0.250
 
 position of ions in fractional coordinates (direct lattice) 
   0.97302705  0.15596253  0.22303558
   0.97516185  0.66812275  0.70448764
   0.01806684  0.18466526  0.79401090
   0.02149785  0.70011321  0.27212108
   0.21160559  0.19834181  0.98832891
   0.18658901  0.84720909  0.03779519
   0.79199808  0.21278848  0.01951447
   0.83853189  0.82476091  0.96047561
   0.33753457  0.96019919  0.32820188
   0.30858819  0.04519018  0.67210464
   0.72371230  0.98360216  0.69159993
   0.67880392  0.00721265  0.29634874
   0.20202380  0.70671221  0.47839916
   0.16740867  0.33224325  0.53487872
   0.78462059  0.71102577  0.51041517
   0.66312629  0.21158665  0.47845570
   0.28860593  0.49005946  0.82863139
   0.27685288  0.51037690  0.21489765
   0.81236765  0.45682780  0.31752989
   0.67990036  0.54651495  0.84664612
   0.47566989  0.29445052  0.79280149
   0.47937646  0.69004265  0.16103605
   0.53056850  0.31560991  0.18268617
   0.52097448  0.79495543  0.68814926
   0.49678417  0.50017189  0.50212957
   0.50409720  0.99705194  0.99191021
   0.98842118  0.49874484  0.00477554
   0.00621433  0.00229384  0.49896446
   0.11292802  0.88078248  0.63620525
   0.14943922  0.11764859  0.39199185
   0.88791178  0.88685497  0.36373533
   0.88072402  0.14237747  0.59904208
   0.84988233  0.61344748  0.11749109
   0.87975653  0.38609467  0.86191059
   0.11397957  0.63940484  0.90445571
   0.09848001  0.36982596  0.13432187
   0.62453622  0.12290419  0.86939107
   0.63313951  0.86892173  0.10110830
   0.38948190  0.11129548  0.13079731
   0.37195702  0.88621488  0.86875871
   0.61185883  0.61699683  0.36661211
   0.63168065  0.39898860  0.63138583
   0.36899646  0.61725468  0.62631509
   0.38069092  0.36305943  0.38816553
   0.75185086  0.75454611  0.74340847
   0.74526672  0.23572920  0.25204273
   0.25662442  0.74639386  0.24801848
   0.24309125  0.26216931  0.75854201
   0.00073139  0.03022887  0.99975772
   0.99904397  0.54256359  0.48292075
   0.52034419  0.99594306  0.51125097
   0.47764325  0.48562440  0.00141379
 
 position of ions in cartesian coordinates  (Angst):
   9.38666990  1.50455099  2.15159627
   9.40726411  6.44529634  6.79610394
   0.17428852  1.78144258  7.65972361
   0.20738710  6.75390434  2.62511793
   2.04133262  1.91337861  9.53428499
   1.80000081  8.17291985  0.36460543
   7.64030619  2.05274377  0.18825367
   8.08921197  7.95636510  9.26558775
   3.25615368  9.26292111  3.16612240
   2.97691160  0.43594404  6.48370921
   6.98156176  9.48868667  6.67177783
   6.54833626  0.06957954  2.85883910
   1.94889830  6.81756409  4.61505667
   1.61497044  3.20510895  5.15990795
   7.56913641  6.85917643  4.92391108
   6.39709619  2.04114984  4.61560211
   2.78414521  4.72754216  7.99370310
   2.67076497  4.92354194  2.07309071
   7.83680886  4.40696052  3.06317104
   6.55891346  5.27216119  8.16748896
   4.58872774  2.84052726  7.64805653
   4.62448457  6.65675486  1.55349461
   5.11832777  3.04464923  1.76235060
   5.02577550  7.66883535  6.63848960
   4.79241457  4.82509545  4.84398098
   4.86296250  9.61843501  9.56883340
   9.53517518  4.81132897  0.04606907
   0.05994889  0.02212837  4.81344759
   1.08940247  8.49679807  6.13739226
   1.44162138  1.13494116  3.78149625
   8.56557358  8.55537868  3.50890907
   8.49623415  1.37349760  5.77888383
   8.19870829  5.91785091  1.13342176
   8.48690092  3.72460683  8.31474334
   1.09954661  6.16825830  8.72517083
   0.95002430  3.56766465  1.29578628
   6.02482255  1.18564131  8.38690663
   6.10781746  8.38237894  0.97537909
   3.75728306  1.07365352  1.26178527
   3.58822268  8.54920378  8.38080634
   5.90252535  5.95209104  3.53666109
   6.09374401  3.84899297  6.09089996
   3.55966254  5.95457848  6.04198309
   3.67247752  3.50238880  3.74458421
   7.25301094  7.27901166  7.17156828
   7.18949455  2.27405005  2.43142458
   2.47562363  7.20036794  2.39260316
   2.34507079  2.52911444  7.31755963
   0.00705563  0.29161413  9.64453733
   9.63765189  5.23404286  4.65867592
   5.01969509  9.60773776  4.93197398
   4.60776450  4.68475770  0.01363865
 


--------------------------------------------------------------------------------------------------------


 k-point   1 :   0.2500 0.2500 0.2500  plane waves:   24216
 k-point   2 :  -0.2500 0.2500 0.2500  plane waves:   24216
 k-point   3 :  -0.2500-0.2500 0.2500  plane waves:   24216
 k-point   4 :   0.2500-0.2500 0.2500  plane waves:   24216

 maximum and minimum number of plane-waves per node :       777      739

 maximum number of plane-waves:     24216
 maximum index in each direction: 
   IXMAX=   18   IYMAX=   18   IZMAX=   17
   IXMIN=  -18   IYMIN=  -18   IZMIN=  -18


 real space projection operators:
  total allocation   :      28459.47 KBytes
  max/ min on nodes  :       1185.91        748.16


 parallel 3D FFT for wavefunctions:
    minimum data exchange during FFTs selected (reduces bandwidth)
 parallel 3D FFT for charge:
    minimum data exchange during FFTs selected (reduces bandwidth)


 total amount of memory used by VASP MPI-rank0    48221. kBytes
=======================================================================

   base      :      30000. kBytes
   nonlr-proj:       6561. kBytes
   fftplans  :       1747. kBytes
   grid      :       5278. kBytes
   one-center:         62. kBytes
   wavefun   :       4573. kBytes
 
     INWAV:  cpu time      0.0000: real time      0.0000
 Broyden mixing: mesh for mixing (old mesh)
   NGX = 35   NGY = 35   NGZ = 35
  (NGX  =144   NGY  =144   NGZ  =144)
  gives a total of  42875 points

 initial charge density was supplied:
 charge density of overlapping atoms calculated
 number of electron     240.0000000 magnetization      52.0000000
 keeping initial charge density in first step


--------------------------------------------------------------------------------------------------------


 Maximum index for non-local projection operator          558
 Maximum index for augmentation-charges          807 (set IRDMAX)


--------------------------------------------------------------------------------------------------------


 First call to EWALD:  gamma=   0.184
 Maximum number of real-space cells 3x 3x 3
 Maximum number of reciprocal cells 3x 3x 3

    FEWALD:  cpu time      0.0031: real time      0.0034


--------------------------------------- Ionic step        1  -------------------------------------------




--------------------------------------- Iteration      1(   1)  ---------------------------------------


    POTLOK:  cpu time      0.0568: real time      0.0895
    SETDIJ:  cpu time      0.4228: real time      0.4306
     EDDAV:  cpu time      2.3283: real time      2.3909
       DOS:  cpu time      0.0027: real time      0.0040
    --------------------------------------------
      LOOP:  cpu time      2.8106: real time      2.9150

 eigenvalue-minimisations  :  3088
 total energy-change (2. order) : 0.1591025E+04  (-0.1139508E+05)
 number of electron     240.0000000 magnetization      52.0000000
 augmentation part      240.0000000 magnetization      52.0000000

 Free energy of the ion-electron system (eV)
  ---------------------------------------------------
  alpha Z        PSCENC =       302.37226562
  Ewald energy   TEWEN  =     -8851.86407579
  -Hartree energ DENC   =     -2089.03901434
  -exchange      EXHF   =         0.00000000
  -V(xc)+E(xc)   XCENC  =       534.42755334
  PAW double counting   =      8141.38806575    -8271.61346273
  entropy T*S    EENTRO =        -0.00817567
  eigenvalues    EBANDS =      -877.77827755
  atomic energy  EATOM  =     12703.13999606
  Solvation  Ediel_sol  =         0.00000000
  ---------------------------------------------------
  free energy    TOTEN  =      1591.02487469 eV

  energy without entropy =     1591.03305036  energy(sigma->0) =     1591.02896252


--------------------------------------------------------------------------------------------------------




--------------------------------------- Iteration      1(   2)  ---------------------------------------


     EDDAV:  cpu time      2.6454: real time      2.6718
       DOS:  cpu time      0.0004: real time      0.0004
    --------------------------------------------
      LOOP:  cpu time      2.6459: real time      2.6723

 eigenvalue-minimisations  :  3824
 total energy-change (2. order) :-0.1648173E+04  (-0.1551481E+04)
 number of electron     240.0000000 magnetization      52.0000000
 augmentation part      240.0000000 magnetization      52.0000000

 Free energy of the ion-electron system (eV)
  ---------------------------------------------------
  alpha Z        PSCENC =       302.37226562
  Ewald energy   TEWEN  =     -8851.86407579
  -Hartree energ DENC   =     -2089.03901434
  -exchange      EXHF   =         0.00000000
  -V(xc)+E(xc)   XCENC  =       534.42755334
  PAW double counting   =      8141.38806575    -8271.61346273
  entropy T*S    EENTRO =        -0.00000000
  eigenvalues    EBANDS =     -2525.95905236
  atomic energy  EATOM  =     12703.13999606
  Solvation  Ediel_sol  =         0.00000000
  ---------------------------------------------------
  free energy    TOTEN  =       -57.14772445 eV

  energy without entropy =      -57.14772445  energy(sigma->0) =      -57.14772445


--------------------------------------------------------------------------------------------------------




--------------------------------------- Iteration      1(   3)  ---------------------------------------


     EDDAV:  cpu time      2.6342: real time      2.6575
       DOS:  cpu time      0.0004: real time      0.0004
    --------------------------------------------
      LOOP:  cpu time      2.6346: real time      2.6579

 eigenvalue-minimisations  :  3760
 total energy-change (2. order) :-0.1710027E+03  (-0.1689782E+03)
 number of electron     240.0000000 magnetization      52.0000000
 augmentation part      240.0000000 magnetization      52.0000000

 Free energy of the ion-electron system (eV)
  ---------------------------------------------------
  alpha Z        PSCENC =       302.37226562
  Ewald energy   TEWEN  =     -8851.86407579
  -Hartree energ DENC   =     -2089.03901434
  -exchange      EXHF   =         0.00000000
  -V(xc)+E(xc)   XCENC  =       534.42755334
  PAW double counting   =      8141.38806575    -8271.61346273
  entropy T*S    EENTRO =        -0.00000000
  eigenvalues    EBANDS =     -2696.96176761
  atomic energy  EATOM  =     12703.13999606
  Solvation  Ediel_sol  =         0.00000000
  ---------------------------------------------------
  free energy    TOTEN  =      -228.15043970 eV

  energy without entropy =     -228.15043970  energy(sigma->0) =     -228.15043970


--------------------------------------------------------------------------------------------------------




--------------------------------------- Iteration      1(   4)  ---------------------------------------


     EDDAV:  cpu time      3.1863: real time      3.2151
       DOS:  cpu time      0.0004: real time      0.0004
    --------------------------------------------
      LOOP:  cpu time      3.1867: real time      3.2155

 eigenvalue-minimisations  :  4792
 total energy-change (2. order) :-0.1354942E+02  (-0.1352628E+02)
 number of electron     240.0000000 magnetization      52.0000000
 augmentation part      240.0000000 magnetization      52.0000000

 Free energy of the ion-electron system (eV)
  ---------------------------------------------------
  alpha Z        PSCENC =       302.37226562
  Ewald energy   TEWEN  =     -8851.86407579
  -Hartree energ DENC   =     -2089.03901434
  -exchange      EXHF   =         0.00000000
  -V(xc)+E(xc)   XCENC  =       534.42755334
  PAW double counting   =      8141.38806575    -8271.61346273
  entropy T*S    EENTRO =        -0.00000000
  eigenvalues    EBANDS =     -2710.51118911
  atomic energy  EATOM  =     12703.13999606
  Solvation  Ediel_sol  =         0.00000000
  ---------------------------------------------------
  free energy    TOTEN  =      -241.69986121 eV

  energy without entropy =     -241.69986121  energy(sigma->0) =     -241.69986121


--------------------------------------------------------------------------------------------------------




--------------------------------------- Iteration      1(   5)  ---------------------------------------


     EDDAV:  cpu time      2.9553: real time      2.9810
       DOS:  cpu time      0.0004: real time      0.0004
    --------------------------------------------
      LOOP:  cpu time      2.9557: real time      2.9814

 eigenvalue-minimisations  :  4424
 total energy-change (2. order) :-0.1999754E+00  (-0.1998764E+00)
 number of electron     240.0000000 magnetization      52.0000000
 augmentation part      240.0000000 magnetization      52.0000000

 Free energy of the ion-electron system (eV)
  ---------------------------------------------------
  alpha Z        PSCENC =       302.37226562
  Ewald energy   TEWEN  =     -8851.86407579
  -Hartree energ DENC   =     -2089.03901434
  -exchange      EXHF   =         0.00000000
  -V(xc)+E(xc)   XCENC  =       534.42755334
  PAW double counting   =      8141.38806575    -8271.61346273
  entropy T*S    EENTRO =        -0.00000000
  eigenvalues    EBANDS =     -2710.71116452
  atomic energy  EATOM  =     12703.13999606
  Solvation  Ediel_sol  =         0.00000000
  ---------------------------------------------------
  free energy    TOTEN  =      -241.89983661 eV

  energy without entropy =     -241.89983661  energy(sigma->0) =     -241.89983661


--------------------------------------------------------------------------------------------------------




--------------------------------------- Iteration      1(   6)  ---------------------------------------


     EDDAV:  cpu time      3.0978: real time      3.1260
       DOS:  cpu time      0.0004: real time      0.0004
    --------------------------------------------
      LOOP:  cpu time      3.0982: real time      3.1264

 eigenvalue-minimisations  :  4680
 total energy-change (2. order) :-0.1212272E-01  (-0.1212147E-01)
 number of electron     240.0000000 magnetization      52.0000000
 augmentation part      240.0000000 magnetization      52.0000000

 Free energy of the ion-electron system (eV)
  ---------------------------------------------------
  alpha Z        PSCENC =       302.37226562
  Ewald energy   TEWEN  =     -8851.86407579
  -Hartree energ DENC   =     -2089.03901434
  -exchange      EXHF   =         0.00000000
  -V(xc)+E(xc)   XCENC  =       534.42755334
  PAW double counting   =      8141.38806575    -8271.61346273
  entropy T*S    EENTRO =        -0.00000000
  eigenvalues    EBANDS =     -2710.72328724
  atomic energy  EATOM  =     12703.13999606
  Solvation  Ediel_sol  =         0.00000000
  ---------------------------------------------------
  free energy    TOTEN  =      -241.91195933 eV

  energy without entropy =     -241.91195933  energy(sigma->0) =     -241.91195933


--------------------------------------------------------------------------------------------------------




--------------------------------------- Iteration      1(   7)  ---------------------------------------


     EDDAV:  cpu time      3.0405: real time      3.0777
       DOS:  cpu time      0.0004: real time      0.0004
    --------------------------------------------
      LOOP:  cpu time      3.0409: real time      3.0781

 eigenvalue-minimisations  :  4560
 total energy-change (2. order) :-0.3803697E-03  (-0.3803443E-03)
 number of electron     240.0000000 magnetization      52.0000000
 augmentation part      240.0000000 magnetization      52.0000000

 Free energy of the ion-electron system (eV)
  ---------------------------------------------------
  alpha Z        PSCENC =       302.37226562
  Ewald energy   TEWEN  =     -8851.86407579
  -Hartree energ DENC   =     -2089.03901434
  -exchange      EXHF   =         0.00000000
  -V(xc)+E(xc)   XCENC  =       534.42755334
  PAW double counting   =      8141.38806575    -8271.61346273
  entropy T*S    EENTRO =        -0.00000000
  eigenvalues    EBANDS =     -2710.72366761
  atomic energy  EATOM  =     12703.13999606
  Solvation  Ediel_sol  =         0.00000000
  ---------------------------------------------------
  free energy    TOTEN  =      -241.91233970 eV

  energy without entropy =     -241.91233970  energy(sigma->0) =     -241.91233970


--------------------------------------------------------------------------------------------------------




--------------------------------------- Iteration      1(   8)  ---------------------------------------


     EDDAV:  cpu time      3.0644: real time      3.0913
       DOS:  cpu time      0.0004: real time      0.0004
    --------------------------------------------
      LOOP:  cpu time      3.0648: real time      3.0917

 eigenvalue-minimisations  :  4616
 total energy-change (2. order) :-0.2205155E-04  (-0.2205090E-04)
 number of electron     240.0000000 magnetization      52.0000000
 augmentation part      240.0000000 magnetization      52.0000000

 Free energy of the ion-electron system (eV)
  ---------------------------------------------------
  alpha Z        PSCENC =       302.37226562
  Ewald energy   TEWEN  =     -8851.86407579
  -Hartree energ DENC   =     -2089.03901434
  -exchange      EXHF   =         0.00000000
  -V(xc)+E(xc)   XCENC  =       534.42755334
  PAW double counting   =      8141.38806575    -8271.61346273
  entropy T*S    EENTRO =        -0.00000000
  eigenvalues    EBANDS =     -2710.72368966
  atomic energy  EATOM  =     12703.13999606
  Solvation  Ediel_sol  =         0.00000000
  ---------------------------------------------------
  free energy    TOTEN  =      -241.91236175 eV

  energy without entropy =     -241.91236175  energy(sigma->0) =     -241.91236175


--------------------------------------------------------------------------------------------------------




--------------------------------------- Iteration      1(   9)  ---------------------------------------


     EDDAV:  cpu time      2.9750: real time      3.0009
       DOS:  cpu time      0.0004: real time      0.0004
    --------------------------------------------
      LOOP:  cpu time      2.9754: real time      3.0012

 eigenvalue-minimisations  :  4456
 total energy-change (2. order) :-0.1419437E-05  (-0.1419471E-05)
 number of electron     240.0000000 magnetization      52.0000000
 augmentation part      240.0000000 magnetization      52.0000000

 Free energy of the ion-electron system (eV)
  ---------------------------------------------------
  alpha Z        PSCENC =       302.37226562
  Ewald energy   TEWEN  =     -8851.86407579
  -Hartree energ DENC   =     -2089.03901434
  -exchange      EXHF   =         0.00000000
  -V(xc)+E(xc)   XCENC  =       534.42755334
  PAW double counting   =      8141.38806575    -8271.61346273
  entropy T*S    EENTRO =        -0.00000000
  eigenvalues    EBANDS =     -2710.72369108
  atomic energy  EATOM  =     12703.13999606
  Solvation  Ediel_sol  =         0.00000000
  ---------------------------------------------------
  free energy    TOTEN  =      -241.91236317 eV

  energy without entropy =     -241.91236317  energy(sigma->0) =     -241.91236317


--------------------------------------------------------------------------------------------------------




--------------------------------------- Iteration      1(  10)  ---------------------------------------


     EDDAV:  cpu time      1.9921: real time      2.0094
       DOS:  cpu time      0.0004: real time      0.0004
    CHARGE:  cpu time      0.0671: real time      0.0742
    MIXING:  cpu time      0.0018: real time      0.0037
    --------------------------------------------
      LOOP:  cpu time      2.0615: real time      2.0877

 eigenvalue-minimisations  :  2648
 total energy-change (2. order) :-0.6112168E-07  (-0.6112854E-07)
 number of electron     240.0000006 magnetization      27.2181281
 augmentation part        1.4926920 magnetization      27.6606127

 Broyden mixing:
  rms(total) = 0.64182E+01    rms(broyden)= 0.64177E+01
  rms(prec ) = 0.66570E+01
  weight for this iteration     100.00

 Free energy of the ion-electron system (eV)
  ---------------------------------------------------
  alpha Z        PSCENC =       302.37226562
  Ewald energy   TEWEN  =     -8851.86407579
  -Hartree energ DENC   =     -2089.03901434
  -exchange      EXHF   =         0.00000000
  -V(xc)+E(xc)   XCENC  =       534.42755334
  PAW double counting   =      8141.38806575    -8271.61346273
  entropy T*S    EENTRO =        -0.00000000
  eigenvalues    EBANDS =     -2710.72369114
  atomic energy  EATOM  =     12703.13999606
  Solvation  Ediel_sol  =         0.00000000
  ---------------------------------------------------
  free energy    TOTEN  =      -241.91236323 eV

  energy without entropy =     -241.91236323  energy(sigma->0) =     -241.91236323


--------------------------------------------------------------------------------------------------------




--------------------------------------- Iteration      1(  11)  ---------------------------------------


    POTLOK:  cpu time      0.0536: real time      0.0545
    SETDIJ:  cpu time      0.4064: real time      0.4095
    EDDIAG:  cpu time      0.3651: real time      0.3683
  RMM-DIIS:  cpu time      1.1636: real time      1.1745
    ORTHCH:  cpu time      0.0685: real time      0.0696
       DOS:  cpu time      0.0005: real time      0.0006
    CHARGE:  cpu time      0.0647: real time      0.0675
    MIXING:  cpu time      0.0012: real time      0.0682
    --------------------------------------------
      LOOP:  cpu time      2.1235: real time      2.2127

 eigenvalue-minimisations  :  2816
 total energy-change (2. order) : 0.5424896E+01  (-0.4666106E+01)
 number of electron     240.0000006 magnetization      16.2891704
 augmentation part        1.7053420 magnetization      16.4710115

 Broyden mixing:
  rms(total) = 0.33010E+01    rms(broyden)= 0.33008E+01
  rms(prec ) = 0.34152E+01
  weight for this iteration     100.00

 eigenvalues of (default mixing * dielectric matrix)
  average eigenvalue GAMMA=   0.7252
  0.7252

 Free energy of the ion-electron system (eV)
  ---------------------------------------------------
  alpha Z        PSCENC =       302.37226562
  Ewald energy   TEWEN  =     -8851.86407579
  -Hartree energ DENC   =     -2136.20283298
  -exchange      EXHF   =         0.00000000
  -V(xc)+E(xc)   XCENC  =       542.60431832
  PAW double counting   =      8926.19583072    -9062.48185446
  entropy T*S    EENTRO =        -0.00000000
  eigenvalues    EBANDS =     -2660.25111497
  atomic energy  EATOM  =     12703.13999606
  Solvation  Ediel_sol  =         0.00000000
  ---------------------------------------------------
  free energy    TOTEN  =      -236.48746749 eV

  energy without entropy =     -236.48746749  energy(sigma->0) =     -236.48746749


--------------------------------------------------------------------------------------------------------




--------------------------------------- Iteration      1(  12)  ---------------------------------------


    POTLOK:  cpu time      0.0531: real time      0.0541
    SETDIJ:  cpu time      0.4036: real time      0.4058
    EDDIAG:  cpu time      0.3581: real time      0.3601
  RMM-DIIS:  cpu time      1.2158: real time      1.2266
    ORTHCH:  cpu time      0.0688: real time      0.0701
       DOS:  cpu time      0.0005: real time      0.0005
    CHARGE:  cpu time      0.0646: real time      0.0666
    MIXING:  cpu time      0.0011: real time      0.0011
    --------------------------------------------
      LOOP:  cpu time      2.1654: real time      2.1848

 eigenvalue-minimisations  :  2947
 total energy-change (2. order) :-0.1954130E+02  (-0.2104815E+01)
 number of electron     240.0000006 magnetization       0.4769982
 augmentation part        1.8018517 magnetization       0.8169800

 Broyden mixing:
  rms(total) = 0.20213E+01    rms(broyden)= 0.20213E+01
  rms(prec ) = 0.20822E+01
  weight for this iteration     100.00

 eigenvalues of (default mixing * dielectric matrix)
  average eigenvalue GAMMA=   1.1552
  1.6397  0.6708

 Free energy of the ion-electron system (eV)
  ---------------------------------------------------
  alpha Z        PSCENC =       302.37226562
  Ewald energy   TEWEN  =     -8851.86407579
  -Hartree energ DENC   =     -2159.65185099
  -exchange      EXHF   =         0.00000000
  -V(xc)+E(xc)   XCENC  =       536.26350945
  PAW double counting   =      9278.13649563    -9418.01337015
  entropy T*S    EENTRO =        -0.00000000
  eigenvalues    EBANDS =     -2646.41173601
  atomic energy  EATOM  =     12703.13999606
  Solvation  Ediel_sol  =         0.00000000
  ---------------------------------------------------
  free energy    TOTEN  =      -256.02876619 eV

  energy without entropy =     -256.02876619  energy(sigma->0) =     -256.02876619


--------------------------------------------------------------------------------------------------------




--------------------------------------- Iteration      1(  13)  ---------------------------------------


    POTLOK:  cpu time      0.0528: real time      0.0539
    SETDIJ:  cpu time      0.4031: real time      0.4046
    EDDIAG:  cpu time      0.3594: real time      0.3621
  RMM-DIIS:  cpu time      1.2025: real time      1.2129
    ORTHCH:  cpu time      0.0680: real time      0.0685
       DOS:  cpu time      0.0005: real time      0.0005
    CHARGE:  cpu time      0.0650: real time      0.0669
    MIXING:  cpu time      0.0010: real time      0.0010
    --------------------------------------------
      LOOP:  cpu time      2.1522: real time      2.1704

 eigenvalue-minimisations  :  2905
 total energy-change (2. order) :-0.2485310E+01  (-0.8891855E+00)
 number of electron     240.0000006 magnetization      -1.8696243
 augmentation part        1.9020206 magnetization      -1.7661767

 Broyden mixing:
  rms(total) = 0.66790E+00    rms(broyden)= 0.66790E+00
  rms(prec ) = 0.70004E+00
  weight for this iteration     100.00

 eigenvalues of (default mixing * dielectric matrix)
  average eigenvalue GAMMA=   1.3015
  2.5052  0.7469  0.6525

 Free energy of the ion-electron system (eV)
  ---------------------------------------------------
  alpha Z        PSCENC =       302.37226562
  Ewald energy   TEWEN  =     -8851.86407579
  -Hartree energ DENC   =     -2186.66340803
  -exchange      EXHF   =         0.00000000
  -V(xc)+E(xc)   XCENC  =       537.82415101
  PAW double counting   =      9780.31935571    -9924.15252315
  entropy T*S    EENTRO =        -0.00000000
  eigenvalues    EBANDS =     -2619.48983796
  atomic energy  EATOM  =     12703.13999606
  Solvation  Ediel_sol  =         0.00000000
  ---------------------------------------------------
  free energy    TOTEN  =      -258.51407653 eV

  energy without entropy =     -258.51407653  energy(sigma->0) =     -258.51407653


--------------------------------------------------------------------------------------------------------




--------------------------------------- Iteration      1(  14)  ---------------------------------------


    POTLOK:  cpu time      0.0524: real time      0.0535
    SETDIJ:  cpu time      0.4030: real time      0.4045
    EDDIAG:  cpu time      0.3578: real time      0.3598
  RMM-DIIS:  cpu time      1.5622: real time      1.5759
    ORTHCH:  cpu time      0.0686: real time      0.0689
       DOS:  cpu time      0.0005: real time      0.0005
    CHARGE:  cpu time      0.0645: real time      0.0669
    MIXING:  cpu time      0.0010: real time      0.0010
    --------------------------------------------
      LOOP:  cpu time      2.5100: real time      2.5310

 eigenvalue-minimisations  :  3755
 total energy-change (2. order) :-0.1958073E+00  (-0.1953345E+00)
 number of electron     240.0000006 magnetization      -0.8471431
 augmentation part        1.8720811 magnetization      -0.8204973

 Broyden mixing:
  rms(total) = 0.32174E+00    rms(broyden)= 0.32174E+00
  rms(prec ) = 0.35655E+00
  weight for this iteration     100.00

 eigenvalues of (default mixing * dielectric matrix)
  average eigenvalue GAMMA=   1.2670
  2.6126  1.1744  0.6898  0.5913

 Free energy of the ion-electron system (eV)
  ---------------------------------------------------
  alpha Z        PSCENC =       302.37226562
  Ewald energy   TEWEN  =     -8851.86407579
  -Hartree energ DENC   =     -2187.90288596
  -exchange      EXHF   =         0.00000000
  -V(xc)+E(xc)   XCENC  =       538.26043501
  PAW double counting   =      9856.46892547   -10001.09453964
  entropy T*S    EENTRO =        -0.00000000
  eigenvalues    EBANDS =     -2618.09000463
  atomic energy  EATOM  =     12703.13999606
  Solvation  Ediel_sol  =         0.00000000
  ---------------------------------------------------
  free energy    TOTEN  =      -258.70988386 eV

  energy without entropy =     -258.70988386  energy(sigma->0) =     -258.70988386


--------------------------------------------------------------------------------------------------------




--------------------------------------- Iteration      1(  15)  ---------------------------------------


    POTLOK:  cpu time      0.0521: real time      0.0534
    SETDIJ:  cpu time      0.4035: real time      0.4051
    EDDIAG:  cpu time      0.3577: real time      0.3602
  RMM-DIIS:  cpu time      1.2746: real time      1.2855
    ORTHCH:  cpu time      0.0679: real time      0.0685
       DOS:  cpu time      0.0004: real time      0.0004
    CHARGE:  cpu time      0.0648: real time      0.0660
    MIXING:  cpu time      0.0011: real time      0.0011
    --------------------------------------------
      LOOP:  cpu time      2.2221: real time      2.2402

 eigenvalue-minimisations  :  3071
 total energy-change (2. order) : 0.2727200E-01  (-0.3296101E-01)
 number of electron     240.0000006 magnetization      -0.2270241
 augmentation part        1.8234557 magnetization      -0.2007212

 Broyden mixing:
  rms(total) = 0.68501E-01    rms(broyden)= 0.68498E-01
  rms(prec ) = 0.80844E-01
  weight for this iteration     100.00

 eigenvalues of (default mixing * dielectric matrix)
  average eigenvalue GAMMA=   1.2710
  2.5351  1.5845  0.9491  0.6851  0.6013

 Free energy of the ion-electron system (eV)
  ---------------------------------------------------
  alpha Z        PSCENC =       302.37226562
  Ewald energy   TEWEN  =     -8851.86407579
  -Hartree energ DENC   =     -2183.36994248
  -exchange      EXHF   =         0.00000000
  -V(xc)+E(xc)   XCENC  =       537.90541989
  PAW double counting   =      9828.08644377    -9972.52755595
  entropy T*S    EENTRO =        -0.00000000
  eigenvalues    EBANDS =     -2622.42516298
  atomic energy  EATOM  =     12703.13999606
  Solvation  Ediel_sol  =         0.00000000
  ---------------------------------------------------
  free energy    TOTEN  =      -258.68261186 eV

  energy without entropy =     -258.68261186  energy(sigma->0) =     -258.68261186


--------------------------------------------------------------------------------------------------------




--------------------------------------- Iteration      1(  16)  ---------------------------------------


    POTLOK:  cpu time      0.0528: real time      0.0539
    SETDIJ:  cpu time      0.4038: real time      0.4054
    EDDIAG:  cpu time      0.3561: real time      0.3586
  RMM-DIIS:  cpu time      1.2837: real time      1.2952
    ORTHCH:  cpu time      0.0686: real time      0.0690
       DOS:  cpu time      0.0005: real time      0.0005
    CHARGE:  cpu time      0.0643: real time      0.0654
    MIXING:  cpu time      0.0013: real time      0.0013
    --------------------------------------------
      LOOP:  cpu time      2.2310: real time      2.2493

 eigenvalue-minimisations  :  3080
 total energy-change (2. order) :-0.1922324E-01  (-0.1018176E-01)
 number of electron     240.0000006 magnetization      -0.1065705
 augmentation part        1.8014891 magnetization      -0.0922869

 Broyden mixing:
  rms(total) = 0.30872E-01    rms(broyden)= 0.30870E-01
  rms(prec ) = 0.37128E-01
  weight for this iteration     100.00

 eigenvalues of (default mixing * dielectric matrix)
  average eigenvalue GAMMA=   1.2502
  2.4531  1.9461  1.0401  0.6206  0.6993  0.7422

 Free energy of the ion-electron system (eV)
  ---------------------------------------------------
  alpha Z        PSCENC =       302.37226562
  Ewald energy   TEWEN  =     -8851.86407579
  -Hartree energ DENC   =     -2182.82332246
  -exchange      EXHF   =         0.00000000
  -V(xc)+E(xc)   XCENC  =       537.82386973
  PAW double counting   =      9816.91207090    -9961.12880039
  entropy T*S    EENTRO =        -0.00000000
  eigenvalues    EBANDS =     -2623.13383877
  atomic energy  EATOM  =     12703.13999606
[...]
  0.002  -0.001  -0.000  -0.000   0.004   0.001  -0.000   0.000   0.000  -0.000  -0.000  -0.000   0.000   0.000
 -0.002   0.002   0.000  -0.001   0.001   0.006  -0.000   0.000   0.000   0.000  -0.000   0.000   0.000  -0.000
 -0.014   0.014   0.000   0.001  -0.002   0.005   0.000  -0.000   0.000   0.000  -0.000   0.000  -0.000  -0.000
 -0.002   0.002   0.000  -0.003  -0.003  -0.002  -0.000  -0.000  -0.000  -0.000   0.000   0.000  -0.000   0.000
 -0.004   0.005   0.000  -0.004  -0.001   0.006  -0.000  -0.000   0.000   0.000   0.000   0.000   0.000  -0.000
  0.012  -0.012  -0.000  -0.002   0.005   0.006  -0.000   0.000   0.000  -0.000  -0.000   0.000   0.000   0.000
  0.025  -0.025  -0.000  -0.000   0.005  -0.005   0.000   0.000  -0.000  -0.000   0.000  -0.000   0.000   0.000
 total augmentation occupancy for first ion, spin component:           2
 -0.000  -0.000  -0.000  -0.000   0.000   0.000   0.000  -0.000  -0.000  -0.000  -0.000   0.000   0.000   0.000
 -0.000   0.000   0.000   0.000  -0.000  -0.000  -0.000   0.000   0.000   0.000   0.000  -0.000  -0.000  -0.000
 -0.000   0.000   0.000  -0.000  -0.000   0.000  -0.000  -0.000   0.000   0.000   0.000   0.000  -0.000  -0.000
 -0.000   0.000  -0.000  -0.000   0.000  -0.000  -0.000   0.000   0.000  -0.000  -0.000   0.000   0.000   0.000
  0.000  -0.000  -0.000   0.000  -0.000  -0.000  -0.000  -0.000  -0.000  -0.000  -0.000  -0.000   0.000   0.000
  0.000  -0.000   0.000  -0.000  -0.000   0.000  -0.000   0.000  -0.000  -0.000   0.000   0.000   0.000   0.000
  0.000  -0.000  -0.000  -0.000  -0.000  -0.000  -0.000  -0.000  -0.000  -0.000   0.000   0.000  -0.000   0.000
 -0.000   0.000  -0.000   0.000  -0.000   0.000  -0.000  -0.000  -0.000  -0.000   0.000   0.000  -0.000   0.000
 -0.000   0.000   0.000   0.000  -0.000  -0.000  -0.000  -0.000   0.000   0.000   0.000   0.000   0.000  -0.000
 -0.000   0.000   0.000  -0.000  -0.000  -0.000  -0.000  -0.000   0.000  -0.000   0.000  -0.000   0.000   0.000
 -0.000   0.000   0.000  -0.000  -0.000   0.000   0.000   0.000   0.000   0.000  -0.000   0.000   0.000  -0.000
  0.000  -0.000   0.000   0.000  -0.000   0.000   0.000   0.000   0.000  -0.000   0.000  -0.000  -0.000  -0.000
  0.000  -0.000  -0.000   0.000   0.000   0.000  -0.000  -0.000   0.000   0.000   0.000  -0.000  -0.000   0.000
  0.000  -0.000  -0.000   0.000   0.000   0.000   0.000   0.000  -0.000   0.000  -0.000  -0.000   0.000  -0.000


------------------------ aborting loop because EDIFF is reached ----------------------------------------


    CHARGE:  cpu time      0.0660: real time      0.0667
    FORLOC:  cpu time      0.0038: real time      0.0038
    FORNL :  cpu time      0.3961: real time      0.3988
    STRESS:  cpu time      1.1924: real time      1.2006
    FORCOR:  cpu time      0.0502: real time      0.0506
    FORHAR:  cpu time      0.0083: real time      0.0084
    MIXING:  cpu time      0.0007: real time      0.0007
    OFIELD:  cpu time      0.0000: real time      0.0000

 ---------------------------------------------------------------------------------------------

         DFTD3 V3.0 Rev 1        
 Edisp (eV)  -13.63819

 E6    (eV) :    -8.4031
 E8    (eV) :    -5.2350
 % E8        : 38.39
    FORVDW:  cpu time      0.2933: real time      0.2954

  FORCE on cell =-STRESS in cart. coord.  units (eV):
  Direction    XX          YY          ZZ          XY          YZ          ZX
  --------------------------------------------------------------------------------------
  Alpha Z   302.37227   302.37227   302.37227
  Ewald   -2906.94199 -3018.38189 -2926.77848    13.42421    21.28147    49.43695
  Hartree   751.21398   692.12851   741.81966     5.04568    13.01130    16.81441
  E(xc)    -947.70655  -947.89329  -947.71675     0.04973     0.01780     0.13270
  Local   -1550.94537 -1387.71168 -1522.67265   -17.79971   -33.85789   -62.23253
  n-local  1481.79662  1481.68070  1481.56086     0.12203     0.30007     0.75996
  augment  -356.85799  -357.15508  -356.69785     0.03201    -0.05642     0.08086
  Kinetic  3242.46023  3249.51309  3241.30811    -0.50516     0.35909    -2.72645
  Fock        0.00000     0.00000     0.00000     0.00000     0.00000     0.00000
  vdW       -14.38119   -14.41707   -14.41883     0.01268     0.00761    -0.01106
  -------------------------------------------------------------------------------------
  Total       1.01000     0.13554    -1.22367     0.38147     1.06304     2.25484
  in kB       1.80248     0.24189    -2.18381     0.68079     1.89715     4.02408
  external pressure =       -0.05 kB  Pullay stress =        0.00 kB


 VOLUME and BASIS-vectors are now :
 -----------------------------------------------------------------------------
  energy-cutoff  :      520.00
  volume of cell :      897.76
      direct lattice vectors                 reciprocal lattice vectors
     9.646874582  0.000000000  0.000000000     0.103660516  0.000000000  0.000000000
     0.000000000  9.646874582  0.000000000     0.000000000  0.103660516  0.000000000
     0.000000000  0.000000000  9.646874582     0.000000000  0.000000000  0.103660516

  length of vectors
     9.646874582  9.646874582  9.646874582     0.103660516  0.103660516  0.103660516


 FORCES acting on ions
    electron-ion (+dipol)            ewald-force                    non-local-force                 convergence-correction
 -----------------------------------------------------------------------------------------------
   -.579E+01 0.163E+01 -.270E+01   0.504E+01 -.691E+00 0.343E+01   0.754E+00 -.937E+00 -.725E+00   0.250E-04 -.143E-03 0.989E-04
   -.581E+01 0.118E+02 -.766E+00   0.493E+01 -.107E+02 0.184E+01   0.877E+00 -.115E+01 -.107E+01   0.153E-03 0.610E-04 0.743E-04
   0.247E+01 0.505E+01 0.393E+01   -.174E+01 -.391E+01 -.506E+01   -.732E+00 -.115E+01 0.113E+01   0.426E-04 -.109E-03 -.400E-04
   -.137E+01 -.309E+01 0.871E+01   0.195E+01 0.392E+01 -.923E+01   -.580E+00 -.840E+00 0.518E+00   0.102E-03 -.394E-04 -.148E-03
   -.338E+01 0.383E+01 -.495E+01   0.430E+01 -.294E+01 0.412E+01   -.920E+00 -.897E+00 0.822E+00   0.201E-03 -.142E-03 -.238E-03
   0.896E+01 -.794E+01 0.205E+00   -.783E+01 0.644E+01 0.585E+00   -.112E+01 0.151E+01 -.787E+00   0.819E-04 -.835E-04 -.135E-03
   0.125E+01 -.678E+00 0.183E+01   -.258E+01 0.130E+01 -.115E+01   0.134E+01 -.621E+00 -.679E+00   0.743E-05 -.144E-05 -.738E-04
   -.139E+02 -.831E+01 -.154E+01   0.121E+02 0.743E+01 0.540E+00   0.181E+01 0.872E+00 0.993E+00   0.302E-03 -.171E-03 -.714E-04
   -.820E+01 0.231E+01 -.796E+01   0.684E+01 -.297E+01 0.679E+01   0.136E+01 0.660E+00 0.117E+01   0.317E-04 -.539E-04 -.535E-04
   -.688E+01 -.990E+00 0.106E+02   0.574E+01 0.200E+01 -.908E+01   0.114E+01 -.101E+01 -.155E+01   0.864E-05 -.153E-03 0.242E-03
   -.225E+01 -.156E+01 -.143E+01   0.323E+01 0.825E+00 0.233E+01   -.991E+00 0.735E+00 -.906E+00   0.123E-03 -.143E-03 -.146E-03
   0.109E+02 0.924E+01 -.494E+01   -.952E+01 -.837E+01 0.348E+01   -.133E+01 -.866E+00 0.145E+01   -.216E-04 0.159E-04 0.130E-03
   -.742E+01 0.391E-01 -.299E+01   0.861E+01 0.430E+00 0.247E+01   -.120E+01 -.472E+00 0.514E+00   0.335E-04 0.484E-04 0.183E-03
   0.166E+02 -.125E+02 0.167E+01   -.152E+02 0.110E+02 -.721E+00   -.146E+01 0.144E+01 -.950E+00   -.880E-04 0.769E-04 0.618E-04
   0.482E+01 0.330E+01 0.186E+01   -.580E+01 -.257E+01 -.945E+00   0.991E+00 -.740E+00 -.912E+00   -.240E-04 0.468E-04 0.160E-03
   0.648E+01 -.154E+01 -.371E+01   -.530E+01 0.258E+01 0.295E+01   -.119E+01 -.104E+01 0.757E+00   0.393E-04 -.252E-04 0.613E-04
   0.201E+00 -.774E+01 0.198E-01   -.128E+01 0.716E+01 -.731E+00   0.108E+01 0.574E+00 0.711E+00   -.964E-04 0.279E-03 0.419E-05
   -.334E+01 0.476E+01 0.340E+01   0.226E+01 -.394E+01 -.244E+01   0.109E+01 -.816E+00 -.960E+00   -.222E-04 0.300E-03 -.682E-04
   -.697E+01 0.772E+01 -.110E+02   0.571E+01 -.883E+01 0.974E+01   0.125E+01 0.111E+01 0.123E+01   -.318E-04 0.140E-03 0.117E-03
   0.109E+02 -.256E+01 -.109E+02   -.971E+01 0.352E+01 0.947E+01   -.118E+01 -.953E+00 0.140E+01   -.194E-04 0.895E-04 -.569E-04
   -.133E+01 -.211E+01 -.289E+00   0.707E+00 0.917E+00 -.612E+00   0.619E+00 0.120E+01 0.903E+00   -.212E-03 -.232E-05 0.242E-04
   -.226E+01 0.239E+01 0.783E+01   0.191E+01 -.118E+01 -.682E+01   0.354E+00 -.121E+01 -.101E+01   -.137E-03 -.180E-05 -.621E-04
   0.218E+00 -.890E+01 0.503E+01   0.895E+00 0.754E+01 -.419E+01   -.111E+01 0.135E+01 -.835E+00   -.454E-04 -.695E-04 -.153E-03
   0.568E+01 0.137E+01 0.271E+01   -.509E+01 -.264E+01 -.176E+01   -.582E+00 0.127E+01 -.947E+00   -.172E-03 -.140E-03 -.484E-04
   0.487E+01 -.295E+01 0.101E+01   -.465E+01 0.272E+01 -.104E+01   -.219E+00 0.229E+00 0.326E-01   -.998E-04 0.383E-03 0.211E-03
   0.355E+01 0.461E+01 -.557E+00   -.355E+01 -.502E+01 0.534E+00   -.291E-02 0.413E+00 0.272E-01   -.281E-03 0.781E-04 -.163E-03
   -.554E+01 0.182E+01 0.267E+01   0.491E+01 -.176E+01 -.276E+01   0.622E+00 -.535E-01 0.818E-01   0.293E-03 0.348E-03 -.159E-03
   -.204E+01 -.766E+00 -.187E+01   0.242E+01 0.100E+01 0.203E+01   -.374E+00 -.224E+00 -.163E+00   -.212E-03 -.241E-03 0.174E-03
   -.338E+02 0.288E+02 -.636E+02   0.364E+02 -.310E+02 0.677E+02   -.261E+01 0.220E+01 -.414E+01   -.156E-04 -.380E-03 0.230E-03
   -.529E+02 -.428E+02 0.340E+02   0.563E+02 0.457E+02 -.362E+02   -.340E+01 -.287E+01 0.215E+01   -.200E-03 -.195E-03 0.443E-04
   0.326E+02 0.247E+02 0.542E+02   -.354E+02 -.273E+02 -.583E+02   0.282E+01 0.255E+01 0.414E+01   0.275E-03 0.162E-05 0.473E-03
   0.250E+02 -.695E+02 -.223E+02   -.273E+02 0.740E+02 0.243E+02   0.233E+01 -.453E+01 -.203E+01   0.306E-04 -.316E-03 0.732E-04
   0.627E+02 -.336E+02 -.244E+02   -.667E+02 0.358E+02 0.263E+02   0.400E+01 -.223E+01 -.191E+01   0.356E-03 0.208E-03 -.217E-04
   0.309E+02 0.230E+02 0.680E+02   -.334E+02 -.249E+02 -.723E+02   0.252E+01 0.187E+01 0.428E+01   0.209E-03 0.381E-04 -.132E-03
   -.446E+02 -.505E+02 0.291E+02   0.477E+02 0.540E+02 -.315E+02   -.315E+01 -.355E+01 0.235E+01   0.164E-03 0.164E-03 -.189E-03
   -.325E+02 0.348E+02 -.540E+02   0.349E+02 -.377E+02 0.581E+02   -.244E+01 0.295E+01 -.409E+01   -.768E-04 0.480E-03 -.490E-03
   -.357E+02 -.368E+02 0.361E+02   0.387E+02 0.400E+02 -.392E+02   -.303E+01 -.326E+01 0.312E+01   -.419E-03 -.178E-03 0.238E-03
   -.385E+02 0.478E+02 -.296E+02   0.418E+02 -.512E+02 0.319E+02   -.336E+01 0.343E+01 -.229E+01   -.435E-03 0.188E-03 -.183E-03
   0.390E+02 -.321E+02 -.498E+02   -.418E+02 0.347E+02 0.535E+02   0.285E+01 -.261E+01 -.372E+01   -.125E-03 -.786E-04 -.279E-03
   0.468E+02 0.506E+02 0.309E+02   -.502E+02 -.536E+02 -.335E+02   0.345E+01 0.296E+01 0.261E+01   -.272E-03 -.165E-03 -.259E-03
   -.206E+02 -.459E+02 0.446E+02   0.232E+02 0.489E+02 -.483E+02   -.259E+01 -.295E+01 0.374E+01   0.343E-04 0.114E-03 0.403E-03
   -.598E+02 0.241E+02 -.347E+02   0.641E+02 -.259E+02 0.373E+02   -.429E+01 0.179E+01 -.257E+01   -.130E-03 0.274E-03 -.419E-04
   0.412E+02 -.328E+02 -.396E+02   -.443E+02 0.359E+02 0.428E+02   0.309E+01 -.305E+01 -.322E+01   -.182E-04 0.450E-03 0.105E-03
   0.397E+02 0.572E+02 0.230E+02   -.424E+02 -.616E+02 -.248E+02   0.272E+01 0.434E+01 0.180E+01   0.228E-03 0.402E-03 0.300E-03
   0.894E+00 0.623E+01 -.145E+02   -.912E+00 -.639E+01 0.148E+02   0.183E-01 0.148E+00 -.340E+00   0.419E-04 -.886E-04 -.465E-03
   -.367E+01 -.138E+02 -.396E+01   0.389E+01 0.141E+02 0.405E+01   -.224E+00 -.210E+00 -.783E-01   -.419E-04 -.294E-04 0.489E-04
   -.107E+02 -.143E+02 0.482E+01   0.108E+02 0.147E+02 -.497E+01   -.135E+00 -.335E+00 0.154E+00   -.361E-03 -.121E-03 -.782E-04
   0.511E+01 -.519E+01 0.184E+02   -.522E+01 0.533E+01 -.188E+02   0.101E+00 -.134E+00 0.400E+00   0.144E-03 -.327E-03 0.401E-03
   -.103E+01 0.355E+02 0.322E+01   0.866E+00 -.360E+02 -.329E+01   0.164E+00 0.511E+00 0.646E-01   0.296E-03 -.196E-03 -.255E-03
   -.149E+01 0.588E+02 -.181E+02   0.152E+01 -.599E+02 0.183E+02   -.237E-01 0.110E+01 -.228E+00   0.684E-04 0.335E-03 0.151E-03
   0.224E+02 0.516E+01 0.115E+02   -.226E+02 -.529E+01 -.115E+02   0.271E+00 0.129E+00 0.453E-01   0.147E-04 -.509E-03 0.273E-03
   -.105E+02 -.143E+02 0.230E+00   0.106E+02 0.144E+02 -.265E+00   -.181E+00 -.137E+00 0.350E-01   -.298E-03 0.175E-03 -.286E-03
 -----------------------------------------------------------------------------------------------
   0.811E+00 0.350E+01 -.494E+00   0.213E-13 -.426E-13 -.157E-13   -.805E+00 -.351E+01 0.500E+00   -.550E-03 0.594E-03 -.111E-04
 
 
 POSITION                                       TOTAL-FORCE (eV/Angst)
 -----------------------------------------------------------------------------------
      9.38669      1.50452      2.15159         0.000116     -0.000199      0.000032
      9.40723      6.44517      6.79609        -0.000075     -0.000611      0.000064
      0.17431      1.78138      7.65971         0.000095     -0.000355     -0.000171
      0.20735      6.75388      2.62513        -0.000004     -0.000246     -0.000048
      2.04131      1.91339      9.53428        -0.000068      0.000059     -0.000021
      1.80004      8.17297      0.36457         0.000206      0.000260      0.000067
      7.64034      2.05274      0.18824         0.000167     -0.000086     -0.000019
      8.08926      7.95635      9.26560         0.000293     -0.000129      0.000083
      3.25617      9.26295      3.16612         0.000144     -0.000027      0.000040
      2.97691      0.43589      6.48367        -0.000016     -0.000066     -0.000232
      6.98151      9.48870      6.67183        -0.000044      0.000120      0.000113
      6.54838      0.06953      2.85887         0.000165     -0.000206      0.000017
      1.94882      6.81761      4.61508        -0.000258      0.000210      0.000130
      1.61499      3.20512      5.15990         0.000082      0.000003     -0.000146
      7.56920      6.85923      4.92389         0.000177      0.000172     -0.000080
      6.39697      2.04114      4.61557        -0.000641      0.000027     -0.000141
      2.78415      4.72756      7.99369        -0.000023      0.000088     -0.000008
      2.67082      4.92351      2.07314         0.000148     -0.000196      0.000200
      7.83678      4.40699      3.06321        -0.000151     -0.000018      0.000241
      6.55896      5.27214      8.16757         0.000223     -0.000099      0.000398
      4.58871      2.84057      7.64808         0.000015      0.000232      0.000056
      4.62448      6.65674      1.55349         0.000072      0.000032     -0.000103
      5.11826      3.04465      1.76230        -0.000160     -0.000006     -0.000208
      5.02579      7.66888      6.63850         0.000060      0.000052      0.000016
      4.79241      4.82503      4.84397        -0.000005      0.000382      0.000183
      4.86305      9.61843      9.56881        -0.000144      0.000293     -0.000103
      9.53519      4.81131      0.04612        -0.000053      0.000144      0.000119
      0.05989      0.02214      4.81341        -0.000087     -0.000070     -0.000009
      1.08946      8.49676      6.13756        -0.000697      0.000507     -0.000167
      1.44178      1.13493      3.78149        -0.000077     -0.000524      0.000392
      8.56556      8.55530      3.50874         0.000441      0.000151     -0.000207
      8.49616      1.37366      5.77883         0.000183     -0.000060     -0.000755
      8.19850      5.91780      1.13353        -0.000216     -0.000802     -0.000134
      8.48688      3.72452      8.31465         0.000617      0.000275      0.000329
      1.09967      6.16843      8.72520        -0.000314     -0.000140      0.000674
      0.95001      3.56758      1.29590        -0.000450      0.000276     -0.000026
      6.02490      1.18572      8.38677        -0.000332     -0.000253      0.000182
      6.10792      8.38233      0.97533        -0.000099      0.000413     -0.000652
      3.75719      1.07370      1.26193         0.000324     -0.000406     -0.000331
      3.58813      8.54913      8.38072         0.000258      0.000190      0.000115
      5.90254      5.95219      3.53653        -0.000462     -0.000229      0.000320
      6.09388      3.84903      6.09098        -0.000074      0.000526     -0.000419
      3.55954      5.95463      6.04209         0.000078     -0.000304     -0.000182
      3.67243      3.50227      3.74455         0.000531      0.000060      0.000439
      7.25300      7.27902      7.17164         0.000039      0.000061      0.000173
      7.18950      2.27408      2.43142        -0.000063     -0.000023     -0.000086
      2.47568      7.20041      2.39262         0.000156     -0.000010      0.000169
      2.34504      2.52920      7.31747        -0.000071      0.000271     -0.000256
      0.00707      0.29155      9.64453        -0.000087      0.000243     -0.000028
      9.63767      5.23397      4.65868         0.000036      0.000074     -0.000054
      5.01965      9.60777      4.93195         0.000054      0.000034      0.000023
      4.60777      4.68480      0.01362        -0.000009     -0.000089      0.000012
 -----------------------------------------------------------------------------------
    total drift:                                0.005583     -0.009721      0.005956


--------------------------------------------------------------------------------------------------------



  FREE ENERGIE OF THE ION-ELECTRON SYSTEM (eV)
  ---------------------------------------------------
  free  energy   TOTEN  =      -272.34755681 eV

  energy  without entropy=     -272.34755681  energy(sigma->0) =     -272.34755681
 
 d Force = 0.8144823E-06[ 0.344E-06, 0.128E-05]  d Energy = 0.1023944E-05-0.209E-06
 d Force = 0.1990029E-01[ 0.199E-01, 0.199E-01]  d Ewald  = 0.1990029E-01 0.309E-10


--------------------------------------------------------------------------------------------------------


    POTLOK:  cpu time      0.4542: real time      0.4562


--------------------------------------------------------------------------------------------------------


 stress matrix after NEB project (eV)
      1.01000      0.38147      2.25484
      0.38147      0.13554      1.06304
      2.25484      1.06304     -1.22367
  FORCES: max atom, RMS     0.000878    0.000437
  FORCE total and by dimension    0.003154    0.000802
  Stress total and by dimension    3.905841    2.254839
 Conjugate gradient step on ions:
 trial-energy change:   -0.000001  1 .order   -0.000001   -0.000001   -0.000000
  (g-gl).g = 0.925E-06      g.g   = 0.944E-06  gl.gl    = 0.316E-05
 g(Force)  = 0.944E-06   g(Stress)= 0.000E+00 ortho     = 0.188E-07
 gamma     =   0.29276
 trial     =   1.35290
 opt step  =   1.84817  (harmonic =   1.84817) maximal distance =0.00005165
 next E    =  -272.347557   (d E  =  -0.00000)


--------------------------------------------------------------------------------------------------------


  
 reached required accuracy - stopping structural energy minimisation
     LOOP+:  cpu time      7.3381: real time      7.4084
    4ORBIT:  cpu time      0.0000: real time      0.0000

 total amount of memory used by VASP MPI-rank0    48221. kBytes
=======================================================================

   base      :      30000. kBytes
   nonlr-proj:       6561. kBytes
   fftplans  :       1747. kBytes
   grid      :       5278. kBytes
   one-center:         62. kBytes
   wavefun   :       4573. kBytes
 
  
  
 General timing and accounting informations for this job:
 ========================================================
  
                  Total CPU time used (sec):      128.011
                            User time (sec):      126.567
                          System time (sec):        1.444
                         Elapsed time (sec):      132.480
  
                   Maximum memory used (kb):      387428.
                   Average memory used (kb):          N/A
  
                          Minor page faults:        69241
                          Major page faults:          136
                 Voluntary context switches:         5409
