<?xml version="1.0" encoding="ISO-8859-1"?>
<modeling>
 <generator>
  <i name="program" type="string">vasp </i>
  <i name="version" type="string">6.4.1  </i>
  <i name="subversion" type="string">05Apr23 (build Jun 07 2023 15:38:11) complex                          parallel </i>
  <i name="platform" type="string">LinuxIFC </i>
  <i name="date" type="string">2023 10 19 </i>
  <i name="time" type="string">05:17:37 </i>
 </generator>
 <incar>
  <i type="string" name="PREC">Accu</i>
  <i type="string" name="ALGO">F</i>
  <i type="logical" name="LDIAG"> T  </i>
  <i type="int" name="ISPIN">     2</i>
  <i type="int" name="NELM">   100</i>
  <i type="int" name="NELMDL">   -10</i>
  <i type="int" name="IBRION">     2</i>
  <i name="EDIFF">      0.00000100</i>
  <i name="EDIFFG">     -0.00100000</i>
  <i type="int" name="NSW">  1000</i>
  <i type="int" name="ISIF">     2</i>
  <i name="ENCUT">    520.00000000</i>
  <i name="POTIM">      0.20000000</i>
  <i type="string" name="LREAL">Auto</i>
  <i type="logical" name="LPLANE"> T  </i>
  <i type="int" name="ISMEAR">     0</i>
  <i name="SIGMA">      0.03000000</i>
  <i type="int" name="LMAXMIX">     4</i>
  <i type="logical" name="LWAVE"> F  </i>
  <i type="logical" name="LCHARG"> F  </i>
  <i type="logical" name="LASPH"> T  </i>
  <i type="string" name="GGA">PE</i>
  <i type="int" name="IVDW">    12</i>
 </incar>
 <primitive_cell>
  <structure name="primitive_cell" >
   <crystal>
    <varray name="basis" >
     <v>       9.64687458       0.00000000       0.00000000 </v>
     <v>       0.00000000       9.64687458       0.00000000 </v>
     <v>       0.00000000       0.00000000       9.64687458 </v>
    </varray>
    <i name="volume">    897.75926744 </i>
    <varray name="rec_basis" >
     <v>       0.10366052       0.00000000       0.00000000 </v>
     <v>       0.00000000       0.10366052       0.00000000 </v>
     <v>       0.00000000       0.00000000       0.10366052 </v>
    </varray>
   </crystal>
   <varray name="positions" >
    <v>       0.97302705       0.15596253       0.22303558 </v>
    <v>       0.97516185       0.66812275       0.70448764 </v>
    <v>       0.01806684       0.18466526       0.79401090 </v>
    <v>       0.02149785       0.70011321       0.27212108 </v>
    <v>       0.21160559       0.19834181       0.98832891 </v>
    <v>       0.18658901       0.84720909       0.03779519 </v>
    <v>       0.79199808       0.21278848       0.01951447 </v>
    <v>       0.83853189       0.82476091       0.96047561 </v>
    <v>       0.33753457       0.96019919       0.32820188 </v>
    <v>       0.30858819       0.04519018       0.67210464 </v>
    <v>       0.72371230       0.98360216       0.69159993 </v>
    <v>       0.67880392       0.00721265       0.29634874 </v>
    <v>       0.20202380       0.70671221       0.47839916 </v>
    <v>       0.16740867       0.33224325       0.53487872 </v>
    <v>       0.78462059       0.71102577       0.51041517 </v>
    <v>       0.66312629       0.21158665       0.47845570 </v>
    <v>       0.28860593       0.49005946       0.82863139 </v>
    <v>       0.27685288       0.51037690       0.21489765 </v>
    <v>       0.81236765       0.45682780       0.31752989 </v>
    <v>       0.67990036       0.54651495       0.84664612 </v>
    <v>       0.47566989       0.29445052       0.79280149 </v>
    <v>       0.47937646       0.69004265       0.16103605 </v>
    <v>       0.53056850       0.31560991       0.18268617 </v>
    <v>       0.52097448       0.79495543       0.68814926 </v>
    <v>       0.49678417       0.50017189       0.50212957 </v>
    <v>       0.50409720       0.99705194       0.99191021 </v>
    <v>       0.98842118       0.49874484       0.00477554 </v>
    <v>       0.00621433       0.00229384       0.49896446 </v>
    <v>       0.11292802       0.88078248       0.63620525 </v>
    <v>       0.14943922       0.11764859       0.39199185 </v>
    <v>       0.88791178       0.88685497       0.36373533 </v>
    <v>       0.88072402       0.14237747       0.59904208 </v>
    <v>       0.84988233       0.61344748       0.11749109 </v>
    <v>       0.87975653       0.38609467       0.86191059 </v>
    <v>       0.11397957       0.63940484       0.90445571 </v>
    <v>       0.09848001       0.36982596       0.13432187 </v>
    <v>       0.62453622       0.12290419       0.86939107 </v>
    <v>       0.63313951       0.86892173       0.10110830 </v>
    <v>       0.38948190       0.11129548       0.13079731 </v>
    <v>       0.37195702       0.88621488       0.86875871 </v>
    <v>       0.61185883       0.61699683       0.36661211 </v>
    <v>       0.63168065       0.39898860       0.63138583 </v>
    <v>       0.36899646       0.61725468       0.62631509 </v>
    <v>       0.38069092       0.36305943       0.38816553 </v>
    <v>       0.75185086       0.75454611       0.74340847 </v>
    <v>       0.74526672       0.23572920       0.25204273 </v>
    <v>       0.25662442       0.74639386       0.24801848 </v>
    <v>       0.24309125       0.26216931       0.75854201 </v>
    <v>       0.00073139       0.03022887       0.99975772 </v>
    <v>       0.99904397       0.54256359       0.48292075 </v>
    <v>       0.52034419       0.99594306       0.51125097 </v>
    <v>       0.47764325       0.48562440       0.00141379 </v>
   </varray>
  </structure>
  <varray name="primitive_index" >
   <v type="int" >        1 </v>
   <v type="int" >        2 </v>
   <v type="int" >        3 </v>
   <v type="int" >        4 </v>
   <v type="int" >        5 </v>
   <v type="int" >        6 </v>
   <v type="int" >        7 </v>
   <v type="int" >        8 </v>
   <v type="int" >        9 </v>
   <v type="int" >       10 </v>
   <v type="int" >       11 </v>
   <v type="int" >       12 </v>
   <v type="int" >       13 </v>
   <v type="int" >       14 </v>
   <v type="int" >       15 </v>
   <v type="int" >       16 </v>
   <v type="int" >       17 </v>
   <v type="int" >       18 </v>
   <v type="int" >       19 </v>
   <v type="int" >       20 </v>
   <v type="int" >       21 </v>
   <v type="int" >       22 </v>
   <v type="int" >       23 </v>
   <v type="int" >       24 </v>
   <v type="int" >       25 </v>
   <v type="int" >       26 </v>
   <v type="int" >       27 </v>
   <v type="int" >       28 </v>
   <v type="int" >       29 </v>
   <v type="int" >       30 </v>
   <v type="int" >       31 </v>
   <v type="int" >       32 </v>
   <v type="int" >       33 </v>
   <v type="int" >       34 </v>
   <v type="int" >       35 </v>
   <v type="int" >       36 </v>
   <v type="int" >       37 </v>
   <v type="int" >       38 </v>
   <v type="int" >       39 </v>
   <v type="int" >       40 </v>
   <v type="int" >       41 </v>
   <v type="int" >       42 </v>
   <v type="int" >       43 </v>
   <v type="int" >       44 </v>
   <v type="int" >       45 </v>
   <v type="int" >       46 </v>
   <v type="int" >       47 </v>
   <v type="int" >       48 </v>
   <v type="int" >       49 </v>
   <v type="int" >       50 </v>
   <v type="int" >       51 </v>
   <v type="int" >       52 </v>
  </varray>
 </primitive_cell>
 <kpoints>
  <generation param="Monkhorst-Pack">
   <v type="int" name="divisions">       2        2        2 </v>
   <v name="usershift">      0.00000000       0.00000000       0.00000000 </v>
   <v name="genvec1">      0.50000000       0.00000000       0.00000000 </v>
   <v name="genvec2">      0.00000000       0.50000000       0.00000000 </v>
   <v name="genvec3">      0.00000000       0.00000000       0.50000000 </v>
   <v name="shift">      0.50000000       0.50000000       0.50000000 </v>
  </generation>
  <varray name="kpointlist" >
   <v>       0.25000000       0.25000000       0.25000000 </v>
   <v>      -0.25000000       0.25000000       0.25000000 </v>
   <v>      -0.25000000      -0.25000000       0.25000000 </v>
   <v>       0.25000000      -0.25000000       0.25000000 </v>
  </varray>
  <varray name="weights" >
   <v>       0.25000000 </v>
   <v>       0.25000000 </v>
   <v>       0.25000000 </v>
   <v>       0.25000000 </v>
  </varray>
 </kpoints>
 <parameters>
  <separator name="general" >
   <i type="string" name="SYSTEM">unknown system</i>
   <i type="logical" name="LCOMPAT"> F  </i>
  </separator>
  <separator name="electronic" >
   <i type="string" name="PREC">accu</i>
   <i name="ENMAX">    520.00000000</i>
   <i name="ENAUG">   1041.69900000</i>
   <i name="EDIFF">      0.00000100</i>
   <i type="int" name="IALGO">    68</i>
   <i type="int" name="IWAVPR">    11</i>
   <i type="int" name="NBANDS">   176</i>
   <i type="int" name="NBANDSLOW">    -1</i>
   <i type="int" name="NBANDSHIGH">    -1</i>
   <i name="NELECT">    240.00000000</i>
   <i type="int" name="TURBO">     0</i>
   <i type="int" name="IRESTART">     0</i>
   <i type="int" name="NREBOOT">     0</i>
   <i type="int" name="NMIN">     0</i>
   <i name="EREF">      0.00000000</i>
   <separator name="electronic smearing" >
    <i type="int" name="ISMEAR">     0</i>
    <i name="SIGMA">      0.03000000</i>
    <i name="KSPACING">      0.50000000</i>
    <i type="logical" name="KGAMMA"> T  </i>
    <i type="logical" name="KBLOWUP"> T  </i>
   </separator>
   <separator name="electronic projectors" >
    <i type="logical" name="LREAL"> T  </i>
    <v name="ROPT">     -0.00025000     -0.00025000     -0.00025000     -0.00025000</v>
    <i type="int" name="LMAXPAW">  -100</i>
    <i type="int" name="LMAXMIX">     4</i>
    <i type="logical" name="NLSPLINE"> F  </i>
   </separator>
   <separator name="electronic startup" >
    <i type="int" name="ISTART">     0</i>
    <i type="int" name="ICHARG">     2</i>
    <i type="int" name="INIWAV">     1</i>
   </separator>
   <separator name="electronic spin" >
    <i type="int" name="ISPIN">     2</i>
    <i type="logical" name="LNONCOLLINEAR"> F  </i>
    <v name="MAGMOM">      1.00000000      1.00000000      1.00000000      1.00000000      1.00000000      1.00000000      1.00000000      1.00000000      1.00000000      1.00000000      1.00000000      1.00000000      1.00000000      1.00000000      1.00000000      1.00000000      1.00000000      1.00000000      1.00000000      1.00000000
      1.00000000      1.00000000      1.00000000      1.00000000      1.00000000      1.00000000      1.00000000      1.00000000      1.00000000      1.00000000      1.00000000      1.00000000      1.00000000      1.00000000      1.00000000      1.00000000      1.00000000      1.00000000      1.00000000      1.00000000
      1.00000000      1.00000000      1.00000000      1.00000000      1.00000000      1.00000000      1.00000000      1.00000000      1.00000000      1.00000000      1.00000000      1.00000000</v>
    <i name="NUPDOWN">     -1.00000000</i>
    <i type="logical" name="LSORBIT"> F  </i>
    <v name="SAXIS">      0.00000000      0.00000000      1.00000000</v>
    <i type="logical" name="LSPIRAL"> F  </i>
    <v name="QSPIRAL">      0.00000000      0.00000000      0.00000000</v>
    <i type="logical" name="LZEROZ"> F  </i>
   </separator>
   <separator name="electronic exchange-correlation" >
    <i type="logical" name="LASPH"> T  </i>
    <i type="logical" name="LMETAGGA"> F  </i>
   </separator>
   <separator name="electronic convergence" >
    <i type="int" name="NELM">   100</i>
    <i type="int" name="NELMDL">   -10</i>
    <i type="int" name="NELMIN">     2</i>
    <i name="ENINI">    520.00000000</i>
    <separator name="electronic convergence detail" >
     <i type="logical" name="LDIAG"> T  </i>
     <i type="logical" name="LSUBROT"> F  </i>
     <i name="WEIMIN">      0.00100000</i>
     <i name="EBREAK">      0.00000000</i>
     <i name="DEPER">      0.30000000</i>
     <i type="int" name="NRMM">     4</i>
     <i name="TIME">      0.40000000</i>
    </separator>
   </separator>
   <separator name="electronic mixer" >
    <i name="AMIX">      0.40000000</i>
    <i name="BMIX">      1.00000000</i>
    <i name="AMIN">      0.10000000</i>
    <i name="AMIX_MAG">      1.60000000</i>
    <i name="BMIX_MAG">      1.00000000</i>
    <separator name="electronic mixer details" >
     <i type="int" name="IMIX">     4</i>
     <i type="logical" name="MIXFIRST"> F  </i>
     <i type="int" name="MAXMIX">   -45</i>
     <i name="WC">    100.00000000</i>
     <i type="int" name="INIMIX">     1</i>
     <i type="int" name="MIXPRE">     1</i>
     <i type="int" name="MREMOVE">     5</i>
    </separator>
   </separator>
   <separator name="electronic dipolcorrection" >
    <i type="logical" name="LDIPOL"> F  </i>
    <i type="logical" name="LMONO"> F  </i>
    <i type="int" name="IDIPOL">     0</i>
    <i name="EPSILON">      1.00000000</i>
    <v name="DIPOL">   -100.00000000   -100.00000000   -100.00000000</v>
    <i name="EFIELD">      0.00000000</i>
   </separator>
  </separator>
  <separator name="grids" >
   <i type="int" name="NGX">    72</i>
   <i type="int" name="NGY">    72</i>
   <i type="int" name="NGZ">    72</i>
   <i type="int" name="NGXF">   144</i>
   <i type="int" name="NGYF">   144</i>
   <i type="int" name="NGZF">   144</i>
   <i type="logical" name="ADDGRID"> F  </i>
  </separator>
  <separator name="ionic" >
   <i type="int" name="NSW">  1000</i>
   <i type="int" name="IBRION">     2</i>
   <i type="int" name="MDALGO">     0</i>
   <i type="int" name="ISIF">     2</i>
   <i name="PSTRESS">      0.00000000</i>
   <i name="EDIFFG">     -0.00100000</i>
   <i type="int" name="NFREE">     1</i>
   <i name="POTIM">      0.20000000</i>
   <i name="SMASS">     -3.00000000</i>
   <i name="SCALEE">      1.00000000</i>
  </separator>
  <separator name="ionic md" >
   <i name="TEBEG">      0.00010000</i>
   <i name="TEEND">      0.00010000</i>
   <i type="int" name="NBLOCK">     1</i>
   <i type="int" name="KBLOCK">  1000</i>
   <i type="int" name="NPACO">   256</i>
   <i name="APACO">     10.00000000</i>
  </separator>
  <separator name="symmetry" >
   <i type="int" name="ISYM">     2</i>
   <i name="SYMPREC">      0.00001000</i>
  </separator>
  <separator name="dos" >
   <i type="int" name="LORBIT">     0</i>
   <v name="RWIGS">     -1.00000000     -1.00000000     -1.00000000     -1.00000000</v>
   <i type="int" name="NEDOS">   301</i>
   <i name="EMIN">     10.00000000</i>
   <i name="EMAX">    -10.00000000</i>
   <i name="EFERMI">      0.00000000</i>
  </separator>
  <separator name="writing" >
   <i type="int" name="NWRITE">     2</i>
   <i type="logical" name="LWAVE"> F  </i>
   <i type="logical" name="LDOWNSAMPLE"> F  </i>
   <i type="logical" name="LCHARG"> F  </i>
   <i type="logical" name="LPARD"> F  </i>
   <i type="logical" name="LVTOT"> F  </i>
   <i type="logical" name="LVHAR"> F  </i>
   <i type="logical" name="LELF"> F  </i>
   <i type="logical" name="LOPTICS"> F  </i>
   <v name="STM">      0.00000000      0.00000000      0.00000000      0.00000000      0.00000000      0.00000000      0.00000000</v>
  </separator>
  <separator name="performance" >
   <i type="int" name="NPAR">     4</i>
   <i type="int" name="NSIM">     4</i>
   <i type="int" name="NBLK">    -1</i>
   <i type="logical" name="LPLANE"> T  </i>
   <i type="logical" name="LSCALAPACK"> T  </i>
   <i type="logical" name="LSCAAWARE"> F  </i>
   <i type="logical" name="LSCALU"> F  </i>
   <i type="logical" name="LASYNC"> F  </i>
   <i type="logical" name="LORBITALREAL"> F  </i>
  </separator>
  <separator name="miscellaneous" >
   <i type="int" name="IDIOT">     3</i>
   <i type="int" name="PHON_NSTRUCT">    -1</i>
   <i type="logical" name="LMUSIC"> F  </i>
   <v name="POMASS">      7.01000000     30.97400000     32.06600000     35.45300000</v>
   <v name="DARWINR">      0.00000000      0.00000000      0.00000000      0.00000000</v>
   <v name="DARWINV">      1.00000000      1.00000000      1.00000000      1.00000000</v>
   <i type="logical" name="LCORR"> T  </i>
  </separator>
  <i type="logical" name="GGA_COMPAT"> T  </i>
  <i type="logical" name="LBERRY"> F  </i>
  <i type="int" name="ICORELEVEL">     0</i>
  <i type="logical" name="LDAU"> F  </i>
  <i type="int" name="I_CONSTRAINED_M">     0</i>
  <separator name="electronic exchange-correlation" >
   <i type="string" name="GGA">PE</i>
   <i type="int" name="VOSKOWN">     0</i>
   <i type="logical" name="LHFCALC"> F  </i>
   <i type="string" name="PRECFOCK"></i>
   <i type="logical" name="LSYMGRAD"> F  </i>
   <i type="logical" name="LHFONE"> F  </i>
   <i type="logical" name="LRHFCALC"> F  </i>
   <i type="logical" name="LTHOMAS"> F  </i>
   <i type="logical" name="LMODELHF"> F  </i>
   <i type="logical" name="LFOCKACE"> F  </i>
   <i name="ENCUT4O">     -1.00000000</i>
   <i type="int" name="EXXOEP">     0</i>
   <i type="int" name="FOURORBIT">     0</i>
   <i name="AEXX">      0.00000000</i>
   <i name="HFALPHA">      0.00000000</i>
   <i name="MCALPHA">      0.00000000</i>
   <i name="ALDAX">      1.00000000</i>
   <i name="AGGAX">      1.00000000</i>
   <i name="ALDAC">      1.00000000</i>
   <i name="AGGAC">      1.00000000</i>
   <i type="int" name="NKREDX">     1</i>
   <i type="int" name="NKREDY">     1</i>
   <i type="int" name="NKREDZ">     1</i>
   <i type="logical" name="SHIFTRED"> F  </i>
   <i type="logical" name="ODDONLY"> F  </i>
   <i type="logical" name="EVENONLY"> F  </i>
   <i type="int" name="LMAXFOCK">     0</i>
   <i type="int" name="NMAXFOCKAE">     0</i>
   <i type="logical" name="LFOCKAEDFT"> F  </i>
   <i name="HFSCREEN">      0.00000000</i>
   <i name="HFSCREENC">      0.00000000</i>
   <i type="int" name="NBANDSGWLOW">     0</i>
  </separator>
  <separator name="vdW DFT" >
   <i type="logical" name="LUSE_VDW"> F  </i>
   <i type="int" name="IVDW_NL">     1</i>
   <i type="logical" name="LSPIN_VDW"> F  </i>
   <i name="Zab_VDW">     -0.84910000</i>
   <i name="PARAM1">      0.12340000</i>
   <i name="PARAM2">      1.00000000</i>
   <i name="PARAM3">      0.00000000</i>
  </separator>
  <separator name="model GW" >
   <i type="int" name="MODEL_GW">     0</i>
   <i name="MODEL_EPS0">     10.35876078</i>
   <i name="MODEL_ALPHA">      1.00000000</i>
  </separator>
  <separator name="linear response parameters" >
   <i type="logical" name="LEPSILON"> F  </i>
   <i type="logical" name="LRPA"> F  </i>
   <i type="logical" name="LNABLA"> F  </i>
   <i type="logical" name="LVEL"> F  </i>
   <i name="CSHIFT">      0.10000000</i>
   <i name="OMEGAMAX">     -1.00000000</i>
   <i name="DEG_THRESHOLD">      0.00200000</i>
   <i name="RTIME">     -0.10000000</i>
   <i name="WPLASMAI">      0.00000000</i>
   <v name="DFIELD">      0.00000000      0.00000000      0.00000000</v>
   <v name="WPLASMA">      0.00000000      0.00000000      0.00000000      0.00000000      0.00000000      0.00000000      0.00000000      0.00000000      0.00000000</v>
  </separator>
  <separator name="orbital magnetization" >
   <i type="logical" name="NUCIND"> F  </i>
   <v name="MAGPOS">      0.00000000      0.00000000      0.00000000</v>
   <i type="logical" name="LNICSALL"> T  </i>
   <i type="logical" name="ORBITALMAG"> F  </i>
   <i type="logical" name="LMAGBLOCH"> F  </i>
   <i type="logical" name="LCHIMAG"> F  </i>
   <i type="logical" name="LGAUGE"> T  </i>
   <i type="int" name="MAGATOM">     0</i>
   <v name="MAGDIPOL">      0.00000000      0.00000000      0.00000000</v>
   <v name="AVECCONST">      0.00000000      0.00000000      0.00000000</v>
  </separator>
  <separator name="response functions" >
   <i type="logical" name="LALL_IN_ONE"> F  </i>
   <i type="int" name="IALL_IN_ONE">    -1</i>
   <i type="int" name="NBANDS_WAVE">    -1</i>
   <i type="logical" name="LFINITE_TEMPERATURE"> F  </i>
   <i type="logical" name="LADDER"> F  </i>
   <i type="logical" name="LRPAFORCE"> F  </i>
   <i type="logical" name="LFXC"> F  </i>
   <i type="logical" name="LHARTREE"> T  </i>
   <i type="int" name="IBSE">     0</i>
   <v type="int" name="KPOINT">    -1     0     0     0</v>
   <i type="logical" name="LTCTC"> F  </i>
   <i type="logical" name="LTCTE"> F  </i>
   <i type="logical" name="LTETE"> F  </i>
   <i type="logical" name="LTRIPLET"> F  </i>
   <i type="logical" name="LFXCEPS"> F  </i>
   <i type="logical" name="LFXHEG"> F  </i>
   <i type="int" name="NATURALO">     2</i>
   <i type="logical" name="LHOLEGF"> F  </i>
   <i type="logical" name="L2ORDER"> F  </i>
   <i type="logical" name="LDMP1"> F  </i>
   <i type="logical" name="LMP2LT"> F  </i>
   <i type="logical" name="LSMP2LT"> F  </i>
   <i type="logical" name="LGWLF"> F  </i>
   <i name="ENCUTGW">     -1.60000002</i>
   <i name="ENCUTGWSOFT">     -1.60000002</i>
   <i name="ENCUTLF">     -1.00000000</i>
   <i type="logical" name="LESF_SPLINES"> F  </i>
   <i type="int" name="LMAXMP2">    -1</i>
   <i name="SCISSOR">      0.00000000</i>
   <i type="int" name="NOMEGA">     0</i>
   <i type="int" name="NOMEGAR">     0</i>
   <i type="int" name="NBANDSGW">    -1</i>
   <i type="int" name="NBANDSO">    -1</i>
   <i type="int" name="NBANDSV">    -1</i>
   <i type="int" name="NELMGW">     1</i>
   <i type="int" name="NELMHF">     1</i>
   <i type="int" name="DIM">     3</i>
   <i type="int" name="IESPILON">     4</i>
   <i type="int" name="ANTIRES">     0</i>
   <i name="OMEGAMAX">    -30.00000000</i>
   <i name="OMEGAMIN">    -30.00000000</i>
   <i name="OMEGATL">   -200.00000000</i>
   <i type="int" name="OMEGAGRID">     0</i>
   <i name="CSHIFT">     -0.10000000</i>
   <i type="logical" name="LSELFENERGY"> F  </i>
   <i type="logical" name="LSPECTRAL"> F  </i>
   <i type="logical" name="LSPECTRALGW"> F  </i>
   <i type="logical" name="LSINGLES"> F  </i>
   <i type="logical" name="LFERMIGW"> F  </i>
   <i type="logical" name="ODDONLYGW"> F  </i>
   <i type="logical" name="EVENONLYGW"> F  </i>
   <i type="int" name="NKREDLFX">     1</i>
   <i type="int" name="NKREDLFY">     1</i>
   <i type="int" name="NKREDLFZ">     1</i>
   <i type="int" name="MAXMEM">  2800</i>
   <i type="int" name="TELESCOPE">     0</i>
   <i type="int" name="NTAUPAR">    -1</i>
   <i type="int" name="NOMEGAPAR">    -1</i>
   <i name="DAMP_NEWTON">      0.80000001</i>
   <i name="LAMBDA">      1.00000000</i>
  </separator>
  <separator name="External order field" >
   <i name="OFIELD_KAPPA">      0.00000000</i>
   <v name="OFIELD_K">      0.00000000      0.00000000      0.00000000</v>
   <i name="OFIELD_Q6_NEAR">      0.00000000</i>
   <i name="OFIELD_Q6_FAR">      0.00000000</i>
   <i name="OFIELD_A">      0.00000000</i>
  </separator>
  <separator name="optional k-points parameters" >
   <i type="int" name="KPOINTS_OPT_MODE">     1</i>
   <i type="logical" name="LKPOINTS_OPT"> F  </i>
  </separator>
 </parameters>
 <atominfo>
  <atoms>      52 </atoms>
  <types>       4 </types>
  <array name="atoms" >
   <dimension dim="1">ion</dimension>
   <field type="string">element</field>
   <field type="int">atomtype</field>
   <set>
    <rc><c>Li</c><c>   1</c></rc>
    <rc><c>Li</c><c>   1</c></rc>
    <rc><c>Li</c><c>   1</c></rc>
    <rc><c>Li</c><c>   1</c></rc>
    <rc><c>Li</c><c>   1</c></rc>
    <rc><c>Li</c><c>   1</c></rc>
    <rc><c>Li</c><c>   1</c></rc>
    <rc><c>Li</c><c>   1</c></rc>
    <rc><c>Li</c><c>   1</c></rc>
    <rc><c>Li</c><c>   1</c></rc>
    <rc><c>Li</c><c>   1</c></rc>
    <rc><c>Li</c><c>   1</c></rc>
    <rc><c>Li</c><c>   1</c></rc>
    <rc><c>Li</c><c>   1</c></rc>
    <rc><c>Li</c><c>   1</c></rc>
    <rc><c>Li</c><c>   1</c></rc>
    <rc><c>Li</c><c>   1</c></rc>
    <rc><c>Li</c><c>   1</c></rc>
    <rc><c>Li</c><c>   1</c></rc>
    <rc><c>Li</c><c>   1</c></rc>
    <rc><c>Li</c><c>   1</c></rc>
    <rc><c>Li</c><c>   1</c></rc>
    <rc><c>Li</c><c>   1</c></rc>
    <rc><c>Li</c><c>   1</c></rc>
    <rc><c>P </c><c>   2</c></rc>
    <rc><c>P </c><c>   2</c></rc>
    <rc><c>P </c><c>   2</c></rc>
    <rc><c>P </c><c>   2</c></rc>
    <rc><c>S </c><c>   3</c></rc>
    <rc><c>S </c><c>   3</c></rc>
    <rc><c>S </c><c>   3</c></rc>
    <rc><c>S </c><c>   3</c></rc>
    <rc><c>S </c><c>   3</c></rc>
    <rc><c>S </c><c>   3</c></rc>
    <rc><c>S </c><c>   3</c></rc>
    <rc><c>S </c><c>   3</c></rc>
    <rc><c>S </c><c>   3</c></rc>
    <rc><c>S </c><c>   3</c></rc>
    <rc><c>S </c><c>   3</c></rc>
    <rc><c>S </c><c>   3</c></rc>
    <rc><c>S </c><c>   3</c></rc>
    <rc><c>S </c><c>   3</c></rc>
    <rc><c>S </c><c>   3</c></rc>
    <rc><c>S </c><c>   3</c></rc>
    <rc><c>S </c><c>   3</c></rc>
    <rc><c>S </c><c>   3</c></rc>
    <rc><c>S </c><c>   3</c></rc>
    <rc><c>S </c><c>   3</c></rc>
    <rc><c>Cl</c><c>   4</c></rc>
    <rc><c>Cl</c><c>   4</c></rc>
    <rc><c>Cl</c><c>   4</c></rc>
    <rc><c>Cl</c><c>   4</c></rc>
   </set>
  </array>
  <array name="atomtypes" >
   <dimension dim="1">type</dimension>
   <field type="int">atomspertype</field>
   <field type="string">element</field>
   <field>mass</field>
   <field>valence</field>
   <field type="string">pseudopotential</field>
   <set>
    <rc><c>  24</c><c>Li</c><c>      7.01000000</c><c>      3.00000000</c><c>  PAW_PBE Li_sv_GW 25Mar2010            </c></rc>
    <rc><c>   4</c><c>P </c><c>     30.97400000</c><c>      5.00000000</c><c>  PAW_PBE P_GW 19Mar2012                </c></rc>
    <rc><c>  20</c><c>S </c><c>     32.06600000</c><c>      6.00000000</c><c>  PAW_PBE S_GW 19Mar2012                </c></rc>
    <rc><c>   4</c><c>Cl</c><c>     35.45300000</c><c>      7.00000000</c><c>  PAW_PBE Cl_GW 19Mar2012               </c></rc>
   </set>
  </array>
 </atominfo>
 <structure name="initialpos" >
  <crystal>
   <varray name="basis" >
    <v>       9.64687458       0.00000000       0.00000000 </v>
    <v>       0.00000000       9.64687458       0.00000000 </v>
    <v>       0.00000000       0.00000000       9.64687458 </v>
   </varray>
   <i name="volume">    897.75926744 </i>
   <varray name="rec_basis" >
    <v>       0.10366052       0.00000000       0.00000000 </v>
    <v>       0.00000000       0.10366052       0.00000000 </v>
    <v>       0.00000000       0.00000000       0.10366052 </v>
   </varray>
  </crystal>
  <varray name="positions" >
   <v>       0.97302705       0.15596253       0.22303558 </v>
   <v>       0.97516185       0.66812275       0.70448764 </v>
   <v>       0.01806684       0.18466526       0.79401090 </v>
   <v>       0.02149785       0.70011321       0.27212108 </v>
   <v>       0.21160559       0.19834181       0.98832891 </v>
   <v>       0.18658901       0.84720909       0.03779519 </v>
   <v>       0.79199808       0.21278848       0.01951447 </v>
   <v>       0.83853189       0.82476091       0.96047561 </v>
   <v>       0.33753457       0.96019919       0.32820188 </v>
   <v>       0.30858819       0.04519018       0.67210464 </v>
   <v>       0.72371230       0.98360216       0.69159993 </v>
   <v>       0.67880392       0.00721265       0.29634874 </v>
   <v>       0.20202380       0.70671221       0.47839916 </v>
   <v>       0.16740867       0.33224325       0.53487872 </v>
   <v>       0.78462059       0.71102577       0.51041517 </v>
   <v>       0.66312629       0.21158665       0.47845570 </v>
   <v>       0.28860593       0.49005946       0.82863139 </v>
   <v>       0.27685288       0.51037690       0.21489765 </v>
   <v>       0.81236765       0.45682780       0.31752989 </v>
   <v>       0.67990036       0.54651495       0.84664612 </v>
   <v>       0.47566989       0.29445052       0.79280149 </v>
   <v>       0.47937646       0.69004265       0.16103605 </v>
   <v>       0.53056850       0.31560991       0.18268617 </v>
   <v>       0.52097448       0.79495543       0.68814926 </v>
   <v>       0.49678417       0.50017189       0.50212957 </v>
   <v>       0.50409720       0.99705194       0.99191021 </v>
   <v>       0.98842118       0.49874484       0.00477554 </v>
   <v>       0.00621433       0.00229384       0.49896446 </v>
   <v>       0.11292802       0.88078248       0.63620525 </v>
   <v>       0.14943922       0.11764859       0.39199185 </v>
   <v>       0.88791178       0.88685497       0.36373533 </v>
   <v>       0.88072402       0.14237747       0.59904208 </v>
   <v>       0.84988233       0.61344748       0.11749109 </v>
   <v>       0.87975653       0.38609467       0.86191059 </v>
   <v>       0.11397957       0.63940484       0.90445571 </v>
   <v>       0.09848001       0.36982596       0.13432187 </v>
   <v>       0.62453622       0.12290419       0.86939107 </v>
   <v>       0.63313951       0.86892173       0.10110830 </v>
   <v>       0.38948190       0.11129548       0.13079731 </v>
   <v>       0.37195702       0.88621488       0.86875871 </v>
   <v>       0.61185883       0.61699683       0.36661211 </v>
   <v>       0.63168065       0.39898860       0.63138583 </v>
   <v>       0.36899646       0.61725468       0.62631509 </v>
   <v>       0.38069092       0.36305943       0.38816553 </v>
   <v>       0.75185086       0.75454611       0.74340847 </v>
   <v>       0.74526672       0.23572920       0.25204273 </v>
   <v>       0.25662442       0.74639386       0.24801848 </v>
   <v>       0.24309125       0.26216931       0.75854201 </v>
   <v>       0.00073139       0.03022887       0.99975772 </v>
   <v>       0.99904397       0.54256359       0.48292075 </v>
   <v>       0.52034419       0.99594306       0.51125097 </v>
   <v>       0.47764325       0.48562440       0.00141379 </v>
  </varray>
 </structure>
 <calculation>
  <scstep>
   <time name="dav">    2.33    2.39</time>
   <time name="total">    2.81    2.92</time>
   <energy>
    <i name="alphaZ">    302.37226562 </i>
    <i name="ewald">  -8851.86407579 </i>
    <i name="hartreedc">  -2089.03901434 </i>
    <i name="XCdc">    534.42755334 </i>
    <i name="pawpsdc">   8141.38806575 </i>
    <i name="pawaedc">  -8271.61346273 </i>
    <i name="eentropy">     -0.00817567 </i>
    <i name="bandstr">   -877.77827755 </i>
    <i name="atom">  12703.13999606 </i>
    <i name="e_fr_energy">   1591.02487469 </i>
    <i name="e_wo_entrp">   1591.03305036 </i>
    <i name="e_0_energy">   1591.02896252 </i>
   </energy>
  </scstep>
  <scstep>
   <time name="dav">    2.65    2.67</time>
   <time name="total">    2.65    2.67</time>
   <energy>
    <i name="e_fr_energy">    -57.14772445 </i>
    <i name="e_wo_entrp">    -57.14772445 </i>
    <i name="e_0_energy">    -57.14772445 </i>
   </energy>
  </scstep>
  <scstep>
   <time name="dav">    2.63    2.66</time>
   <time name="total">    2.63    2.66</time>
   <energy>
    <i name="e_fr_energy">   -228.15043970 </i>
    <i name="e_wo_entrp">   -228.15043970 </i>
    <i name="e_0_energy">   -228.15043970 </i>
   </energy>
  </scstep>
  <scstep>
   <time name="dav">    3.19    3.22</time>
   <time name="total">    3.19    3.22</time>
   <energy>
    <i name="e_fr_energy">   -241.69986121 </i>
    <i name="e_wo_entrp">   -241.69986121 </i>
    <i name="e_0_energy">   -241.69986121 </i>
   </energy>
  </scstep>
  <scstep>
   <time name="dav">    2.96    2.98</time>
   <time name="total">    2.96    2.98</time>
   <energy>
    <i name="e_fr_energy">   -241.89983661 </i>
    <i name="e_wo_entrp">   -241.89983661 </i>
    <i name="e_0_energy">   -241.89983661 </i>
   </energy>
  </scstep>
  <scstep>
   <time name="dav">    3.10    3.13</time>
   <time name="total">    3.10    3.13</time>
   <energy>
    <i name="e_fr_energy">   -241.91195933 </i>
    <i name="e_wo_entrp">   -241.91195933 </i>
    <i name="e_0_energy">   -241.91195933 </i>
   </energy>
  </scstep>
  <scstep>
   <time name="dav">    3.04    3.08</time>
   <time name="total">    3.04    3.08</time>
   <energy>
    <i name="e_fr_energy">   -241.91233970 </i>
    <i name="e_wo_entrp">   -241.91233970 </i>
    <i name="e_0_energy">   -241.91233970 </i>
   </energy>
  </scstep>
  <scstep>
   <time name="dav">    3.06    3.09</time>
   <time name="total">    3.06    3.09</time>
   <energy>
    <i name="e_fr_energy">   -241.91236175 </i>
    <i name="e_wo_entrp">   -241.91236175 </i>
    <i name="e_0_energy">   -241.91236175 </i>
   </energy>
  </scstep>
  <scstep>
   <time name="dav">    2.98    3.00</time>
   <time name="total">    2.98    3.00</time>
   <energy>
    <i name="e_fr_energy">   -241.91236317 </i>
    <i name="e_wo_entrp">   -241.91236317 </i>
    <i name="e_0_energy">   -241.91236317 </i>
   </energy>
  </scstep>
  <scstep>
   <time name="dav">    1.99    2.01</time>
   <time name="total">    2.06    2.09</time>
   <energy>
    <i name="e_fr_energy">   -241.91236323 </i>
    <i name="e_wo_entrp">   -241.91236323 </i>
    <i name="e_0_energy">   -241.91236323 </i>
   </energy>
  </scstep>
  <scstep>
   <time name="diag">    0.37    0.37</time>
   <time name="diis">    1.16    1.17</time>
   <time name="orth">    0.07    0.07</time>
   <time name="total">    2.12    2.21</time>
   <energy>
    <i name="e_fr_energy">   -236.48746749 </i>
    <i name="e_wo_entrp">   -236.48746749 </i>
    <i name="e_0_energy">   -236.48746749 </i>
   </energy>
  </scstep>
  <scstep>
   <time name="diag">    0.36    0.36</time>
   <time name="diis">    1.22    1.23</time>
   <time name="orth">    0.07    0.07</time>
   <time name="total">    2.17    2.18</time>
   <energy>
    <i name="e_fr_energy">   -256.02876619 </i>
    <i name="e_wo_entrp">   -256.02876619 </i>
    <i name="e_0_energy">   -256.02876619 </i>
   </energy>
  </scstep>
  <scstep>
   <time name="diag">    0.36    0.36</time>
   <time name="diis">    1.20    1.21</time>
   <time name="orth">    0.07    0.07</time>
   <time name="total">    2.15    2.17</time>
   <energy>
    <i name="e_fr_energy">   -258.51407653 </i>
    <i name="e_wo_entrp">   -258.51407653 </i>
    <i name="e_0_energy">   -258.51407653 </i>
   </energy>
  </scstep>
  <scstep>
   <time name="diag">    0.36    0.36</time>
   <time name="diis">    1.56    1.58</time>
   <time name="orth">    0.07    0.07</time>
   <time name="total">    2.51    2.53</time>
   <energy>
    <i name="e_fr_energy">   -258.70988386 </i>
    <i name="e_wo_entrp">   -258.70988386 </i>
    <i name="e_0_energy">   -258.70988386 </i>
   </energy>
  </scstep>
  <scstep>
   <time name="diag">    0.36    0.36</time>
   <time name="diis">    1.27    1.29</time>
   <time name="orth">    0.07    0.07</time>
   <time name="total">    2.22    2.24</time>
   <energy>
    <i name="e_fr_energy">   -258.68261186 </i>
    <i name="e_wo_entrp">   -258.68261186 </i>
    <i name="e_0_energy">   -258.68261186 </i>
   </energy>
  </scstep>
  <scstep>
   <time name="diag">    0.36    0.36</time>
   <time name="diis">    1.28    1.30</time>
   <time name="orth">    0.07    0.07</time>
   <time name="total">    2.23    2.25</time>
   <energy>
    <i name="e_fr_energy">   -258.70183510 </i>
    <i name="e_wo_entrp">   -258.70183510 </i>
    <i name="e_0_energy">   -258.70183510 </i>
   </energy>
  </scstep>
  <scstep>
   <time name="diag">    0.36    0.36</time>
   <time name="diis">    1.43    1.45</time>
   <time name="orth">    0.07    0.07</time>
   <time name="total">    2.38    2.40</time>
   <energy>
    <i name="e_fr_energy">   -258.70767280 </i>
    <i name="e_wo_entrp">   -258.70767280 </i>
    <i name="e_0_energy">   -258.70767280 </i>
   </energy>
  </scstep>
  <scstep>
   <time name="diag">    0.36    0.36</time>
   <time name="diis">    1.41    1.43</time>
   <time name="orth">    0.07    0.07</time>
   <time name="total">    2.36    2.38</time>
   <energy>
    <i name="e_fr_energy">   -258.70882829 </i>
    <i name="e_wo_entrp">   -258.70882829 </i>
    <i name="e_0_energy">   -258.70882829 </i>
   </energy>
  </scstep>
  <scstep>
   <time name="diag">    0.36    0.36</time>
   <time name="diis">    1.62    1.64</time>
   <time name="orth">    0.07    0.07</time>
   <time name="total">    2.57    2.60</time>
   <energy>
    <i name="e_fr_energy">   -258.70926865 </i>
    <i name="e_wo_entrp">   -258.70926865 </i>
    <i name="e_0_energy">   -258.70926865 </i>
   </energy>
  </scstep>
  <scstep>
   <time name="diag">    0.35    0.36</time>
   <time name="diis">    1.59    1.61</time>
   <time name="orth">    0.07    0.07</time>
   <time name="total">    2.54    2.56</time>
   <energy>
    <i name="e_fr_energy">   -258.70935587 </i>
    <i name="e_wo_entrp">   -258.70935587 </i>
    <i name="e_0_energy">   -258.70935587 </i>
   </energy>
  </scstep>
  <scstep>
   <time name="diag">    0.35    0.36</time>
   <time name="diis">    1.44    1.45</time>
   <time name="orth">    0.07    0.07</time>
   <time name="total">    2.38    2.40</time>
   <energy>
    <i name="e_fr_energy">   -258.70937147 </i>
    <i name="e_wo_entrp">   -258.70937147 </i>
    <i name="e_0_energy">   -258.70937147 </i>
   </energy>
  </scstep>
  <scstep>
   <time name="diag">    0.36    0.36</time>
   <time name="diis">    1.58    1.59</time>
   <time name="orth">    0.07    0.07</time>
   <time name="total">    2.53    2.55</time>
   <energy>
    <i name="e_fr_energy">   -258.70937696 </i>
    <i name="e_wo_entrp">   -258.70937696 </i>
    <i name="e_0_energy">   -258.70937696 </i>
   </energy>
  </scstep>
  <scstep>
   <time name="diag">    0.36    0.36</time>
   <time name="diis">    1.24    1.25</time>
   <time name="orth">    0.07    0.07</time>
   <time name="total">    2.18    2.20</time>
   <energy>
    <i name="e_fr_energy">   -258.70937667 </i>
    <i name="e_wo_entrp">   -258.70937667 </i>
    <i name="e_0_energy">   -258.70937667 </i>
   </energy>
  </scstep>
  <scstep>
   <time name="diag">    0.36    0.36</time>
   <time name="diis">    0.94    0.95</time>
   <time name="orth">    0.07    0.07</time>
   <time name="total">    1.82    1.84</time>
   <energy>
    <i name="alphaZ">    302.37226562 </i>
    <i name="ewald">  -8851.86407579 </i>
    <i name="hartreedc">  -2185.32727412 </i>
    <i name="XCdc">    537.91612614 </i>
    <i name="pawpsdc">   9814.67486548 </i>
    <i name="pawaedc">  -9958.65462114 </i>
    <i name="eentropy">     -0.00000000 </i>
    <i name="bandstr">  -2620.96665829 </i>
    <i name="atom">  12703.13999606 </i>
    <i name="e_fr_energy">   -258.70937604 </i>
    <i name="e_wo_entrp">   -258.70937604 </i>
    <i name="e_0_energy">   -258.70937604 </i>
   </energy>
  </scstep>
  <structure>
   <crystal>
    <varray name="basis" >
     <v>       9.64687458       0.00000000       0.00000000 </v>
     <v>       0.00000000       9.64687458       0.00000000 </v>
     <v>       0.00000000       0.00000000       9.64687458 </v>
    </varray>
    <i name="volume">    897.75926744 </i>
    <varray name="rec_basis" >
     <v>       0.10366052       0.00000000       0.00000000 </v>
     <v>       0.00000000       0.10366052       0.00000000 </v>
     <v>       0.00000000       0.00000000       0.10366052 </v>
    </varray>
   </crystal>
   <varray name="positions" >
    <v>       0.97302705       0.15596253       0.22303558 </v>
    <v>       0.97516185       0.66812275       0.70448764 </v>
    <v>       0.01806684       0.18466526       0.79401090 </v>
    <v>       0.02149785       0.70011321       0.27212108 </v>
    <v>       0.21160559       0.19834181       0.98832891 </v>
    <v>       0.18658901       0.84720909       0.03779519 </v>
    <v>       0.79199808       0.21278848       0.01951447 </v>
    <v>       0.83853189       0.82476091       0.96047561 </v>
    <v>       0.33753457       0.96019919       0.32820188 </v>
    <v>       0.30858819       0.04519018       0.67210464 </v>
    <v>       0.72371230       0.98360216       0.69159993 </v>
    <v>       0.67880392       0.00721265       0.29634874 </v>
    <v>       0.20202380       0.70671221       0.47839916 </v>
    <v>       0.16740867       0.33224325       0.53487872 </v>
    <v>       0.78462059       0.71102577       0.51041517 </v>
    <v>       0.66312629       0.21158665       0.47845570 </v>
    <v>       0.28860593       0.49005946       0.82863139 </v>
    <v>       0.27685288       0.51037690       0.21489765 </v>
    <v>       0.81236765       0.45682780       0.31752989 </v>
    <v>       0.67990036       0.54651495       0.84664612 </v>
    <v>       0.47566989       0.29445052       0.79280149 </v>
    <v>       0.47937646       0.69004265       0.16103605 </v>
    <v>       0.53056850       0.31560991       0.18268617 </v>
    <v>       0.52097448       0.79495543       0.68814926 </v>
    <v>       0.49678417       0.50017189       0.50212957 </v>
    <v>       0.50409720       0.99705194       0.99191021 </v>
    <v>       0.98842118       0.49874484       0.00477554 </v>
    <v>       0.00621433       0.00229384       0.49896446 </v>
    <v>       0.11292802       0.88078248       0.63620525 </v>
    <v>       0.14943922       0.11764859       0.39199185 </v>
    <v>       0.88791178       0.88685497       0.36373533 </v>
    <v>       0.88072402       0.14237747       0.59904208 </v>
    <v>       0.84988233       0.61344748       0.11749109 </v>
    <v>       0.87975653       0.38609467       0.86191059 </v>
    <v>       0.11397957       0.63940484       0.90445571 </v>
    <v>       0.09848001       0.36982596       0.13432187 </v>
    <v>       0.62453622       0.12290419       0.86939107 </v>
    <v>       0.63313951       0.86892173       0.10110830 </v>
    <v>       0.38948190       0.11129548       0.13079731 </v>
    <v>       0.37195702       0.88621488       0.86875871 </v>
    <v>       0.61185883       0.61699683       0.36661211 </v>
    <v>       0.63168065       0.39898860       0.63138583 </v>
    <v>       0.36899646       0.61725468       0.62631509 </v>
    <v>       0.38069092       0.36305943       0.38816553 </v>
    <v>       0.75185086       0.75454611       0.74340847 </v>
    <v>       0.74526672       0.23572920       0.25204273 </v>
    <v>       0.25662442       0.74639386       0.24801848 </v>
    <v>       0.24309125       0.26216931       0.75854201 </v>
    <v>       0.00073139       0.03022887       0.99975772 </v>
    <v>       0.99904397       0.54256359       0.48292075 </v>
    <v>       0.52034419       0.99594306       0.51125097 </v>
    <v>       0.47764325       0.48562440       0.00141379 </v>
   </varray>
  </structure>
  <varray name="forces" >
   <v>       0.00019102      -0.00038198      -0.00010112 </v>
   <v>      -0.00045639      -0.00148931      -0.00018941 </v>
   <v>       0.00031378      -0.00066610      -0.00020272 </v>
   <v>      -0.00051778      -0.00024020       0.00025075 </v>
   <v>      -0.00038131       0.00013381       0.00004178 </v>
   <v>       0.00048091       0.00061432      -0.00047178 </v>
   <v>       0.00045951      -0.00007944      -0.00016159 </v>
   <v>       0.00053850      -0.00020312       0.00019836 </v>
   <v>       0.00016926       0.00040248      -0.00005865 </v>
   <v>       0.00003115      -0.00067401      -0.00055581 </v>
   <v>      -0.00077936       0.00020708       0.00066179 </v>
   <v>       0.00056435      -0.00060605       0.00035406 </v>
   <v>      -0.00101765       0.00061115       0.00027557 </v>
   <v>       0.00031602       0.00006432      -0.00014879 </v>
   <v>       0.00081875       0.00070290      -0.00032978 </v>
   <v>      -0.00156778      -0.00007389      -0.00041816 </v>
   <v>       0.00002099       0.00024227      -0.00018591 </v>
   <v>       0.00065344      -0.00050295       0.00058591 </v>
   <v>      -0.00039571       0.00037705       0.00045857 </v>
   <v>       0.00060907      -0.00032808       0.00092523 </v>
   <v>      -0.00011719       0.00055476       0.00033514 </v>
   <v>      -0.00000415      -0.00012636      -0.00005005 </v>
   <v>      -0.00092641       0.00008092      -0.00063580 </v>
   <v>       0.00028407       0.00065100       0.00016494 </v>
   <v>       0.00004283      -0.00191502      -0.00043504 </v>
   <v>       0.00247129      -0.00040446      -0.00025939 </v>
   <v>       0.00044471      -0.00094200       0.00101506 </v>
   <v>      -0.00095419       0.00043537      -0.00073878 </v>
   <v>       0.00141876      -0.00112531       0.00280631 </v>
   <v>       0.00235534       0.00011301      -0.00035229 </v>
   <v>      -0.00048595      -0.00118275      -0.00236629 </v>
   <v>      -0.00118225       0.00234067      -0.00042334 </v>
   <v>      -0.00315970      -0.00008048       0.00179578 </v>
   <v>      -0.00075346      -0.00144869      -0.00159843 </v>
   <v>       0.00215271       0.00289747      -0.00011915 </v>
   <v>      -0.00019302      -0.00117979       0.00144211 </v>
   <v>       0.00115002       0.00111925      -0.00190625 </v>
   <v>       0.00117685      -0.00061320      -0.00064635 </v>
   <v>      -0.00177734       0.00114782       0.00266555 </v>
   <v>      -0.00189229      -0.00150618      -0.00163799 </v>
   <v>       0.00061759       0.00180776      -0.00219279 </v>
   <v>       0.00190085       0.00033000       0.00138676 </v>
   <v>      -0.00218610       0.00126389       0.00202753 </v>
   <v>      -0.00073142      -0.00150056      -0.00050199 </v>
   <v>      -0.00010090       0.00008631       0.00099843 </v>
   <v>       0.00012195       0.00040140      -0.00004401 </v>
   <v>       0.00086349       0.00060435       0.00009242 </v>
   <v>      -0.00044103       0.00112023      -0.00119198 </v>
   <v>       0.00012621      -0.00098260      -0.00008133 </v>
   <v>       0.00023340      -0.00110389       0.00011287 </v>
   <v>      -0.00069344       0.00037336      -0.00035793 </v>
   <v>       0.00018798       0.00067345      -0.00023202 </v>
  </varray>
  <varray name="stress" >
   <v>       1.86292307       0.68316629       4.02193328 </v>
   <v>       0.68316559       0.29832933       1.89916813 </v>
   <v>       4.02193241       1.89916791      -2.12303287 </v>
  </varray>
  <energy>
   <i name="e_fr_energy">   -272.34755169 </i>
   <i name="e_wo_entrp">   -272.34755169 </i>
   <i name="e_0_energy">   -272.34755169 </i>
  </energy>
  <time name="totalsc">   63.73   64.49</time>
 </calculation>
 <calculation>
  <scstep>
   <time name="dav">    2.58    2.61</time>
   <time name="total">    3.10    3.14</time>
   <energy>
    <i name="alphaZ">    302.37226562 </i>
    <i name="ewald">  -8851.92732868 </i>
    <i name="hartreedc">  -2185.28149282 </i>
    <i name="XCdc">    537.91474858 </i>
    <i name="pawpsdc">   9814.66545837 </i>
    <i name="pawaedc">  -9958.64508962 </i>
    <i name="eentropy">     -0.00000000 </i>
    <i name="bandstr">  -2620.94793234 </i>
    <i name="atom">  12703.13999606 </i>
    <i name="e_fr_energy">   -258.70937483 </i>
    <i name="e_wo_entrp">   -258.70937483 </i>
    <i name="e_0_energy">   -258.70937483 </i>
   </energy>
  </scstep>
  <scstep>
   <time name="diag">    0.36    0.37</time>
   <time name="diis">    1.07    1.08</time>
   <time name="orth">    0.07    0.07</time>
   <time name="total">    1.96    1.98</time>
   <energy>
    <i name="alphaZ">    302.37226562 </i>
    <i name="ewald">  -8851.92732868 </i>
    <i name="hartreedc">  -2185.27959646 </i>
    <i name="XCdc">    537.91439071 </i>
    <i name="pawpsdc">   9814.58930358 </i>
    <i name="pawaedc">  -9958.56833275 </i>
    <i name="eentropy">     -0.00000000 </i>
    <i name="bandstr">  -2620.95007306 </i>
    <i name="atom">  12703.13999606 </i>
    <i name="e_fr_energy">   -258.70937498 </i>
    <i name="e_wo_entrp">   -258.70937498 </i>
    <i name="e_0_energy">   -258.70937498 </i>
   </energy>
  </scstep>
  <structure>
   <crystal>
    <varray name="basis" >
     <v>       9.64687458       0.00000000       0.00000000 </v>
     <v>       0.00000000       9.64687458       0.00000000 </v>
     <v>       0.00000000       0.00000000       9.64687458 </v>
    </varray>
    <i name="volume">    897.75926744 </i>
    <varray name="rec_basis" >
     <v>       0.10366052       0.00000000       0.00000000 </v>
     <v>       0.00000000       0.10366052       0.00000000 </v>
     <v>       0.00000000       0.00000000       0.10366052 </v>
    </varray>
   </crystal>
   <varray name="positions" >
    <v>       0.97302743       0.15596177       0.22303538 </v>
    <v>       0.97516094       0.66811977       0.70448726 </v>
    <v>       0.01806747       0.18466392       0.79401050 </v>
    <v>       0.02149682       0.70011273       0.27212158 </v>
    <v>       0.21160483       0.19834208       0.98832899 </v>
    <v>       0.18658998       0.84721032       0.03779424 </v>
    <v>       0.79199900       0.21278832       0.01951415 </v>
    <v>       0.83853297       0.82476051       0.96047601 </v>
    <v>       0.33753491       0.96019999       0.32820177 </v>
    <v>       0.30858826       0.04518884       0.67210353 </v>
    <v>       0.72371074       0.98360257       0.69160126 </v>
    <v>       0.67880505       0.00721144       0.29634945 </v>
    <v>       0.20202177       0.70671344       0.47839971 </v>
    <v>       0.16740930       0.33224338       0.53487843 </v>
    <v>       0.78462223       0.71102718       0.51041451 </v>
    <v>       0.66312316       0.21158650       0.47845486 </v>
    <v>       0.28860597       0.49005995       0.82863102 </v>
    <v>       0.27685418       0.51037589       0.21489883 </v>
    <v>       0.81236686       0.45682856       0.31753081 </v>
    <v>       0.67990157       0.54651429       0.84664797 </v>
    <v>       0.47566965       0.29445163       0.79280216 </v>
    <v>       0.47937645       0.69004239       0.16103595 </v>
    <v>       0.53056665       0.31561007       0.18268490 </v>
    <v>       0.52097505       0.79495673       0.68814959 </v>
    <v>       0.49678425       0.50016805       0.50212870 </v>
    <v>       0.50410215       0.99705113       0.99190969 </v>
    <v>       0.98842207       0.49874296       0.00477757 </v>
    <v>       0.00621242       0.00229471       0.49896298 </v>
    <v>       0.11293086       0.88078022       0.63621086 </v>
    <v>       0.14944393       0.11764881       0.39199115 </v>
    <v>       0.88791081       0.88685261       0.36373059 </v>
    <v>       0.88072165       0.14238215       0.59904124 </v>
    <v>       0.84987601       0.61344732       0.11749468 </v>
    <v>       0.87975502       0.38609177       0.86190739 </v>
    <v>       0.11398388       0.63941064       0.90445547 </v>
    <v>       0.09847962       0.36982360       0.13432476 </v>
    <v>       0.62453852       0.12290643       0.86938726 </v>
    <v>       0.63314187       0.86892050       0.10110701 </v>
    <v>       0.38947835       0.11129777       0.13080265 </v>
    <v>       0.37195323       0.88621187       0.86875544 </v>
    <v>       0.61186006       0.61700045       0.36660773 </v>
    <v>       0.63168445       0.39898926       0.63138861 </v>
    <v>       0.36899208       0.61725721       0.62631914 </v>
    <v>       0.38068945       0.36305643       0.38816453 </v>
    <v>       0.75185066       0.75454628       0.74341047 </v>
    <v>       0.74526696       0.23573000       0.25204264 </v>
    <v>       0.25662615       0.74639507       0.24801866 </v>
    <v>       0.24309037       0.26217155       0.75853963 </v>
    <v>       0.00073164       0.03022691       0.99975756 </v>
    <v>       0.99904444       0.54256138       0.48292098 </v>
    <v>       0.52034280       0.99594380       0.51125025 </v>
    <v>       0.47764362       0.48562575       0.00141333 </v>
   </varray>
  </structure>
  <varray name="forces" >
   <v>       0.00012176      -0.00029635      -0.00006223 </v>
   <v>      -0.00017066      -0.00091853      -0.00008042 </v>
   <v>       0.00017777      -0.00047779      -0.00013502 </v>
   <v>      -0.00026679      -0.00018127       0.00008815 </v>
   <v>      -0.00015533       0.00000956       0.00000398 </v>
   <v>       0.00030060       0.00038004      -0.00022905 </v>
   <v>       0.00027908      -0.00005436      -0.00008703 </v>
   <v>       0.00041454      -0.00017835       0.00008788 </v>
   <v>       0.00010341       0.00018422      -0.00003798 </v>
   <v>      -0.00001392      -0.00041314      -0.00032398 </v>
   <v>      -0.00038549       0.00010384       0.00031877 </v>
   <v>       0.00027814      -0.00031918       0.00022733 </v>
   <v>      -0.00054823       0.00035738       0.00028727 </v>
   <v>       0.00012516       0.00004595      -0.00007178 </v>
   <v>       0.00042666       0.00036263      -0.00020201 </v>
   <v>      -0.00099165      -0.00008000      -0.00026216 </v>
   <v>      -0.00000474       0.00022512      -0.00013402 </v>
   <v>       0.00036342      -0.00022242       0.00030857 </v>
   <v>      -0.00027137       0.00022055       0.00029830 </v>
   <v>       0.00033567      -0.00017106       0.00059880 </v>
   <v>      -0.00012252       0.00033993       0.00018080 </v>
   <v>      -0.00004195      -0.00010954      -0.00006430 </v>
   <v>      -0.00053394       0.00000553      -0.00042089 </v>
   <v>       0.00002651       0.00027378       0.00007857 </v>
   <v>      -0.00004964      -0.00052125      -0.00001822 </v>
   <v>       0.00065935       0.00004588      -0.00030554 </v>
   <v>       0.00004990      -0.00006535       0.00040601 </v>
   <v>      -0.00029928       0.00000396      -0.00009159 </v>
   <v>       0.00029811      -0.00021540       0.00105306 </v>
   <v>       0.00114582      -0.00029489      -0.00004133 </v>
   <v>      -0.00010442      -0.00069931      -0.00130239 </v>
   <v>      -0.00061891       0.00112703      -0.00045011 </v>
   <v>      -0.00148064      -0.00058463       0.00081178 </v>
   <v>      -0.00006556      -0.00062828      -0.00051573 </v>
   <v>       0.00080170       0.00116485       0.00034087 </v>
   <v>      -0.00007094      -0.00079055       0.00093164 </v>
   <v>       0.00056572       0.00061823      -0.00108558 </v>
   <v>       0.00087348      -0.00042331      -0.00029629 </v>
   <v>      -0.00055597       0.00018370       0.00084999 </v>
   <v>      -0.00057717      -0.00040054      -0.00053364 </v>
   <v>       0.00001915       0.00068376      -0.00081960 </v>
   <v>       0.00095151       0.00030037       0.00058144 </v>
   <v>      -0.00082815       0.00026390       0.00068935 </v>
   <v>      -0.00035778      -0.00097601      -0.00036257 </v>
   <v>      -0.00008317       0.00016617       0.00036677 </v>
   <v>      -0.00001976       0.00013626      -0.00011250 </v>
   <v>       0.00038450       0.00018934       0.00023286 </v>
   <v>      -0.00022223       0.00066759      -0.00051075 </v>
   <v>       0.00011014       0.00035853       0.00001290 </v>
   <v>       0.00014821       0.00056345      -0.00024163 </v>
   <v>       0.00013436       0.00015917       0.00012356 </v>
   <v>      -0.00025445      -0.00011918      -0.00008032 </v>
  </varray>
  <varray name="stress" >
   <v>       1.83515555       0.68266772       4.02516442 </v>
   <v>       0.68266682       0.27155904       1.89721288 </v>
   <v>       4.02516348       1.89721271      -2.15135236 </v>
  </varray>
  <energy>
   <i name="e_fr_energy">   -272.34755437 </i>
   <i name="e_wo_entrp">   -272.34755437 </i>
   <i name="e_0_energy">   -272.34755437 </i>
  </energy>
  <time name="totalsc">    8.14    8.24</time>
 </calculation>
 <calculation>
  <scstep>
   <time name="dav">    2.42    2.44</time>
   <time name="total">    2.95    2.97</time>
   <energy>
    <i name="alphaZ">    302.37226562 </i>
    <i name="ewald">  -8851.97108991 </i>
    <i name="hartreedc">  -2185.24465216 </i>
    <i name="XCdc">    537.91316759 </i>
    <i name="pawpsdc">   9814.53845521 </i>
    <i name="pawaedc">  -9958.51688154 </i>
    <i name="eentropy">     -0.00000000 </i>
    <i name="bandstr">  -2620.94063428 </i>
    <i name="atom">  12703.13999606 </i>
    <i name="e_fr_energy">   -258.70937341 </i>
    <i name="e_wo_entrp">   -258.70937341 </i>
    <i name="e_0_energy">   -258.70937341 </i>
   </energy>
  </scstep>
  <scstep>
   <time name="diag">    0.36    0.37</time>
   <time name="diis">    0.89    0.90</time>
   <time name="orth">    0.07    0.07</time>
   <time name="total">    1.78    1.80</time>
   <energy>
    <i name="alphaZ">    302.37226562 </i>
    <i name="ewald">  -8851.97108991 </i>
    <i name="hartreedc">  -2185.24119945 </i>
    <i name="XCdc">    537.91293021 </i>
    <i name="pawpsdc">   9814.48055662 </i>
    <i name="pawaedc">  -9958.45866737 </i>
    <i name="eentropy">     -0.00000000 </i>
    <i name="bandstr">  -2620.94416513 </i>
    <i name="atom">  12703.13999606 </i>
    <i name="e_fr_energy">   -258.70937334 </i>
    <i name="e_wo_entrp">   -258.70937334 </i>
    <i name="e_0_energy">   -258.70937334 </i>
   </energy>
  </scstep>
  <structure>
   <crystal>
    <varray name="basis" >
     <v>       9.64687458       0.00000000       0.00000000 </v>
     <v>       0.00000000       9.64687458       0.00000000 </v>
     <v>       0.00000000       0.00000000       9.64687458 </v>
    </varray>
    <i name="volume">    897.75926744 </i>
    <varray name="rec_basis" >
     <v>       0.10366052       0.00000000       0.00000000 </v>
     <v>       0.00000000       0.10366052       0.00000000 </v>
     <v>       0.00000000       0.00000000       0.10366052 </v>
    </varray>
   </crystal>
   <varray name="positions" >
    <v>       0.97302770       0.15596124       0.22303524 </v>
    <v>       0.97516031       0.66811771       0.70448700 </v>
    <v>       0.01806790       0.18466300       0.79401022 </v>
    <v>       0.02149610       0.70011240       0.27212193 </v>
    <v>       0.21160430       0.19834227       0.98832905 </v>
    <v>       0.18659064       0.84721117       0.03779359 </v>
    <v>       0.79199964       0.21278821       0.01951393 </v>
    <v>       0.83853371       0.82476023       0.96047628 </v>
    <v>       0.33753514       0.96020055       0.32820168 </v>
    <v>       0.30858830       0.04518790       0.67210276 </v>
    <v>       0.72370966       0.98360286       0.69160217 </v>
    <v>       0.67880583       0.00721060       0.29634994 </v>
    <v>       0.20202036       0.70671428       0.47840009 </v>
    <v>       0.16740974       0.33224347       0.53487822 </v>
    <v>       0.78462336       0.71102815       0.51041405 </v>
    <v>       0.66312099       0.21158640       0.47845428 </v>
    <v>       0.28860600       0.49006028       0.82863076 </v>
    <v>       0.27685509       0.51037520       0.21489964 </v>
    <v>       0.81236631       0.45682908       0.31753144 </v>
    <v>       0.67990242       0.54651384       0.84664925 </v>
    <v>       0.47566949       0.29445240       0.79280262 </v>
    <v>       0.47937644       0.69004222       0.16103588 </v>
    <v>       0.53056536       0.31561018       0.18268402 </v>
    <v>       0.52097544       0.79495764       0.68814982 </v>
    <v>       0.49678431       0.50016540       0.50212810 </v>
    <v>       0.50410557       0.99705057       0.99190933 </v>
    <v>       0.98842269       0.49874166       0.00477898 </v>
    <v>       0.00621110       0.00229531       0.49896196 </v>
    <v>       0.11293282       0.88077867       0.63621475 </v>
    <v>       0.14944719       0.11764897       0.39199066 </v>
    <v>       0.88791014       0.88685097       0.36372732 </v>
    <v>       0.88072002       0.14238539       0.59904065 </v>
    <v>       0.84987164       0.61344721       0.11749716 </v>
    <v>       0.87975398       0.38608976       0.86190518 </v>
    <v>       0.11398685       0.63941465       0.90445531 </v>
    <v>       0.09847936       0.36982197       0.13432676 </v>
    <v>       0.62454011       0.12290798       0.86938462 </v>
    <v>       0.63314349       0.86891965       0.10110611 </v>
    <v>       0.38947589       0.11129936       0.13080633 </v>
    <v>       0.37195061       0.88620978       0.86875317 </v>
    <v>       0.61186092       0.61700295       0.36660469 </v>
    <v>       0.63168708       0.39898972       0.63139053 </v>
    <v>       0.36898906       0.61725896       0.62632195 </v>
    <v>       0.38068844       0.36305435       0.38816383 </v>
    <v>       0.75185052       0.75454640       0.74341185 </v>
    <v>       0.74526713       0.23573056       0.25204258 </v>
    <v>       0.25662735       0.74639590       0.24801879 </v>
    <v>       0.24308976       0.26217310       0.75853798 </v>
    <v>       0.00073182       0.03022555       0.99975744 </v>
    <v>       0.99904476       0.54255985       0.48292113 </v>
    <v>       0.52034184       0.99594432       0.51124976 </v>
    <v>       0.47764388       0.48562668       0.00141300 </v>
   </varray>
  </structure>
  <varray name="forces" >
   <v>       0.00015750      -0.00034687      -0.00003864 </v>
   <v>      -0.00020096      -0.00121690      -0.00005247 </v>
   <v>       0.00021400      -0.00058038      -0.00019378 </v>
   <v>      -0.00027781      -0.00025897       0.00006231 </v>
   <v>      -0.00017350      -0.00001430      -0.00001709 </v>
   <v>       0.00036523       0.00045807      -0.00025181 </v>
   <v>       0.00033179      -0.00007385      -0.00010461 </v>
   <v>       0.00053572      -0.00021836       0.00009787 </v>
   <v>       0.00015850       0.00017760      -0.00002077 </v>
   <v>      -0.00001435      -0.00047646      -0.00038209 </v>
   <v>      -0.00045229       0.00014586       0.00038366 </v>
   <v>       0.00030895      -0.00036615       0.00025835 </v>
   <v>      -0.00067369       0.00044555       0.00034937 </v>
   <v>       0.00011899       0.00006602      -0.00007914 </v>
   <v>       0.00051701       0.00043282      -0.00023452 </v>
   <v>      -0.00128163      -0.00009248      -0.00032824 </v>
   <v>       0.00000248       0.00027738      -0.00014814 </v>
   <v>       0.00043389      -0.00023013       0.00035312 </v>
   <v>      -0.00029133       0.00024417       0.00034925 </v>
   <v>       0.00042254      -0.00019640       0.00078963 </v>
   <v>      -0.00015504       0.00042807       0.00020795 </v>
   <v>      -0.00004439      -0.00009710      -0.00009367 </v>
   <v>      -0.00061920       0.00000747      -0.00052967 </v>
   <v>       0.00000298       0.00026433       0.00007758 </v>
   <v>      -0.00013353       0.00026021       0.00023054 </v>
   <v>      -0.00032655       0.00021881      -0.00036097 </v>
   <v>      -0.00018515       0.00042892       0.00007430 </v>
   <v>       0.00013771      -0.00021428       0.00025140 </v>
   <v>      -0.00002476       0.00016081       0.00090529 </v>
   <v>       0.00110675      -0.00045691       0.00011874 </v>
   <v>       0.00009443      -0.00055590      -0.00138310 </v>
   <v>      -0.00051976       0.00122134      -0.00076883 </v>
   <v>      -0.00144691      -0.00101039       0.00060832 </v>
   <v>       0.00018869      -0.00045776      -0.00036210 </v>
   <v>       0.00053880       0.00096649       0.00073874 </v>
   <v>      -0.00019182      -0.00080849       0.00107498 </v>
   <v>       0.00054462       0.00053851      -0.00107680 </v>
   <v>       0.00104194      -0.00047141      -0.00046223 </v>
   <v>      -0.00023420      -0.00019739       0.00058394 </v>
   <v>      -0.00021874      -0.00015596      -0.00024664 </v>
   <v>      -0.00025271       0.00048656      -0.00064636 </v>
   <v>       0.00104082       0.00047112       0.00045802 </v>
   <v>      -0.00057885      -0.00009660       0.00045042 </v>
   <v>      -0.00026622      -0.00113052      -0.00025458 </v>
   <v>      -0.00007120       0.00013144       0.00062424 </v>
   <v>       0.00001580       0.00022364      -0.00010841 </v>
   <v>       0.00054818       0.00029714       0.00022343 </v>
   <v>      -0.00030592       0.00085811      -0.00080097 </v>
   <v>       0.00012511       0.00004218      -0.00000630 </v>
   <v>       0.00019150       0.00013428      -0.00018398 </v>
   <v>      -0.00004916       0.00025218      -0.00000137 </v>
   <v>      -0.00015427       0.00008486      -0.00013416 </v>
  </varray>
  <varray name="stress" >
   <v>       1.82252507       0.68185246       4.02641981 </v>
   <v>       0.68185165       0.25957838       1.89608834 </v>
   <v>       4.02641888       1.89608838      -2.16399196 </v>
  </varray>
  <energy>
   <i name="e_fr_energy">   -272.34755531 </i>
   <i name="e_wo_entrp">   -272.34755531 </i>
   <i name="e_0_energy">   -272.34755531 </i>
  </energy>
  <time name="totalsc">    7.81    7.90</time>
 </calculation>
 <calculation>
  <scstep>
   <time name="dav">    2.48    2.50</time>
   <time name="total">    3.00    3.03</time>
   <energy>
    <i name="alphaZ">    302.37226562 </i>
    <i name="ewald">  -8852.05859461 </i>
    <i name="hartreedc">  -2185.17113023 </i>
    <i name="XCdc">    537.91084732 </i>
    <i name="pawpsdc">   9814.44160414 </i>
    <i name="pawaedc">  -9958.41948622 </i>
    <i name="eentropy">     -0.00000000 </i>
    <i name="bandstr">  -2620.92487013 </i>
    <i name="atom">  12703.13999606 </i>
    <i name="e_fr_energy">   -258.70936805 </i>
    <i name="e_wo_entrp">   -258.70936805 </i>
    <i name="e_0_energy">   -258.70936805 </i>
   </energy>
  </scstep>
  <scstep>
   <time name="diag">    0.36    0.37</time>
   <time name="diis">    1.13    1.14</time>
   <time name="orth">    0.07    0.07</time>
   <time name="total">    2.02    2.03</time>
   <energy>
    <i name="alphaZ">    302.37226562 </i>
    <i name="ewald">  -8852.05859461 </i>
    <i name="hartreedc">  -2185.16587595 </i>
    <i name="XCdc">    537.91059000 </i>
    <i name="pawpsdc">   9814.35862531 </i>
    <i name="pawaedc">  -9958.33625223 </i>
    <i name="eentropy">     -0.00000000 </i>
    <i name="bandstr">  -2620.93012250 </i>
    <i name="atom">  12703.13999606 </i>
    <i name="e_fr_energy">   -258.70936830 </i>
    <i name="e_wo_entrp">   -258.70936830 </i>
    <i name="e_0_energy">   -258.70936830 </i>
   </energy>
  </scstep>
  <structure>
   <crystal>
    <varray name="basis" >
     <v>       9.64687458       0.00000000       0.00000000 </v>
     <v>       0.00000000       9.64687458       0.00000000 </v>
     <v>       0.00000000       0.00000000       9.64687458 </v>
    </varray>
    <i name="volume">    897.75926744 </i>
    <varray name="rec_basis" >
     <v>       0.10366052       0.00000000       0.00000000 </v>
     <v>       0.00000000       0.10366052       0.00000000 </v>
     <v>       0.00000000       0.00000000       0.10366052 </v>
    </varray>
   </crystal>
   <varray name="positions" >
    <v>       0.97302822       0.15596018       0.22303496 </v>
    <v>       0.97515905       0.66811358       0.70448648 </v>
    <v>       0.01806877       0.18466116       0.79400966 </v>
    <v>       0.02149467       0.70011173       0.27212262 </v>
    <v>       0.21160325       0.19834264       0.98832916 </v>
    <v>       0.18659197       0.84721287       0.03779228 </v>
    <v>       0.79200091       0.21278799       0.01951348 </v>
    <v>       0.83853520       0.82475966       0.96047683 </v>
    <v>       0.33753561       0.96020166       0.32820152 </v>
    <v>       0.30858838       0.04518604       0.67210122 </v>
    <v>       0.72370750       0.98360343       0.69160401 </v>
    <v>       0.67880739       0.00720892       0.29635092 </v>
    <v>       0.20201754       0.70671597       0.47840085 </v>
    <v>       0.16741061       0.33224364       0.53487781 </v>
    <v>       0.78462563       0.71103009       0.51041314 </v>
    <v>       0.66311665       0.21158619       0.47845313 </v>
    <v>       0.28860606       0.49006095       0.82863025 </v>
    <v>       0.27685690       0.51037381       0.21490126 </v>
    <v>       0.81236522       0.45683012       0.31753271 </v>
    <v>       0.67990410       0.54651293       0.84665182 </v>
    <v>       0.47566917       0.29445394       0.79280355 </v>
    <v>       0.47937643       0.69004187       0.16103575 </v>
    <v>       0.53056280       0.31561041       0.18268226 </v>
    <v>       0.52097623       0.79495944       0.68815027 </v>
    <v>       0.49678443       0.50016010       0.50212689 </v>
    <v>       0.50411241       0.99704945       0.99190861 </v>
    <v>       0.98842392       0.49873905       0.00478179 </v>
    <v>       0.00620846       0.00229652       0.49895992 </v>
    <v>       0.11293675       0.88077555       0.63622252 </v>
    <v>       0.14945371       0.11764928       0.39198969 </v>
    <v>       0.88790879       0.88684769       0.36372077 </v>
    <v>       0.88071674       0.14239187       0.59903948 </v>
    <v>       0.84986289       0.61344699       0.11750213 </v>
    <v>       0.87975190       0.38608575       0.86190075 </v>
    <v>       0.11399281       0.63942267       0.90445498 </v>
    <v>       0.09847882       0.36981870       0.13433075 </v>
    <v>       0.62454329       0.12291108       0.86937934 </v>
    <v>       0.63314675       0.86891796       0.10110432 </v>
    <v>       0.38947097       0.11130254       0.13081371 </v>
    <v>       0.37194537       0.88620561       0.86874863 </v>
    <v>       0.61186263       0.61700795       0.36659862 </v>
    <v>       0.63169235       0.39899063       0.63139437 </v>
    <v>       0.36898301       0.61726246       0.62632756 </v>
    <v>       0.38068642       0.36305020       0.38816244 </v>
    <v>       0.75185024       0.75454664       0.74341461 </v>
    <v>       0.74526747       0.23573167       0.25204246 </v>
    <v>       0.25662974       0.74639758       0.24801905 </v>
    <v>       0.24308854       0.26217620       0.75853468 </v>
    <v>       0.00073217       0.03022283       0.99975722 </v>
    <v>       0.99904541       0.54255679       0.48292145 </v>
    <v>       0.52033992       0.99594535       0.51124877 </v>
    <v>       0.47764440       0.48562855       0.00141236 </v>
   </varray>
  </structure>
  <varray name="forces" >
   <v>       0.00013545      -0.00031428       0.00002879 </v>
   <v>       0.00007303      -0.00074501       0.00011447 </v>
   <v>       0.00013296      -0.00046361      -0.00016626 </v>
   <v>      -0.00003958      -0.00028044      -0.00007089 </v>
   <v>       0.00001430      -0.00009648      -0.00008148 </v>
   <v>       0.00026828       0.00031456      -0.00004372 </v>
   <v>       0.00022491      -0.00005654      -0.00003473 </v>
   <v>       0.00053174      -0.00022439       0.00003994 </v>
   <v>       0.00015843       0.00000476       0.00002196 </v>
   <v>      -0.00004847      -0.00029049      -0.00018982 </v>
   <v>      -0.00006208       0.00007500       0.00008239 </v>
   <v>       0.00010728      -0.00012939       0.00016678 </v>
   <v>      -0.00025852       0.00027014       0.00038204 </v>
   <v>      -0.00002485       0.00007841      -0.00003101 </v>
   <v>       0.00018114       0.00016527      -0.00010240 </v>
   <v>      -0.00081117      -0.00005747      -0.00017529 </v>
   <v>      -0.00002114       0.00031451      -0.00009825 </v>
   <v>       0.00024312       0.00002803       0.00017045 </v>
   <v>      -0.00022707       0.00018167       0.00027807 </v>
   <v>       0.00020194      -0.00004492       0.00055578 </v>
   <v>      -0.00018532       0.00033683       0.00012333 </v>
   <v>      -0.00006926      -0.00007039      -0.00012277 </v>
   <v>      -0.00025685      -0.00005680      -0.00033497 </v>
   <v>      -0.00022471      -0.00002694       0.00002195 </v>
   <v>      -0.00026446       0.00226499       0.00083753 </v>
   <v>      -0.00285145       0.00082914      -0.00042634 </v>
   <v>      -0.00074400       0.00174003      -0.00077732 </v>
   <v>       0.00028053      -0.00050753       0.00041824 </v>
   <v>      -0.00149850       0.00153159      -0.00112258 </v>
   <v>      -0.00027967      -0.00096048       0.00069405 </v>
   <v>       0.00066927       0.00022882      -0.00022108 </v>
   <v>       0.00027632      -0.00005331      -0.00106787 </v>
   <v>       0.00047826      -0.00180146      -0.00073909 </v>
   <v>       0.00113684       0.00066823       0.00092402 </v>
   <v>      -0.00120443      -0.00105229       0.00156077 </v>
   <v>      -0.00020938      -0.00031442       0.00056970 </v>
   <v>      -0.00015858      -0.00012328      -0.00005486 </v>
   <v>       0.00077714      -0.00028553      -0.00022690 </v>
   <v>       0.00141685      -0.00157683      -0.00157160 </v>
   <v>       0.00153151       0.00129584       0.00124762 </v>
   <v>      -0.00116080      -0.00093822       0.00103765 </v>
   <v>       0.00007551       0.00066643      -0.00048466 </v>
   <v>       0.00120353      -0.00148937      -0.00123386 </v>
   <v>       0.00024089      -0.00060156       0.00007225 </v>
   <v>      -0.00001164       0.00012731       0.00025443 </v>
   <v>      -0.00006719       0.00004466      -0.00012276 </v>
   <v>       0.00023531       0.00004681       0.00027065 </v>
   <v>      -0.00014535       0.00047855      -0.00034765 </v>
   <v>       0.00009196       0.00043347       0.00003317 </v>
   <v>       0.00012040       0.00053172      -0.00020296 </v>
   <v>       0.00023844       0.00011266       0.00017197 </v>
   <v>      -0.00022088      -0.00020801      -0.00002689 </v>
  </varray>
  <varray name="stress" >
   <v>       1.79517496       0.68120248       4.02956080 </v>
   <v>       0.68120176       0.23480218       1.89360985 </v>
   <v>       4.02956005       1.89360979      -2.19187004 </v>
  </varray>
  <energy>
   <i name="e_fr_energy">   -272.34755542 </i>
   <i name="e_wo_entrp">   -272.34755542 </i>
   <i name="e_0_energy">   -272.34755542 </i>
  </energy>
  <time name="totalsc">    8.10    8.18</time>
 </calculation>
 <calculation>
  <scstep>
   <time name="dav">    2.33    2.35</time>
   <time name="total">    2.86    2.88</time>
   <energy>
    <i name="alphaZ">    302.37226562 </i>
    <i name="ewald">  -8852.01672041 </i>
    <i name="hartreedc">  -2185.19581739 </i>
    <i name="XCdc">    537.91132972 </i>
    <i name="pawpsdc">   9814.29738328 </i>
    <i name="pawaedc">  -9958.27470341 </i>
    <i name="eentropy">     -0.00000000 </i>
    <i name="bandstr">  -2620.94310406 </i>
    <i name="atom">  12703.13999606 </i>
    <i name="e_fr_energy">   -258.70937059 </i>
    <i name="e_wo_entrp">   -258.70937059 </i>
    <i name="e_0_energy">   -258.70937059 </i>
   </energy>
  </scstep>
  <scstep>
   <time name="diag">    0.36    0.37</time>
   <time name="diis">    0.77    0.77</time>
   <time name="orth">    0.07    0.07</time>
   <time name="total">    1.66    1.67</time>
   <energy>
    <i name="alphaZ">    302.37226562 </i>
    <i name="ewald">  -8852.01672041 </i>
    <i name="hartreedc">  -2185.19766495 </i>
    <i name="XCdc">    537.91143785 </i>
    <i name="pawpsdc">   9814.32045724 </i>
    <i name="pawaedc">  -9958.29777608 </i>
    <i name="eentropy">     -0.00000000 </i>
    <i name="bandstr">  -2620.94136625 </i>
    <i name="atom">  12703.13999606 </i>
    <i name="e_fr_energy">   -258.70937091 </i>
    <i name="e_wo_entrp">   -258.70937091 </i>
    <i name="e_0_energy">   -258.70937091 </i>
   </energy>
  </scstep>
  <structure>
   <crystal>
    <varray name="basis" >
     <v>       9.64687458       0.00000000       0.00000000 </v>
     <v>       0.00000000       9.64687458       0.00000000 </v>
     <v>       0.00000000       0.00000000       9.64687458 </v>
    </varray>
    <i name="volume">    897.75926744 </i>
    <varray name="rec_basis" >
     <v>       0.10366052       0.00000000       0.00000000 </v>
     <v>       0.00000000       0.10366052       0.00000000 </v>
     <v>       0.00000000       0.00000000       0.10366052 </v>
    </varray>
   </crystal>
   <varray name="positions" >
    <v>       0.97302797       0.15596069       0.22303509 </v>
    <v>       0.97515965       0.66811556       0.70448673 </v>
    <v>       0.01806835       0.18466204       0.79400993 </v>
    <v>       0.02149535       0.70011205       0.27212229 </v>
    <v>       0.21160375       0.19834246       0.98832911 </v>
    <v>       0.18659134       0.84721206       0.03779291 </v>
    <v>       0.79200030       0.21278810       0.01951369 </v>
    <v>       0.83853449       0.82475993       0.96047657 </v>
    <v>       0.33753539       0.96020113       0.32820160 </v>
    <v>       0.30858834       0.04518693       0.67210196 </v>
    <v>       0.72370853       0.98360316       0.69160313 </v>
    <v>       0.67880664       0.00720972       0.29635045 </v>
    <v>       0.20201889       0.70671516       0.47840049 </v>
    <v>       0.16741020       0.33224356       0.53487800 </v>
    <v>       0.78462454       0.71102916       0.51041357 </v>
    <v>       0.66311873       0.21158629       0.47845368 </v>
    <v>       0.28860603       0.49006063       0.82863049 </v>
    <v>       0.27685603       0.51037447       0.21490048 </v>
    <v>       0.81236574       0.45682962       0.31753211 </v>
    <v>       0.67990330       0.54651337       0.84665059 </v>
    <v>       0.47566932       0.29445320       0.79280311 </v>
    <v>       0.47937644       0.69004204       0.16103581 </v>
    <v>       0.53056403       0.31561030       0.18268310 </v>
    <v>       0.52097585       0.79495857       0.68815006 </v>
    <v>       0.49678438       0.50016264       0.50212747 </v>
    <v>       0.50410913       0.99704999       0.99190896 </v>
    <v>       0.98842333       0.49874030       0.00478044 </v>
    <v>       0.00620973       0.00229594       0.49896090 </v>
    <v>       0.11293487       0.88077704       0.63621880 </v>
    <v>       0.14945059       0.11764913       0.39199015 </v>
    <v>       0.88790943       0.88684926       0.36372390 </v>
    <v>       0.88071831       0.14238877       0.59904004 </v>
    <v>       0.84986708       0.61344709       0.11749976 </v>
    <v>       0.87975289       0.38608767       0.86190287 </v>
    <v>       0.11398996       0.63941883       0.90445514 </v>
    <v>       0.09847908       0.36982026       0.13432884 </v>
    <v>       0.62454177       0.12290959       0.86938187 </v>
    <v>       0.63314519       0.86891877       0.10110518 </v>
    <v>       0.38947332       0.11130102       0.13081018 </v>
    <v>       0.37194788       0.88620761       0.86875080 </v>
    <v>       0.61186181       0.61700556       0.36660153 </v>
    <v>       0.63168983       0.39899019       0.63139253 </v>
    <v>       0.36898590       0.61726078       0.62632488 </v>
    <v>       0.38068738       0.36305219       0.38816311 </v>
    <v>       0.75185037       0.75454652       0.74341329 </v>
    <v>       0.74526731       0.23573114       0.25204251 </v>
    <v>       0.25662859       0.74639678       0.24801892 </v>
    <v>       0.24308912       0.26217472       0.75853625 </v>
    <v>       0.00073200       0.03022413       0.99975733 </v>
    <v>       0.99904510       0.54255826       0.48292130 </v>
    <v>       0.52034084       0.99594486       0.51124924 </v>
    <v>       0.47764416       0.48562765       0.00141267 </v>
   </varray>
  </structure>
  <varray name="forces" >
   <v>       0.00034160      -0.00071185      -0.00004988 </v>
   <v>      -0.00044873      -0.00207235      -0.00008221 </v>
   <v>       0.00047231      -0.00109815      -0.00034894 </v>
   <v>      -0.00051304      -0.00053311       0.00019348 </v>
   <v>      -0.00041379       0.00008320      -0.00010764 </v>
   <v>       0.00071805       0.00088353      -0.00042845 </v>
   <v>       0.00070891      -0.00017504      -0.00018090 </v>
   <v>       0.00106269      -0.00040515       0.00027037 </v>
   <v>       0.00036140       0.00041645      -0.00001527 </v>
   <v>       0.00002961      -0.00080327      -0.00071193 </v>
   <v>      -0.00080940       0.00024144       0.00069488 </v>
   <v>       0.00066591      -0.00071633       0.00046363 </v>
   <v>      -0.00126072       0.00080349       0.00043298 </v>
   <v>       0.00035328       0.00014589      -0.00023061 </v>
   <v>       0.00097612       0.00084001      -0.00031245 </v>
   <v>      -0.00215781      -0.00010537      -0.00055047 </v>
   <v>       0.00002375       0.00044761      -0.00021572 </v>
   <v>       0.00083869      -0.00046615       0.00073130 </v>
   <v>      -0.00054268       0.00045974       0.00074458 </v>
   <v>       0.00080926      -0.00035430       0.00138666 </v>
[...]
       <r>     7.9847    11.0292   143.5197 </r>
       <r>     8.1774    13.4669   146.1157 </r>
       <r>     8.3702    15.3149   149.0675 </r>
       <r>     8.5629    15.0581   151.9736 </r>
       <r>     8.7556    14.3694   154.7431 </r>
       <r>     8.9483    18.1947   158.2519 </r>
       <r>     9.1410    17.4674   161.6203 </r>
       <r>     9.3337    20.4077   165.5549 </r>
       <r>     9.5265    15.2156   168.4915 </r>
       <r>     9.7192    18.1618   171.9941 </r>
       <r>     9.9119    14.7165   174.8315 </r>
       <r>    10.1046     6.0629   176.0000 </r>
       <r>    10.2973     0.0000   176.0000 </r>
       <r>    10.4900     0.0000   176.0000 </r>
       <r>    10.6828     0.0000   176.0000 </r>
       <r>    10.8755     0.0000   176.0000 </r>
       <r>    11.0682     0.0000   176.0000 </r>
       <r>    11.2609     0.0000   176.0000 </r>
       <r>    11.4536     0.0000   176.0000 </r>
       <r>    11.6463     0.0000   176.0000 </r>
       <r>    11.8391     0.0000   176.0000 </r>
       <r>    12.0318     0.0000   176.0000 </r>
       <r>    12.2245     0.0000   176.0000 </r>
       <r>    12.4172     0.0000   176.0000 </r>
       <r>    12.6099     0.0000   176.0000 </r>
      </set>
      <set comment="spin 2">
       <r>   -45.2050     0.0000     0.0000 </r>
       <r>   -45.0123     0.0000     0.0000 </r>
       <r>   -44.8196     0.0000     0.0000 </r>
       <r>   -44.6269     0.0000     0.0000 </r>
       <r>   -44.4342     0.0000     0.0000 </r>
       <r>   -44.2414     0.0000     0.0000 </r>
       <r>   -44.0487     0.0000     0.0000 </r>
       <r>   -43.8560     0.0000     0.0000 </r>
       <r>   -43.6633     0.0000     0.0000 </r>
       <r>   -43.4706     0.0000     0.0000 </r>
       <r>   -43.2779     0.0000     0.0000 </r>
       <r>   -43.0851     0.0000     0.0000 </r>
       <r>   -42.8924     0.0000     0.0000 </r>
       <r>   -42.6997     0.0000     0.0000 </r>
       <r>   -42.5070    14.2790     2.7518 </r>
       <r>   -42.3143    56.4098    13.6234 </r>
       <r>   -42.1216    53.8064    23.9987 </r>
       <r>   -41.9288     0.0000    24.0000 </r>
       <r>   -41.7361     0.0000    24.0000 </r>
       <r>   -41.5434     0.0000    24.0000 </r>
       <r>   -41.3507     0.0000    24.0000 </r>
       <r>   -41.1580     0.0000    24.0000 </r>
       <r>   -40.9653     0.0000    24.0000 </r>
       <r>   -40.7725     0.0000    24.0000 </r>
       <r>   -40.5798     0.0000    24.0000 </r>
       <r>   -40.3871     0.0000    24.0000 </r>
       <r>   -40.1944     0.0000    24.0000 </r>
       <r>   -40.0017     0.0000    24.0000 </r>
       <r>   -39.8090     0.0000    24.0000 </r>
       <r>   -39.6162     0.0000    24.0000 </r>
       <r>   -39.4235     0.0000    24.0000 </r>
       <r>   -39.2308     0.0000    24.0000 </r>
       <r>   -39.0381     0.0000    24.0000 </r>
       <r>   -38.8454     0.0000    24.0000 </r>
       <r>   -38.6527     0.0000    24.0000 </r>
       <r>   -38.4599     0.0000    24.0000 </r>
       <r>   -38.2672     0.0000    24.0000 </r>
       <r>   -38.0745     0.0000    24.0000 </r>
       <r>   -37.8818     0.0000    24.0000 </r>
       <r>   -37.6891     0.0000    24.0000 </r>
       <r>   -37.4964     0.0000    24.0000 </r>
       <r>   -37.3036     0.0000    24.0000 </r>
       <r>   -37.1109     0.0000    24.0000 </r>
       <r>   -36.9182     0.0000    24.0000 </r>
       <r>   -36.7255     0.0000    24.0000 </r>
       <r>   -36.5328     0.0000    24.0000 </r>
       <r>   -36.3401     0.0000    24.0000 </r>
       <r>   -36.1473     0.0000    24.0000 </r>
       <r>   -35.9546     0.0000    24.0000 </r>
       <r>   -35.7619     0.0000    24.0000 </r>
       <r>   -35.5692     0.0000    24.0000 </r>
       <r>   -35.3765     0.0000    24.0000 </r>
       <r>   -35.1838     0.0000    24.0000 </r>
       <r>   -34.9911     0.0000    24.0000 </r>
       <r>   -34.7983     0.0000    24.0000 </r>
       <r>   -34.6056     0.0000    24.0000 </r>
       <r>   -34.4129     0.0000    24.0000 </r>
       <r>   -34.2202     0.0000    24.0000 </r>
       <r>   -34.0275     0.0000    24.0000 </r>
       <r>   -33.8348     0.0000    24.0000 </r>
       <r>   -33.6420     0.0000    24.0000 </r>
       <r>   -33.4493     0.0000    24.0000 </r>
       <r>   -33.2566     0.0000    24.0000 </r>
       <r>   -33.0639     0.0000    24.0000 </r>
       <r>   -32.8712     0.0000    24.0000 </r>
       <r>   -32.6785     0.0000    24.0000 </r>
       <r>   -32.4857     0.0000    24.0000 </r>
       <r>   -32.2930     0.0000    24.0000 </r>
       <r>   -32.1003     0.0000    24.0000 </r>
       <r>   -31.9076     0.0000    24.0000 </r>
       <r>   -31.7149     0.0000    24.0000 </r>
       <r>   -31.5222     0.0000    24.0000 </r>
       <r>   -31.3294     0.0000    24.0000 </r>
       <r>   -31.1367     0.0000    24.0000 </r>
       <r>   -30.9440     0.0000    24.0000 </r>
       <r>   -30.7513     0.0000    24.0000 </r>
       <r>   -30.5586     0.0000    24.0000 </r>
       <r>   -30.3659     0.0000    24.0000 </r>
       <r>   -30.1731     0.0000    24.0000 </r>
       <r>   -29.9804     0.0000    24.0000 </r>
       <r>   -29.7877     0.0000    24.0000 </r>
       <r>   -29.5950     0.0000    24.0000 </r>
       <r>   -29.4023     0.0000    24.0000 </r>
       <r>   -29.2096     0.0000    24.0000 </r>
       <r>   -29.0168     0.0000    24.0000 </r>
       <r>   -28.8241     0.0000    24.0000 </r>
       <r>   -28.6314     0.0000    24.0000 </r>
       <r>   -28.4387     0.0000    24.0000 </r>
       <r>   -28.2460     0.0000    24.0000 </r>
       <r>   -28.0533     0.0000    24.0000 </r>
       <r>   -27.8605     0.0000    24.0000 </r>
       <r>   -27.6678     0.0000    24.0000 </r>
       <r>   -27.4751     0.0000    24.0000 </r>
       <r>   -27.2824     0.0000    24.0000 </r>
       <r>   -27.0897     0.0000    24.0000 </r>
       <r>   -26.8970     0.0000    24.0000 </r>
       <r>   -26.7042     0.0000    24.0000 </r>
       <r>   -26.5115     0.0000    24.0000 </r>
       <r>   -26.3188     0.0000    24.0000 </r>
       <r>   -26.1261     0.0000    24.0000 </r>
       <r>   -25.9334     0.0000    24.0000 </r>
       <r>   -25.7407     0.0000    24.0000 </r>
       <r>   -25.5479     0.0000    24.0000 </r>
       <r>   -25.3552     0.0000    24.0000 </r>
       <r>   -25.1625     0.0000    24.0000 </r>
       <r>   -24.9698     0.0000    24.0000 </r>
       <r>   -24.7771     0.0000    24.0000 </r>
       <r>   -24.5844     0.0000    24.0000 </r>
       <r>   -24.3916     0.0000    24.0000 </r>
       <r>   -24.1989     0.0000    24.0000 </r>
       <r>   -24.0062     0.0000    24.0000 </r>
       <r>   -23.8135     0.0000    24.0000 </r>
       <r>   -23.6208     0.0000    24.0000 </r>
       <r>   -23.4281     0.0000    24.0000 </r>
       <r>   -23.2353     0.0000    24.0000 </r>
       <r>   -23.0426     0.0000    24.0000 </r>
       <r>   -22.8499     0.0000    24.0000 </r>
       <r>   -22.6572     0.0000    24.0000 </r>
       <r>   -22.4645     0.0000    24.0000 </r>
       <r>   -22.2718     0.0000    24.0000 </r>
       <r>   -22.0790     0.0000    24.0000 </r>
       <r>   -21.8863     0.0000    24.0000 </r>
       <r>   -21.6936     0.0000    24.0000 </r>
       <r>   -21.5009     0.0000    24.0000 </r>
       <r>   -21.3082     0.0000    24.0000 </r>
       <r>   -21.1155     0.0000    24.0000 </r>
       <r>   -20.9227     0.0000    24.0000 </r>
       <r>   -20.7300     0.0000    24.0000 </r>
       <r>   -20.5373     0.0000    24.0000 </r>
       <r>   -20.3446     0.0000    24.0000 </r>
       <r>   -20.1519     0.0000    24.0000 </r>
       <r>   -19.9592     0.0000    24.0000 </r>
       <r>   -19.7664     0.0000    24.0000 </r>
       <r>   -19.5737     0.0000    24.0000 </r>
       <r>   -19.3810     0.0000    24.0000 </r>
       <r>   -19.1883     0.0000    24.0000 </r>
       <r>   -18.9956     0.0000    24.0000 </r>
       <r>   -18.8029     0.0000    24.0000 </r>
       <r>   -18.6101     0.0000    24.0000 </r>
       <r>   -18.4174     0.0000    24.0000 </r>
       <r>   -18.2247     0.0000    24.0000 </r>
       <r>   -18.0320     0.0000    24.0000 </r>
       <r>   -17.8393     0.0000    24.0000 </r>
       <r>   -17.6466     0.0000    24.0000 </r>
       <r>   -17.4539     0.0000    24.0000 </r>
       <r>   -17.2611     0.0000    24.0000 </r>
       <r>   -17.0684     0.0000    24.0000 </r>
       <r>   -16.8757     0.0000    24.0000 </r>
       <r>   -16.6830     0.0000    24.0000 </r>
       <r>   -16.4903     0.0000    24.0000 </r>
       <r>   -16.2976     0.0000    24.0000 </r>
       <r>   -16.1048     0.0000    24.0000 </r>
       <r>   -15.9121     0.0000    24.0000 </r>
       <r>   -15.7194     0.0000    24.0000 </r>
       <r>   -15.5267     0.0000    24.0000 </r>
       <r>   -15.3340     0.0000    24.0000 </r>
       <r>   -15.1413     0.0000    24.0000 </r>
       <r>   -14.9485     0.0000    24.0000 </r>
       <r>   -14.7558     0.0000    24.0000 </r>
       <r>   -14.5631     0.0000    24.0000 </r>
       <r>   -14.3704     0.0000    24.0000 </r>
       <r>   -14.1777     0.0000    24.0000 </r>
       <r>   -13.9850     0.0000    24.0000 </r>
       <r>   -13.7922     0.0000    24.0000 </r>
       <r>   -13.5995     0.0000    24.0000 </r>
       <r>   -13.4068     0.0000    24.0000 </r>
       <r>   -13.2141     0.0000    24.0000 </r>
       <r>   -13.0214     1.0007    24.1928 </r>
       <r>   -12.8287    19.7550    28.0000 </r>
       <r>   -12.6359     1.3768    28.2653 </r>
       <r>   -12.4432    19.3791    32.0000 </r>
       <r>   -12.2505     0.0000    32.0000 </r>
       <r>   -12.0578     0.0000    32.0000 </r>
       <r>   -11.8651     0.0000    32.0000 </r>
       <r>   -11.6724     0.0000    32.0000 </r>
       <r>   -11.4796     0.0000    32.0000 </r>
       <r>   -11.2869     0.0000    32.0000 </r>
       <r>   -11.0942     0.0000    32.0000 </r>
       <r>   -10.9015     0.0000    32.0000 </r>
       <r>   -10.7088     0.0000    32.0000 </r>
       <r>   -10.5161     0.0000    32.0000 </r>
       <r>   -10.3233     0.0002    32.0000 </r>
       <r>   -10.1306    15.5763    35.0018 </r>
       <r>    -9.9379    22.7596    39.3913 </r>
       <r>    -9.7452    23.8964    43.9990 </r>
       <r>    -9.5525     0.0000    44.0000 </r>
       <r>    -9.3598     0.0000    44.0000 </r>
       <r>    -9.1670     0.0000    44.0000 </r>
       <r>    -8.9743     0.0000    44.0000 </r>
       <r>    -8.7816     0.0000    44.0000 </r>
       <r>    -8.5889     0.0000    44.0000 </r>
       <r>    -8.3962     0.0000    44.0000 </r>
       <r>    -8.2035    20.3713    47.9259 </r>
       <r>    -8.0107     0.3643    48.0000 </r>
       <r>    -7.8180     0.0000    48.0000 </r>
       <r>    -7.6253     0.0000    48.0000 </r>
       <r>    -7.4326     0.0000    48.0000 </r>
       <r>    -7.2399     0.0000    48.0000 </r>
       <r>    -7.0472     0.0000    48.0000 </r>
       <r>    -6.8544     0.0000    48.0000 </r>
       <r>    -6.6617     0.0000    48.0000 </r>
       <r>    -6.4690     0.0000    48.0000 </r>
       <r>    -6.2763     0.0000    48.0000 </r>
       <r>    -6.0836     2.3124    48.4456 </r>
       <r>    -5.8909     2.8766    49.0000 </r>
       <r>    -5.6981     0.3379    49.0651 </r>
       <r>    -5.5054    15.1658    51.9878 </r>
       <r>    -5.3127     0.0532    52.0000 </r>
       <r>    -5.1200     0.0000    52.0000 </r>
       <r>    -4.9273     0.0000    52.0000 </r>
       <r>    -4.7346     0.0000    52.0000 </r>
       <r>    -4.5418     0.0000    52.0000 </r>
       <r>    -4.3491     0.0000    52.0000 </r>
       <r>    -4.1564     0.0000    52.0000 </r>
       <r>    -3.9637     0.0000    52.0000 </r>
       <r>    -3.7710     0.0000    52.0000 </r>
       <r>    -3.5783     0.0000    52.0000 </r>
       <r>    -3.3855     0.0000    52.0000 </r>
       <r>    -3.1928     2.2068    52.4253 </r>
       <r>    -3.0001    13.3601    55.0000 </r>
       <r>    -2.8074     2.8044    55.5404 </r>
       <r>    -2.6147    11.8434    57.8229 </r>
       <r>    -2.4220     9.1244    59.5818 </r>
       <r>    -2.2292    19.8062    63.3988 </r>
       <r>    -2.0365     3.1187    64.0000 </r>
       <r>    -1.8438     0.0000    64.0000 </r>
       <r>    -1.6511     0.0000    64.0000 </r>
       <r>    -1.4584    14.7060    66.8341 </r>
       <r>    -1.2657    21.1435    70.9110 </r>
       <r>    -1.0730    18.5357    74.4883 </r>
       <r>    -0.8802     7.8123    76.0000 </r>
       <r>    -0.6875     0.0000    76.0000 </r>
       <r>    -0.4948     6.7704    77.3048 </r>
       <r>    -0.3021    12.3304    79.6810 </r>
       <r>    -0.1094    10.6749    81.7383 </r>
       <r>     0.0833    28.2622    87.1849 </r>
       <r>     0.2761    25.1957    92.0438 </r>
       <r>     0.4688    18.2439    95.5612 </r>
       <r>     0.6615     2.2707    96.0000 </r>
       <r>     0.8542     8.4940    97.6369 </r>
       <r>     1.0469    21.0461   101.6929 </r>
       <r>     1.2396    21.0414   105.7485 </r>
       <r>     1.4324    27.3999   111.0291 </r>
       <r>     1.6251    27.5729   116.3465 </r>
       <r>     1.8178    18.1831   119.8509 </r>
       <r>     2.0105     0.7675   120.0000 </r>
       <r>     2.2032     0.0000   120.0000 </r>
       <r>     2.3959     0.0000   120.0000 </r>
       <r>     2.5887     0.0000   120.0000 </r>
       <r>     2.7814     0.0000   120.0000 </r>
       <r>     2.9741     0.0000   120.0000 </r>
       <r>     3.1668     0.0000   120.0000 </r>
       <r>     3.3595     0.0000   120.0000 </r>
       <r>     3.5522     0.0000   120.0000 </r>
       <r>     3.7450     0.0000   120.0000 </r>
       <r>     3.9377     0.0000   120.0000 </r>
       <r>     4.1304     0.0000   120.0000 </r>
       <r>     4.3231     0.0000   120.0000 </r>
       <r>     4.5158     4.8714   120.9388 </r>
       <r>     4.7085     0.3176   121.0000 </r>
       <r>     4.9013     0.0000   121.0000 </r>
       <r>     5.0940     0.0000   121.0000 </r>
       <r>     5.2867     2.0368   121.3925 </r>
       <r>     5.4794    13.5296   123.9999 </r>
       <r>     5.6721     0.0000   124.0000 </r>
       <r>     5.8648     0.0008   124.0002 </r>
       <r>     6.0576    10.1933   125.9646 </r>
       <r>     6.2503    15.6135   128.9741 </r>
       <r>     6.4430     5.3126   130.0002 </r>
       <r>     6.6357    10.6737   132.0572 </r>
       <r>     6.8284     7.3431   133.4744 </r>
       <r>     7.0211    13.1053   136.0000 </r>
       <r>     7.2139     4.9661   136.9570 </r>
       <r>     7.4066     1.1420   137.1791 </r>
       <r>     7.5993    10.8587   139.2718 </r>
       <r>     7.7920    10.9959   141.3917 </r>
       <r>     7.9847    11.0292   143.5197 </r>
       <r>     8.1774    13.4669   146.1157 </r>
       <r>     8.3702    15.3149   149.0675 </r>
       <r>     8.5629    15.0581   151.9736 </r>
       <r>     8.7556    14.3694   154.7431 </r>
       <r>     8.9483    18.1947   158.2519 </r>
       <r>     9.1410    17.4674   161.6203 </r>
       <r>     9.3337    20.4077   165.5549 </r>
       <r>     9.5265    15.2168   168.4917 </r>
       <r>     9.7192    18.1538   171.9927 </r>
       <r>     9.9119    15.2033   174.9239 </r>
       <r>    10.1046     5.5592   176.0000 </r>
       <r>    10.2973     0.0000   176.0000 </r>
       <r>    10.4900     0.0000   176.0000 </r>
       <r>    10.6828     0.0000   176.0000 </r>
       <r>    10.8755     0.0000   176.0000 </r>
       <r>    11.0682     0.0000   176.0000 </r>
       <r>    11.2609     0.0000   176.0000 </r>
       <r>    11.4536     0.0000   176.0000 </r>
       <r>    11.6463     0.0000   176.0000 </r>
       <r>    11.8391     0.0000   176.0000 </r>
       <r>    12.0318     0.0000   176.0000 </r>
       <r>    12.2245     0.0000   176.0000 </r>
       <r>    12.4172     0.0000   176.0000 </r>
       <r>    12.6099     0.0000   176.0000 </r>
      </set>
     </set>
    </array>
   </total>
  </dos>
 </calculation>
 <structure name="finalpos" >
  <crystal>
   <varray name="basis" >
    <v>       9.64687458       0.00000000       0.00000000 </v>
    <v>       0.00000000       9.64687458       0.00000000 </v>
    <v>       0.00000000       0.00000000       9.64687458 </v>
   </varray>
   <i name="volume">    897.75926744 </i>
   <varray name="rec_basis" >
    <v>       0.10366052       0.00000000       0.00000000 </v>
    <v>       0.00000000       0.10366052       0.00000000 </v>
    <v>       0.00000000       0.00000000       0.10366052 </v>
   </varray>
  </crystal>
  <varray name="positions" >
   <v>       0.97302883       0.15595886       0.22303502 </v>
   <v>       0.97515850       0.66810986       0.70448657 </v>
   <v>       0.01806958       0.18465906       0.79400898 </v>
   <v>       0.02149414       0.70011064       0.27212267 </v>
   <v>       0.21160281       0.19834264       0.98832878 </v>
   <v>       0.18659329       0.84721447       0.03779185 </v>
   <v>       0.79200206       0.21278767       0.01951327 </v>
   <v>       0.83853728       0.82475884       0.96047723 </v>
   <v>       0.33753630       0.96020207       0.32820157 </v>
   <v>       0.30858837       0.04518480       0.67210012 </v>
   <v>       0.72370649       0.98360381       0.69160489 </v>
   <v>       0.67880835       0.00720789       0.29635169 </v>
   <v>       0.20201555       0.70671737       0.47840177 </v>
   <v>       0.16741092       0.33224393       0.53487745 </v>
   <v>       0.78462710       0.71103142       0.51041274 </v>
   <v>       0.66311273       0.21158603       0.47845218 </v>
   <v>       0.28860601       0.49006180       0.82863001 </v>
   <v>       0.27685825       0.51037331       0.21490242 </v>
   <v>       0.81236423       0.45683088       0.31753412 </v>
   <v>       0.67990544       0.54651246       0.84665435 </v>
   <v>       0.47566851       0.29445541       0.79280431 </v>
   <v>       0.47937627       0.69004162       0.16103527 </v>
   <v>       0.53056118       0.31561039       0.18268063 </v>
   <v>       0.52097637       0.79496020       0.68815042 </v>
   <v>       0.49678363       0.50016473       0.50212871 </v>
   <v>       0.50410667       0.99705118       0.99190736 </v>
   <v>       0.98842248       0.49874295       0.00478044 </v>
   <v>       0.00620857       0.00229538       0.49896035 </v>
   <v>       0.11293417       0.88077817       0.63622256 </v>
   <v>       0.14945525       0.11764723       0.39199090 </v>
   <v>       0.88790997       0.88684716       0.36371793 </v>
   <v>       0.88071597       0.14239410       0.59903635 </v>
   <v>       0.84986099       0.61344253       0.11750223 </v>
   <v>       0.87975399       0.38608569       0.86190134 </v>
   <v>       0.11399197       0.63942291       0.90445897 </v>
   <v>       0.09847821       0.36981678       0.13433365 </v>
   <v>       0.62454415       0.12291210       0.86937732 </v>
   <v>       0.63314993       0.86891678       0.10110316 </v>
   <v>       0.38947276       0.11129999       0.13081253 </v>
   <v>       0.37194742       0.88620737       0.86875006 </v>
   <v>       0.61186047       0.61700756       0.36659901 </v>
   <v>       0.63169454       0.39899247       0.63139457 </v>
   <v>       0.36898384       0.61726008       0.62632647 </v>
   <v>       0.38068636       0.36304724       0.38816218 </v>
   <v>       0.75185022       0.75454703       0.74341582 </v>
   <v>       0.74526737       0.23573199       0.25204209 </v>
   <v>       0.25663072       0.74639785       0.24801977 </v>
   <v>       0.24308800       0.26217800       0.75853307 </v>
   <v>       0.00073251       0.03022250       0.99975724 </v>
   <v>       0.99904604       0.54255651       0.48292090 </v>
   <v>       0.52033975       0.99594623       0.51124857 </v>
   <v>       0.47764404       0.48562896       0.00141194 </v>
  </varray>
 </structure>
</modeling>
