unknown system                          
           1
     9.646875    0.000000    0.000000
     0.000000    9.646875    0.000000
     0.000000    0.000000    9.646875
   Li   P    S    Cl
    24     4    20     4
Direct configuration=     1
   0.97302705  0.15596253  0.22303558
   0.97516185  0.66812275  0.70448764
   0.01806684  0.18466526  0.79401090
   0.02149785  0.70011321  0.27212108
   0.21160559  0.19834181  0.98832891
   0.18658901  0.84720909  0.03779519
   0.79199808  0.21278848  0.01951447
   0.83853189  0.82476091  0.96047561
   0.33753457  0.96019919  0.32820188
   0.30858819  0.04519018  0.67210464
   0.72371230  0.98360216  0.69159993
   0.67880392  0.00721265  0.29634874
   0.20202380  0.70671221  0.47839916
   0.16740867  0.33224325  0.53487872
   0.78462059  0.71102577  0.51041517
   0.66312629  0.21158665  0.47845570
   0.28860593  0.49005946  0.82863139
   0.27685288  0.51037690  0.21489765
   0.81236765  0.45682780  0.31752989
   0.67990036  0.54651495  0.84664612
   0.47566989  0.29445052  0.79280149
   0.47937646  0.69004265  0.16103605
   0.53056850  0.31560991  0.18268617
   0.52097448  0.79495543  0.68814926
   0.49678417  0.50017189  0.50212957
   0.50409720  0.99705194  0.99191021
   0.98842118  0.49874484  0.00477554
   0.00621433  0.00229384  0.49896446
   0.11292802  0.88078248  0.63620525
   0.14943922  0.11764859  0.39199185
   0.88791178  0.88685497  0.36373533
   0.88072402  0.14237747  0.59904208
   0.84988233  0.61344748  0.11749109
   0.87975653  0.38609467  0.86191059
   0.11397957  0.63940484  0.90445571
   0.09848001  0.36982596  0.13432187
   0.62453622  0.12290419  0.86939107
   0.63313951  0.86892173  0.10110830
   0.38948190  0.11129548  0.13079731
   0.37195702  0.88621488  0.86875871
   0.61185883  0.61699683  0.36661211
   0.63168065  0.39898860  0.63138583
   0.36899646  0.61725468  0.62631509
   0.38069092  0.36305943  0.38816553
   0.75185086  0.75454611  0.74340847
   0.74526672  0.23572920  0.25204273
   0.25662442  0.74639386  0.24801848
   0.24309125  0.26216931  0.75854201
   0.00073139  0.03022887  0.99975772
   0.99904397  0.54256359  0.48292075
   0.52034419  0.99594306  0.51125097
   0.47764325  0.48562440  0.00141379
Direct configuration=     2
   0.97302743  0.15596177  0.22303538
   0.97516094  0.66811977  0.70448726
   0.01806747  0.18466392  0.79401050
   0.02149682  0.70011273  0.27212158
   0.21160483  0.19834208  0.98832899
   0.18658998  0.84721032  0.03779424
   0.79199900  0.21278832  0.01951415
   0.83853297  0.82476051  0.96047601
   0.33753491  0.96019999  0.32820177
   0.30858826  0.04518884  0.67210353
   0.72371074  0.98360257  0.69160126
   0.67880505  0.00721144  0.29634945
   0.20202177  0.70671344  0.47839971
   0.16740930  0.33224338  0.53487843
   0.78462223  0.71102718  0.51041451
   0.66312316  0.21158650  0.47845486
   0.28860597  0.49005995  0.82863102
   0.27685418  0.51037589  0.21489883
   0.81236686  0.45682856  0.31753081
   0.67990157  0.54651429  0.84664797
   0.47566965  0.29445163  0.79280216
   0.47937645  0.69004239  0.16103595
   0.53056665  0.31561007  0.18268490
   0.52097505  0.79495673  0.68814959
   0.49678425  0.50016805  0.50212870
   0.50410215  0.99705113  0.99190969
   0.98842207  0.49874296  0.00477757
   0.00621242  0.00229471  0.49896298
   0.11293086  0.88078022  0.63621086
   0.14944393  0.11764881  0.39199115
   0.88791081  0.88685261  0.36373059
   0.88072165  0.14238215  0.59904124
   0.84987601  0.61344732  0.11749468
   0.87975502  0.38609177  0.86190739
   0.11398388  0.63941064  0.90445547
   0.09847962  0.36982360  0.13432476
   0.62453852  0.12290643  0.86938726
   0.63314187  0.86892050  0.10110701
   0.38947835  0.11129777  0.13080265
   0.37195323  0.88621187  0.86875544
   0.61186006  0.61700045  0.36660773
   0.63168445  0.39898926  0.63138861
   0.36899208  0.61725721  0.62631914
   0.38068945  0.36305643  0.38816453
   0.75185066  0.75454628  0.74341047
   0.74526696  0.23573000  0.25204264
   0.25662615  0.74639507  0.24801866
   0.24309037  0.26217155  0.75853963
   0.00073164  0.03022691  0.99975756
   0.99904444  0.54256138  0.48292098
   0.52034280  0.99594380  0.51125025
   0.47764362  0.48562575  0.00141333
Direct configuration=     3
   0.97302770  0.15596124  0.22303524
   0.97516031  0.66811771  0.70448700
   0.01806790  0.18466300  0.79401022
   0.02149610  0.70011240  0.27212193
   0.21160430  0.19834227  0.98832905
   0.18659064  0.84721117  0.03779359
   0.79199964  0.21278821  0.01951393
   0.83853371  0.82476023  0.96047628
   0.33753514  0.96020055  0.32820168
   0.30858830  0.04518790  0.67210276
   0.72370966  0.98360286  0.69160217
   0.67880583  0.00721060  0.29634994
   0.20202036  0.70671428  0.47840009
   0.16740974  0.33224347  0.53487822
   0.78462336  0.71102815  0.51041405
   0.66312099  0.21158640  0.47845428
   0.28860600  0.49006028  0.82863076
   0.27685509  0.51037520  0.21489964
   0.81236631  0.45682908  0.31753144
   0.67990242  0.54651384  0.84664925
   0.47566949  0.29445240  0.79280262
   0.47937644  0.69004222  0.16103588
   0.53056536  0.31561018  0.18268402
   0.52097544  0.79495764  0.68814982
   0.49678431  0.50016540  0.50212810
   0.50410557  0.99705057  0.99190933
   0.98842269  0.49874166  0.00477898
   0.00621110  0.00229531  0.49896196
   0.11293282  0.88077867  0.63621475
   0.14944719  0.11764897  0.39199066
   0.88791014  0.88685097  0.36372732
   0.88072002  0.14238539  0.59904065
   0.84987164  0.61344721  0.11749716
   0.87975398  0.38608976  0.86190518
   0.11398685  0.63941465  0.90445531
   0.09847936  0.36982197  0.13432676
   0.62454011  0.12290798  0.86938462
   0.63314349  0.86891965  0.10110611
   0.38947589  0.11129936  0.13080633
   0.37195061  0.88620978  0.86875317
   0.61186092  0.61700295  0.36660469
   0.63168708  0.39898972  0.63139053
   0.36898906  0.61725896  0.62632195
   0.38068844  0.36305435  0.38816383
   0.75185052  0.75454640  0.74341185
   0.74526713  0.23573056  0.25204258
   0.25662735  0.74639590  0.24801879
   0.24308976  0.26217310  0.75853798
   0.00073182  0.03022555  0.99975744
   0.99904476  0.54255985  0.48292113
   0.52034184  0.99594432  0.51124976
   0.47764388  0.48562668  0.00141300
Direct configuration=     4
   0.97302822  0.15596018  0.22303496
   0.97515905  0.66811358  0.70448648
   0.01806877  0.18466116  0.79400966
   0.02149467  0.70011173  0.27212262
   0.21160325  0.19834264  0.98832916
   0.18659197  0.84721287  0.03779228
   0.79200091  0.21278799  0.01951348
   0.83853520  0.82475966  0.96047683
   0.33753561  0.96020166  0.32820152
   0.30858838  0.04518604  0.67210122
   0.72370750  0.98360343  0.69160401
   0.67880739  0.00720892  0.29635092
   0.20201754  0.70671597  0.47840085
   0.16741061  0.33224364  0.53487781
   0.78462563  0.71103009  0.51041314
   0.66311665  0.21158619  0.47845313
   0.28860606  0.49006095  0.82863025
   0.27685690  0.51037381  0.21490126
   0.81236522  0.45683012  0.31753271
   0.67990410  0.54651293  0.84665182
   0.47566917  0.29445394  0.79280355
   0.47937643  0.69004187  0.16103575
   0.53056280  0.31561041  0.18268226
   0.52097623  0.79495944  0.68815027
   0.49678443  0.50016010  0.50212689
   0.50411241  0.99704945  0.99190861
   0.98842392  0.49873905  0.00478179
   0.00620846  0.00229652  0.49895992
   0.11293675  0.88077555  0.63622252
   0.14945371  0.11764928  0.39198969
   0.88790879  0.88684769  0.36372077
   0.88071674  0.14239187  0.59903948
   0.84986289  0.61344699  0.11750213
   0.87975190  0.38608575  0.86190075
   0.11399281  0.63942267  0.90445498
   0.09847882  0.36981870  0.13433075
   0.62454329  0.12291108  0.86937934
   0.63314675  0.86891796  0.10110432
   0.38947097  0.11130254  0.13081371
   0.37194537  0.88620561  0.86874863
   0.61186263  0.61700795  0.36659862
   0.63169235  0.39899063  0.63139437
   0.36898301  0.61726246  0.62632756
   0.38068642  0.36305020  0.38816244
   0.75185024  0.75454664  0.74341461
   0.74526747  0.23573167  0.25204246
   0.25662974  0.74639758  0.24801905
   0.24308854  0.26217620  0.75853468
   0.00073217  0.03022283  0.99975722
   0.99904541  0.54255679  0.48292145
   0.52033992  0.99594535  0.51124877
   0.47764440  0.48562855  0.00141236
Direct configuration=     5
   0.97302797  0.15596069  0.22303509
   0.97515965  0.66811556  0.70448673
   0.01806835  0.18466204  0.79400993
   0.02149535  0.70011205  0.27212229
   0.21160375  0.19834246  0.98832911
   0.18659134  0.84721206  0.03779291
   0.79200030  0.21278810  0.01951369
   0.83853449  0.82475993  0.96047657
   0.33753539  0.96020113  0.32820160
   0.30858834  0.04518693  0.67210196
   0.72370853  0.98360316  0.69160313
   0.67880664  0.00720972  0.29635045
   0.20201889  0.70671516  0.47840049
   0.16741020  0.33224356  0.53487800
   0.78462454  0.71102916  0.51041357
   0.66311873  0.21158629  0.47845368
   0.28860603  0.49006063  0.82863049
   0.27685603  0.51037447  0.21490048
   0.81236574  0.45682962  0.31753211
   0.67990330  0.54651337  0.84665059
   0.47566932  0.29445320  0.79280311
   0.47937644  0.69004204  0.16103581
   0.53056403  0.31561030  0.18268310
   0.52097585  0.79495857  0.68815006
   0.49678438  0.50016264  0.50212747
   0.50410913  0.99704999  0.99190896
   0.98842333  0.49874030  0.00478044
   0.00620973  0.00229594  0.49896090
   0.11293487  0.88077704  0.63621880
   0.14945059  0.11764913  0.39199015
   0.88790943  0.88684926  0.36372390
   0.88071831  0.14238877  0.59904004
   0.84986708  0.61344709  0.11749976
   0.87975289  0.38608767  0.86190287
   0.11398996  0.63941883  0.90445514
   0.09847908  0.36982026  0.13432884
   0.62454177  0.12290959  0.86938187
   0.63314519  0.86891877  0.10110518
   0.38947332  0.11130102  0.13081018
   0.37194788  0.88620761  0.86875080
   0.61186181  0.61700556  0.36660153
   0.63168983  0.39899019  0.63139253
   0.36898590  0.61726078  0.62632488
   0.38068738  0.36305219  0.38816311
   0.75185037  0.75454652  0.74341329
   0.74526731  0.23573114  0.25204251
   0.25662859  0.74639678  0.24801892
   0.24308912  0.26217472  0.75853625
   0.00073200  0.03022413  0.99975733
   0.99904510  0.54255826  0.48292130
   0.52034084  0.99594486  0.51124924
   0.47764416  0.48562765  0.00141267
Direct configuration=     6
   0.97302812  0.15596040  0.22303501
   0.97515930  0.66811441  0.70448658
   0.01806859  0.18466153  0.79400977
   0.02149496  0.70011187  0.27212248
   0.21160346  0.19834256  0.98832914
   0.18659170  0.84721253  0.03779255
   0.79200066  0.21278803  0.01951357
   0.83853490  0.82475978  0.96047672
   0.33753552  0.96020144  0.32820155
   0.30858837  0.04518641  0.67210153
   0.72370794  0.98360332  0.69160364
   0.67880708  0.00720926  0.29635072
   0.20201811  0.70671563  0.47840070
   0.16741044  0.33224361  0.53487789
   0.78462517  0.71102970  0.51041332
   0.66311752  0.21158623  0.47845336
   0.28860605  0.49006082  0.82863035
   0.27685653  0.51037409  0.21490093
   0.81236544  0.45682991  0.31753246
   0.67990376  0.54651312  0.84665130
   0.47566923  0.29445363  0.79280336
   0.47937644  0.69004194  0.16103577
   0.53056332  0.31561036  0.18268262
   0.52097607  0.79495907  0.68815018
   0.49678441  0.50016117  0.50212714
   0.50411103  0.99704968  0.99190876
   0.98842367  0.49873957  0.00478122
   0.00620899  0.00229627  0.49896033
   0.11293596  0.88077618  0.63622095
   0.14945240  0.11764922  0.39198988
   0.88790906  0.88684835  0.36372209
   0.88071740  0.14239057  0.59903971
   0.84986466  0.61344703  0.11750113
   0.87975232  0.38608656  0.86190164
   0.11399161  0.63942105  0.90445505
   0.09847893  0.36981936  0.13432994
   0.62454265  0.12291045  0.86938041
   0.63314610  0.86891830  0.10110468
   0.38947196  0.11130190  0.13081223
   0.37194643  0.88620645  0.86874955
   0.61186228  0.61700695  0.36659985
   0.63169129  0.39899044  0.63139359
   0.36898423  0.61726175  0.62632643
   0.38068682  0.36305104  0.38816272
   0.75185029  0.75454659  0.74341406
   0.74526740  0.23573145  0.25204248
   0.25662926  0.74639724  0.24801900
   0.24308878  0.26217558  0.75853534
   0.00073210  0.03022337  0.99975726
   0.99904528  0.54255741  0.48292138
   0.52034031  0.99594515  0.51124897
   0.47764430  0.48562817  0.00141249
Direct configuration=     7
   0.97302808  0.15596047  0.22303504
   0.97515939  0.66811471  0.70448662
   0.01806853  0.18466166  0.79400981
   0.02149506  0.70011191  0.27212243
   0.21160354  0.19834254  0.98832913
   0.18659161  0.84721241  0.03779264
   0.79200056  0.21278805  0.01951360
   0.83853480  0.82475982  0.96047668
   0.33753549  0.96020136  0.32820157
   0.30858836  0.04518655  0.67210165
   0.72370809  0.98360328  0.69160351
   0.67880696  0.00720938  0.29635065
   0.20201831  0.70671551  0.47840064
   0.16741037  0.33224360  0.53487792
   0.78462501  0.71102956  0.51041339
   0.66311783  0.21158625  0.47845344
   0.28860604  0.49006077  0.82863039
   0.27685640  0.51037419  0.21490082
   0.81236552  0.45682984  0.31753237
   0.67990364  0.54651318  0.84665112
   0.47566925  0.29445352  0.79280330
   0.47937644  0.69004196  0.16103578
   0.53056350  0.31561035  0.18268274
   0.52097602  0.79495894  0.68815015
   0.49678440  0.50016155  0.50212722
   0.50411054  0.99704976  0.99190881
   0.98842358  0.49873976  0.00478102
   0.00620918  0.00229619  0.49896048
   0.11293568  0.88077640  0.63622039
   0.14945193  0.11764920  0.39198995
   0.88790916  0.88684859  0.36372256
   0.88071764  0.14239010  0.59903980
   0.84986528  0.61344705  0.11750078
   0.87975246  0.38608685  0.86190196
   0.11399119  0.63942048  0.90445507
   0.09847897  0.36981959  0.13432966
   0.62454242  0.12291023  0.86938078
   0.63314586  0.86891842  0.10110481
   0.38947231  0.11130167  0.13081170
   0.37194680  0.88620675  0.86874987
   0.61186216  0.61700659  0.36660028
   0.63169091  0.39899038  0.63139332
   0.36898466  0.61726150  0.62632603
   0.38068697  0.36305133  0.38816282
   0.75185031  0.75454657  0.74341386
   0.74526738  0.23573137  0.25204249
   0.25662908  0.74639712  0.24801898
   0.24308887  0.26217535  0.75853558
   0.00073207  0.03022357  0.99975728
   0.99904523  0.54255763  0.48292136
   0.52034044  0.99594507  0.51124904
   0.47764426  0.48562804  0.00141254
Direct configuration=     8
   0.97302811  0.15596042  0.22303502
   0.97515933  0.66811451  0.70448660
   0.01806857  0.18466157  0.79400978
   0.02149499  0.70011188  0.27212247
   0.21160348  0.19834255  0.98832914
   0.18659167  0.84721249  0.03779258
   0.79200063  0.21278804  0.01951358
   0.83853487  0.82475979  0.96047671
   0.33753551  0.96020141  0.32820156
   0.30858837  0.04518646  0.67210157
   0.72370799  0.98360330  0.69160359
   0.67880704  0.00720930  0.29635070
   0.20201818  0.70671559  0.47840068
   0.16741042  0.33224360  0.53487790
   0.78462512  0.71102966  0.51041334
   0.66311762  0.21158624  0.47845339
   0.28860605  0.49006080  0.82863036
   0.27685649  0.51037412  0.21490089
   0.81236546  0.45682989  0.31753243
   0.67990372  0.54651314  0.84665124
   0.47566924  0.29445359  0.79280334
   0.47937644  0.69004195  0.16103578
   0.53056338  0.31561036  0.18268266
   0.52097605  0.79495903  0.68815017
   0.49678441  0.50016130  0.50212716
   0.50411087  0.99704970  0.99190878
   0.98842364  0.49873964  0.00478116
   0.00620906  0.00229625  0.49896038
   0.11293587  0.88077625  0.63622077
   0.14945224  0.11764921  0.39198991
   0.88790909  0.88684843  0.36372224
   0.88071748  0.14239041  0.59903974
   0.84986486  0.61344704  0.11750102
   0.87975236  0.38608666  0.86190175
   0.11399147  0.63942086  0.90445505
   0.09847894  0.36981944  0.13432985
   0.62454258  0.12291038  0.86938053
   0.63314602  0.86891834  0.10110473
   0.38947207  0.11130183  0.13081205
   0.37194655  0.88620655  0.86874965
   0.61186224  0.61700683  0.36659999
   0.63169116  0.39899042  0.63139350
   0.36898437  0.61726167  0.62632630
   0.38068687  0.36305113  0.38816276
   0.75185030  0.75454658  0.74341399
   0.74526739  0.23573142  0.25204248
   0.25662920  0.74639720  0.24801899
   0.24308881  0.26217550  0.75853542
   0.00073209  0.03022344  0.99975727
   0.99904526  0.54255748  0.48292138
   0.52034035  0.99594512  0.51124899
   0.47764429  0.48562813  0.00141251
Direct configuration=     9
   0.97302883  0.15595886  0.22303502
   0.97515850  0.66810986  0.70448657
   0.01806958  0.18465906  0.79400898
   0.02149414  0.70011064  0.27212267
   0.21160281  0.19834264  0.98832878
   0.18659329  0.84721447  0.03779185
   0.79200206  0.21278767  0.01951327
   0.83853728  0.82475884  0.96047723
   0.33753630  0.96020207  0.32820157
   0.30858837  0.04518480  0.67210012
   0.72370649  0.98360381  0.69160489
   0.67880835  0.00720789  0.29635169
   0.20201555  0.70671737  0.47840177
   0.16741092  0.33224393  0.53487745
   0.78462710  0.71103142  0.51041274
   0.66311273  0.21158603  0.47845218
   0.28860601  0.49006180  0.82863001
   0.27685825  0.51037331  0.21490242
   0.81236423  0.45683088  0.31753412
   0.67990544  0.54651246  0.84665435
   0.47566851  0.29445541  0.79280431
   0.47937627  0.69004162  0.16103527
   0.53056118  0.31561039  0.18268063
   0.52097637  0.79496020  0.68815042
   0.49678363  0.50016473  0.50212871
   0.50410667  0.99705118  0.99190736
   0.98842248  0.49874295  0.00478044
   0.00620857  0.00229538  0.49896035
   0.11293417  0.88077817  0.63622256
   0.14945525  0.11764723  0.39199090
   0.88790997  0.88684716  0.36371793
   0.88071597  0.14239410  0.59903635
   0.84986099  0.61344253  0.11750223
   0.87975399  0.38608569  0.86190134
   0.11399197  0.63942291  0.90445897
   0.09847821  0.36981678  0.13433365
   0.62454415  0.12291210  0.86937732
   0.63314993  0.86891678  0.10110316
   0.38947276  0.11129999  0.13081253
   0.37194742  0.88620737  0.86875006
   0.61186047  0.61700756  0.36659901
   0.63169454  0.39899247  0.63139457
   0.36898384  0.61726008  0.62632647
   0.38068636  0.36304724  0.38816218
   0.75185022  0.75454703  0.74341582
   0.74526737  0.23573199  0.25204209
   0.25663072  0.74639785  0.24801977
   0.24308800  0.26217800  0.75853307
   0.00073251  0.03022250  0.99975724
   0.99904604  0.54255651  0.48292090
   0.52033975  0.99594623  0.51124857
   0.47764404  0.48562896  0.00141194
