  52  52   0  16
  0.1746956E+02  0.9684899E-09  0.9684899E-09  0.9684899E-09  0.2000000E-15
  1.000000000000000E-004
  CAR 
 unknown system                          
     12.51221234    -45.49278915  301      2.11964957      1.00000000
    -45.493  0.0000E+00  0.0000E+00  0.0000E+00  0.0000E+00
    -45.299  0.0000E+00  0.0000E+00  0.0000E+00  0.0000E+00
    -45.106  0.0000E+00  0.0000E+00  0.0000E+00  0.0000E+00
    -44.913  0.0000E+00  0.0000E+00  0.0000E+00  0.0000E+00
    -44.719  0.0000E+00  0.0000E+00  0.0000E+00  0.0000E+00
    -44.526  0.0000E+00  0.0000E+00  0.0000E+00  0.0000E+00
    -44.333  0.0000E+00  0.0000E+00  0.0000E+00  0.0000E+00
    -44.139  0.0000E+00  0.0000E+00  0.0000E+00  0.0000E+00
    -43.946  0.0000E+00  0.0000E+00  0.0000E+00  0.0000E+00
    -43.753  0.0000E+00  0.0000E+00  0.0000E+00  0.0000E+00
    -43.559  0.0000E+00  0.0000E+00  0.0000E+00  0.0000E+00
    -43.366  0.0000E+00  0.0000E+00  0.0000E+00  0.0000E+00
    -43.173  0.0000E+00  0.0000E+00  0.0000E+00  0.0000E+00
    -42.979  0.1712E-10  0.1712E-10  0.3311E-11  0.3311E-11
    -42.786  0.1100E-01  0.1100E-01  0.2127E-02  0.2127E-02
    -42.593  0.2295E-01  0.2295E-01  0.6565E-02  0.6565E-02
    -42.399  0.5089E-01  0.5089E-01  0.1641E-01  0.1641E-01
    -42.206  0.2456E-01  0.2456E-01  0.2117E-01  0.2117E-01
    -42.012  0.1465E-01  0.1465E-01  0.2400E-01  0.2400E-01
    -41.819  0.0000E+00  0.0000E+00  0.2400E-01  0.2400E-01
    -41.626  0.0000E+00  0.0000E+00  0.2400E-01  0.2400E-01
    -41.432  0.0000E+00  0.0000E+00  0.2400E-01  0.2400E-01
    -41.239  0.0000E+00  0.0000E+00  0.2400E-01  0.2400E-01
    -41.046  0.0000E+00  0.0000E+00  0.2400E-01  0.2400E-01
    -40.852  0.0000E+00  0.0000E+00  0.2400E-01  0.2400E-01
    -40.659  0.0000E+00  0.0000E+00  0.2400E-01  0.2400E-01
    -40.466  0.0000E+00  0.0000E+00  0.2400E-01  0.2400E-01
    -40.272  0.0000E+00  0.0000E+00  0.2400E-01  0.2400E-01
    -40.079  0.0000E+00  0.0000E+00  0.2400E-01  0.2400E-01
    -39.886  0.0000E+00  0.0000E+00  0.2400E-01  0.2400E-01
    -39.692  0.0000E+00  0.0000E+00  0.2400E-01  0.2400E-01
    -39.499  0.0000E+00  0.0000E+00  0.2400E-01  0.2400E-01
    -39.306  0.0000E+00  0.0000E+00  0.2400E-01  0.2400E-01
    -39.112  0.0000E+00  0.0000E+00  0.2400E-01  0.2400E-01
    -38.919  0.0000E+00  0.0000E+00  0.2400E-01  0.2400E-01
    -38.726  0.0000E+00  0.0000E+00  0.2400E-01  0.2400E-01
    -38.532  0.0000E+00  0.0000E+00  0.2400E-01  0.2400E-01
    -38.339  0.0000E+00  0.0000E+00  0.2400E-01  0.2400E-01
    -38.145  0.0000E+00  0.0000E+00  0.2400E-01  0.2400E-01
    -37.952  0.0000E+00  0.0000E+00  0.2400E-01  0.2400E-01
    -37.759  0.0000E+00  0.0000E+00  0.2400E-01  0.2400E-01
    -37.565  0.0000E+00  0.0000E+00  0.2400E-01  0.2400E-01
    -37.372  0.0000E+00  0.0000E+00  0.2400E-01  0.2400E-01
    -37.179  0.0000E+00  0.0000E+00  0.2400E-01  0.2400E-01
    -36.985  0.0000E+00  0.0000E+00  0.2400E-01  0.2400E-01
    -36.792  0.0000E+00  0.0000E+00  0.2400E-01  0.2400E-01
    -36.599  0.0000E+00  0.0000E+00  0.2400E-01  0.2400E-01
    -36.405  0.0000E+00  0.0000E+00  0.2400E-01  0.2400E-01
    -36.212  0.0000E+00  0.0000E+00  0.2400E-01  0.2400E-01
    -36.019  0.0000E+00  0.0000E+00  0.2400E-01  0.2400E-01
    -35.825  0.0000E+00  0.0000E+00  0.2400E-01  0.2400E-01
    -35.632  0.0000E+00  0.0000E+00  0.2400E-01  0.2400E-01
    -35.439  0.0000E+00  0.0000E+00  0.2400E-01  0.2400E-01
    -35.245  0.0000E+00  0.0000E+00  0.2400E-01  0.2400E-01
    -35.052  0.0000E+00  0.0000E+00  0.2400E-01  0.2400E-01
    -34.859  0.0000E+00  0.0000E+00  0.2400E-01  0.2400E-01
    -34.665  0.0000E+00  0.0000E+00  0.2400E-01  0.2400E-01
    -34.472  0.0000E+00  0.0000E+00  0.2400E-01  0.2400E-01
    -34.278  0.0000E+00  0.0000E+00  0.2400E-01  0.2400E-01
    -34.085  0.0000E+00  0.0000E+00  0.2400E-01  0.2400E-01
    -33.892  0.0000E+00  0.0000E+00  0.2400E-01  0.2400E-01
    -33.698  0.0000E+00  0.0000E+00  0.2400E-01  0.2400E-01
    -33.505  0.0000E+00  0.0000E+00  0.2400E-01  0.2400E-01
    -33.312  0.0000E+00  0.0000E+00  0.2400E-01  0.2400E-01
    -33.118  0.0000E+00  0.0000E+00  0.2400E-01  0.2400E-01
    -32.925  0.0000E+00  0.0000E+00  0.2400E-01  0.2400E-01
    -32.732  0.0000E+00  0.0000E+00  0.2400E-01  0.2400E-01
    -32.538  0.0000E+00  0.0000E+00  0.2400E-01  0.2400E-01
    -32.345  0.0000E+00  0.0000E+00  0.2400E-01  0.2400E-01
    -32.152  0.0000E+00  0.0000E+00  0.2400E-01  0.2400E-01
    -31.958  0.0000E+00  0.0000E+00  0.2400E-01  0.2400E-01
    -31.765  0.0000E+00  0.0000E+00  0.2400E-01  0.2400E-01
    -31.572  0.0000E+00  0.0000E+00  0.2400E-01  0.2400E-01
    -31.378  0.0000E+00  0.0000E+00  0.2400E-01  0.2400E-01
    -31.185  0.0000E+00  0.0000E+00  0.2400E-01  0.2400E-01
    -30.992  0.0000E+00  0.0000E+00  0.2400E-01  0.2400E-01
    -30.798  0.0000E+00  0.0000E+00  0.2400E-01  0.2400E-01
    -30.605  0.0000E+00  0.0000E+00  0.2400E-01  0.2400E-01
    -30.411  0.0000E+00  0.0000E+00  0.2400E-01  0.2400E-01
    -30.218  0.0000E+00  0.0000E+00  0.2400E-01  0.2400E-01
    -30.025  0.0000E+00  0.0000E+00  0.2400E-01  0.2400E-01
    -29.831  0.0000E+00  0.0000E+00  0.2400E-01  0.2400E-01
    -29.638  0.0000E+00  0.0000E+00  0.2400E-01  0.2400E-01
    -29.445  0.0000E+00  0.0000E+00  0.2400E-01  0.2400E-01
    -29.251  0.0000E+00  0.0000E+00  0.2400E-01  0.2400E-01
    -29.058  0.0000E+00  0.0000E+00  0.2400E-01  0.2400E-01
    -28.865  0.0000E+00  0.0000E+00  0.2400E-01  0.2400E-01
    -28.671  0.0000E+00  0.0000E+00  0.2400E-01  0.2400E-01
    -28.478  0.0000E+00  0.0000E+00  0.2400E-01  0.2400E-01
    -28.285  0.0000E+00  0.0000E+00  0.2400E-01  0.2400E-01
    -28.091  0.0000E+00  0.0000E+00  0.2400E-01  0.2400E-01
    -27.898  0.0000E+00  0.0000E+00  0.2400E-01  0.2400E-01
    -27.705  0.0000E+00  0.0000E+00  0.2400E-01  0.2400E-01
    -27.511  0.0000E+00  0.0000E+00  0.2400E-01  0.2400E-01
    -27.318  0.0000E+00  0.0000E+00  0.2400E-01  0.2400E-01
    -27.125  0.0000E+00  0.0000E+00  0.2400E-01  0.2400E-01
    -26.931  0.0000E+00  0.0000E+00  0.2400E-01  0.2400E-01
    -26.738  0.0000E+00  0.0000E+00  0.2400E-01  0.2400E-01
    -26.544  0.0000E+00  0.0000E+00  0.2400E-01  0.2400E-01
    -26.351  0.0000E+00  0.0000E+00  0.2400E-01  0.2400E-01
    -26.158  0.0000E+00  0.0000E+00  0.2400E-01  0.2400E-01
    -25.964  0.0000E+00  0.0000E+00  0.2400E-01  0.2400E-01
    -25.771  0.0000E+00  0.0000E+00  0.2400E-01  0.2400E-01
    -25.578  0.0000E+00  0.0000E+00  0.2400E-01  0.2400E-01
    -25.384  0.0000E+00  0.0000E+00  0.2400E-01  0.2400E-01
    -25.191  0.0000E+00  0.0000E+00  0.2400E-01  0.2400E-01
    -24.998  0.0000E+00  0.0000E+00  0.2400E-01  0.2400E-01
    -24.804  0.0000E+00  0.0000E+00  0.2400E-01  0.2400E-01
    -24.611  0.0000E+00  0.0000E+00  0.2400E-01  0.2400E-01
    -24.418  0.0000E+00  0.0000E+00  0.2400E-01  0.2400E-01
    -24.224  0.0000E+00  0.0000E+00  0.2400E-01  0.2400E-01
    -24.031  0.0000E+00  0.0000E+00  0.2400E-01  0.2400E-01
    -23.838  0.0000E+00  0.0000E+00  0.2400E-01  0.2400E-01
    -23.644  0.0000E+00  0.0000E+00  0.2400E-01  0.2400E-01
    -23.451  0.0000E+00  0.0000E+00  0.2400E-01  0.2400E-01
    -23.258  0.0000E+00  0.0000E+00  0.2400E-01  0.2400E-01
    -23.064  0.0000E+00  0.0000E+00  0.2400E-01  0.2400E-01
    -22.871  0.0000E+00  0.0000E+00  0.2400E-01  0.2400E-01
    -22.677  0.0000E+00  0.0000E+00  0.2400E-01  0.2400E-01
    -22.484  0.0000E+00  0.0000E+00  0.2400E-01  0.2400E-01
    -22.291  0.0000E+00  0.0000E+00  0.2400E-01  0.2400E-01
    -22.097  0.0000E+00  0.0000E+00  0.2400E-01  0.2400E-01
    -21.904  0.0000E+00  0.0000E+00  0.2400E-01  0.2400E-01
    -21.711  0.0000E+00  0.0000E+00  0.2400E-01  0.2400E-01
    -21.517  0.0000E+00  0.0000E+00  0.2400E-01  0.2400E-01
    -21.324  0.0000E+00  0.0000E+00  0.2400E-01  0.2400E-01
    -21.131  0.0000E+00  0.0000E+00  0.2400E-01  0.2400E-01
    -20.937  0.0000E+00  0.0000E+00  0.2400E-01  0.2400E-01
    -20.744  0.0000E+00  0.0000E+00  0.2400E-01  0.2400E-01
    -20.551  0.0000E+00  0.0000E+00  0.2400E-01  0.2400E-01
    -20.357  0.0000E+00  0.0000E+00  0.2400E-01  0.2400E-01
    -20.164  0.0000E+00  0.0000E+00  0.2400E-01  0.2400E-01
    -19.971  0.0000E+00  0.0000E+00  0.2400E-01  0.2400E-01
    -19.777  0.0000E+00  0.0000E+00  0.2400E-01  0.2400E-01
    -19.584  0.0000E+00  0.0000E+00  0.2400E-01  0.2400E-01
    -19.391  0.0000E+00  0.0000E+00  0.2400E-01  0.2400E-01
    -19.197  0.0000E+00  0.0000E+00  0.2400E-01  0.2400E-01
    -19.004  0.0000E+00  0.0000E+00  0.2400E-01  0.2400E-01
    -18.810  0.0000E+00  0.0000E+00  0.2400E-01  0.2400E-01
    -18.617  0.0000E+00  0.0000E+00  0.2400E-01  0.2400E-01
    -18.424  0.0000E+00  0.0000E+00  0.2400E-01  0.2400E-01
    -18.230  0.0000E+00  0.0000E+00  0.2400E-01  0.2400E-01
    -18.037  0.0000E+00  0.0000E+00  0.2400E-01  0.2400E-01
    -17.844  0.0000E+00  0.0000E+00  0.2400E-01  0.2400E-01
    -17.650  0.0000E+00  0.0000E+00  0.2400E-01  0.2400E-01
    -17.457  0.0000E+00  0.0000E+00  0.2400E-01  0.2400E-01
    -17.264  0.0000E+00  0.0000E+00  0.2400E-01  0.2400E-01
    -17.070  0.0000E+00  0.0000E+00  0.2400E-01  0.2400E-01
    -16.877  0.0000E+00  0.0000E+00  0.2400E-01  0.2400E-01
    -16.684  0.0000E+00  0.0000E+00  0.2400E-01  0.2400E-01
    -16.490  0.0000E+00  0.0000E+00  0.2400E-01  0.2400E-01
    -16.297  0.0000E+00  0.0000E+00  0.2400E-01  0.2400E-01
    -16.104  0.0000E+00  0.0000E+00  0.2400E-01  0.2400E-01
    -15.910  0.0000E+00  0.0000E+00  0.2400E-01  0.2400E-01
    -15.717  0.0000E+00  0.0000E+00  0.2400E-01  0.2400E-01
    -15.524  0.0000E+00  0.0000E+00  0.2400E-01  0.2400E-01
    -15.330  0.0000E+00  0.0000E+00  0.2400E-01  0.2400E-01
    -15.137  0.0000E+00  0.0000E+00  0.2400E-01  0.2400E-01
    -14.943  0.0000E+00  0.0000E+00  0.2400E-01  0.2400E-01
    -14.750  0.0000E+00  0.0000E+00  0.2400E-01  0.2400E-01
    -14.557  0.0000E+00  0.0000E+00  0.2400E-01  0.2400E-01
    -14.363  0.0000E+00  0.0000E+00  0.2400E-01  0.2400E-01
    -14.170  0.0000E+00  0.0000E+00  0.2400E-01  0.2400E-01
    -13.977  0.0000E+00  0.0000E+00  0.2400E-01  0.2400E-01
    -13.783  0.0000E+00  0.0000E+00  0.2400E-01  0.2400E-01
    -13.590  0.0000E+00  0.0000E+00  0.2400E-01  0.2400E-01
    -13.397  0.0000E+00  0.0000E+00  0.2400E-01  0.2400E-01
    -13.203  0.5155E-08  0.5155E-08  0.2400E-01  0.2400E-01
    -13.010  0.8090E-02  0.8090E-02  0.2556E-01  0.2556E-01
    -12.817  0.1859E-01  0.1859E-01  0.2916E-01  0.2916E-01
    -12.623  0.1468E-01  0.1468E-01  0.3200E-01  0.3200E-01
    -12.430  0.0000E+00  0.0000E+00  0.3200E-01  0.3200E-01
    -12.237  0.0000E+00  0.0000E+00  0.3200E-01  0.3200E-01
    -12.043  0.0000E+00  0.0000E+00  0.3200E-01  0.3200E-01
    -11.850  0.0000E+00  0.0000E+00  0.3200E-01  0.3200E-01
    -11.657  0.0000E+00  0.0000E+00  0.3200E-01  0.3200E-01
    -11.463  0.0000E+00  0.0000E+00  0.3200E-01  0.3200E-01
    -11.270  0.0000E+00  0.0000E+00  0.3200E-01  0.3200E-01
    -11.076  0.0000E+00  0.0000E+00  0.3200E-01  0.3200E-01
    -10.883  0.0000E+00  0.0000E+00  0.3200E-01  0.3200E-01
    -10.690  0.0000E+00  0.0000E+00  0.3200E-01  0.3200E-01
    -10.496  0.0000E+00  0.0000E+00  0.3200E-01  0.3200E-01
    -10.303  0.4065E-02  0.4065E-02  0.3279E-01  0.3279E-01
    -10.110  0.1606E-01  0.1606E-01  0.3589E-01  0.3589E-01
     -9.916  0.3463E-01  0.3463E-01  0.4259E-01  0.4259E-01
     -9.723  0.7272E-02  0.7272E-02  0.4400E-01  0.4400E-01
     -9.530  0.0000E+00  0.0000E+00  0.4400E-01  0.4400E-01
     -9.336  0.0000E+00  0.0000E+00  0.4400E-01  0.4400E-01
     -9.143  0.0000E+00  0.0000E+00  0.4400E-01  0.4400E-01
     -8.950  0.0000E+00  0.0000E+00  0.4400E-01  0.4400E-01
     -8.756  0.1971E-04  0.1971E-04  0.4400E-01  0.4400E-01
     -8.563  0.5152E-02  0.5152E-02  0.4500E-01  0.4500E-01
     -8.370  0.3498E-02  0.3498E-02  0.4568E-01  0.4568E-01
     -8.176  0.6846E-02  0.6846E-02  0.4700E-01  0.4700E-01
     -7.983  0.0000E+00  0.0000E+00  0.4700E-01  0.4700E-01
     -7.790  0.1909E-02  0.1909E-02  0.4737E-01  0.4737E-01
     -7.596  0.3263E-02  0.3263E-02  0.4800E-01  0.4800E-01
     -7.403  0.0000E+00  0.0000E+00  0.4800E-01  0.4800E-01
     -7.209  0.0000E+00  0.0000E+00  0.4800E-01  0.4800E-01
     -7.016  0.0000E+00  0.0000E+00  0.4800E-01  0.4800E-01
     -6.823  0.0000E+00  0.0000E+00  0.4800E-01  0.4800E-01
     -6.629  0.0000E+00  0.0000E+00  0.4800E-01  0.4800E-01
     -6.436  0.0000E+00  0.0000E+00  0.4800E-01  0.4800E-01
     -6.243  0.5604E-10  0.5604E-10  0.4800E-01  0.4800E-01
     -6.049  0.5170E-02  0.5170E-02  0.4900E-01  0.4900E-01
     -5.856  0.1166E-07  0.1166E-07  0.4900E-01  0.4900E-01
     -5.663  0.6284E-02  0.6284E-02  0.5022E-01  0.5022E-01
     -5.469  0.9229E-02  0.9229E-02  0.5200E-01  0.5200E-01
     -5.276  0.0000E+00  0.0000E+00  0.5200E-01  0.5200E-01
     -5.083  0.0000E+00  0.0000E+00  0.5200E-01  0.5200E-01
     -4.889  0.0000E+00  0.0000E+00  0.5200E-01  0.5200E-01
     -4.696  0.0000E+00  0.0000E+00  0.5200E-01  0.5200E-01
     -4.503  0.0000E+00  0.0000E+00  0.5200E-01  0.5200E-01
     -4.309  0.0000E+00  0.0000E+00  0.5200E-01  0.5200E-01
     -4.116  0.0000E+00  0.0000E+00  0.5200E-01  0.5200E-01
     -3.923  0.0000E+00  0.0000E+00  0.5200E-01  0.5200E-01
     -3.729  0.0000E+00  0.0000E+00  0.5200E-01  0.5200E-01
     -3.536  0.0000E+00  0.0000E+00  0.5200E-01  0.5200E-01
     -3.342  0.7170E-09  0.7170E-09  0.5200E-01  0.5200E-01
     -3.149  0.1269E-01  0.1269E-01  0.5445E-01  0.5445E-01
     -2.956  0.2819E-02  0.2819E-02  0.5500E-01  0.5500E-01
     -2.762  0.5930E-02  0.5930E-02  0.5615E-01  0.5615E-01
     -2.569  0.1100E-01  0.1100E-01  0.5827E-01  0.5827E-01
     -2.376  0.2010E-01  0.2010E-01  0.6216E-01  0.6216E-01
     -2.182  0.8919E-02  0.8919E-02  0.6388E-01  0.6388E-01
     -1.989  0.5780E-03  0.5780E-03  0.6400E-01  0.6400E-01
     -1.796  0.5183E-05  0.5183E-05  0.6400E-01  0.6400E-01
     -1.602  0.1405E-01  0.1405E-01  0.6672E-01  0.6672E-01
     -1.409  0.2068E-01  0.2068E-01  0.7072E-01  0.7072E-01
     -1.216  0.1865E-01  0.1865E-01  0.7433E-01  0.7433E-01
     -1.022  0.8650E-02  0.8650E-02  0.7600E-01  0.7600E-01
     -0.829  0.0000E+00  0.0000E+00  0.7600E-01  0.7600E-01
     -0.636  0.1153E-02  0.1153E-02  0.7622E-01  0.7622E-01
     -0.442  0.1444E-01  0.1444E-01  0.7902E-01  0.7902E-01
     -0.249  0.1171E-01  0.1171E-01  0.8128E-01  0.8128E-01
     -0.056  0.2261E-01  0.2261E-01  0.8565E-01  0.8565E-01
      0.138  0.2632E-01  0.2632E-01  0.9075E-01  0.9075E-01
      0.331  0.1758E-01  0.1758E-01  0.9415E-01  0.9415E-01
      0.525  0.9563E-02  0.9563E-02  0.9600E-01  0.9600E-01
      0.718  0.6699E-02  0.6699E-02  0.9730E-01  0.9730E-01
      0.911  0.1809E-01  0.1809E-01  0.1008E+00  0.1008E+00
      1.105  0.1990E-01  0.1990E-01  0.1046E+00  0.1046E+00
      1.298  0.2306E-01  0.2306E-01  0.1091E+00  0.1091E+00
      1.491  0.2392E-01  0.2392E-01  0.1137E+00  0.1137E+00
      1.685  0.1595E-01  0.1595E-01  0.1168E+00  0.1168E+00
      1.878  0.1120E-01  0.1120E-01  0.1190E+00  0.1190E+00
      2.071  0.5242E-02  0.5242E-02  0.1200E+00  0.1200E+00
      2.265  0.0000E+00  0.0000E+00  0.1200E+00  0.1200E+00
      2.458  0.0000E+00  0.0000E+00  0.1200E+00  0.1200E+00
      2.651  0.0000E+00  0.0000E+00  0.1200E+00  0.1200E+00
      2.845  0.0000E+00  0.0000E+00  0.1200E+00  0.1200E+00
      3.038  0.0000E+00  0.0000E+00  0.1200E+00  0.1200E+00
      3.231  0.0000E+00  0.0000E+00  0.1200E+00  0.1200E+00
      3.425  0.0000E+00  0.0000E+00  0.1200E+00  0.1200E+00
      3.618  0.0000E+00  0.0000E+00  0.1200E+00  0.1200E+00
      3.811  0.0000E+00  0.0000E+00  0.1200E+00  0.1200E+00
      4.005  0.0000E+00  0.0000E+00  0.1200E+00  0.1200E+00
      4.198  0.0000E+00  0.0000E+00  0.1200E+00  0.1200E+00
      4.392  0.1226E-02  0.1226E-02  0.1202E+00  0.1202E+00
      4.585  0.3946E-02  0.3946E-02  0.1210E+00  0.1210E+00
      4.778  0.0000E+00  0.0000E+00  0.1210E+00  0.1210E+00
      4.972  0.0000E+00  0.0000E+00  0.1210E+00  0.1210E+00
      5.165  0.1028E-02  0.1028E-02  0.1212E+00  0.1212E+00
      5.358  0.1262E-01  0.1262E-01  0.1236E+00  0.1236E+00
      5.552  0.1860E-02  0.1860E-02  0.1240E+00  0.1240E+00
      5.745  0.1063E-07  0.1063E-07  0.1240E+00  0.1240E+00
      5.938  0.8378E-02  0.8378E-02  0.1256E+00  0.1256E+00
      6.132  0.1415E-01  0.1415E-01  0.1284E+00  0.1284E+00
      6.325  0.8490E-02  0.8490E-02  0.1300E+00  0.1300E+00
      6.518  0.5111E-02  0.5111E-02  0.1310E+00  0.1310E+00
      6.712  0.1049E-01  0.1049E-01  0.1330E+00  0.1330E+00
      6.905  0.1501E-01  0.1501E-01  0.1359E+00  0.1359E+00
      7.098  0.5576E-02  0.5576E-02  0.1370E+00  0.1370E+00
      7.292  0.3843E-02  0.3843E-02  0.1377E+00  0.1377E+00
      7.485  0.9022E-02  0.9022E-02  0.1395E+00  0.1395E+00
      7.678  0.1360E-01  0.1360E-01  0.1421E+00  0.1421E+00
      7.872  0.1176E-01  0.1176E-01  0.1444E+00  0.1444E+00
      8.065  0.1343E-01  0.1343E-01  0.1470E+00  0.1470E+00
      8.259  0.1074E-01  0.1074E-01  0.1491E+00  0.1491E+00
      8.452  0.1399E-01  0.1399E-01  0.1518E+00  0.1518E+00
      8.645  0.1456E-01  0.1456E-01  0.1546E+00  0.1546E+00
      8.839  0.1618E-01  0.1618E-01  0.1577E+00  0.1577E+00
      9.032  0.1994E-01  0.1994E-01  0.1616E+00  0.1616E+00
      9.225  0.1771E-01  0.1771E-01  0.1650E+00  0.1650E+00
      9.419  0.1823E-01  0.1824E-01  0.1685E+00  0.1685E+00
      9.612  0.1586E-01  0.1571E-01  0.1716E+00  0.1716E+00
      9.805  0.1811E-01  0.1832E-01  0.1751E+00  0.1751E+00
      9.999  0.4613E-02  0.4549E-02  0.1760E+00  0.1760E+00
     10.192  0.0000E+00  0.0000E+00  0.1760E+00  0.1760E+00
     10.385  0.0000E+00  0.0000E+00  0.1760E+00  0.1760E+00
     10.579  0.0000E+00  0.0000E+00  0.1760E+00  0.1760E+00
     10.772  0.0000E+00  0.0000E+00  0.1760E+00  0.1760E+00
     10.965  0.0000E+00  0.0000E+00  0.1760E+00  0.1760E+00
     11.159  0.0000E+00  0.0000E+00  0.1760E+00  0.1760E+00
     11.352  0.0000E+00  0.0000E+00  0.1760E+00  0.1760E+00
     11.545  0.0000E+00  0.0000E+00  0.1760E+00  0.1760E+00
     11.739  0.0000E+00  0.0000E+00  0.1760E+00  0.1760E+00
     11.932  0.0000E+00  0.0000E+00  0.1760E+00  0.1760E+00
     12.126  0.0000E+00  0.0000E+00  0.1760E+00  0.1760E+00
     12.319  0.0000E+00  0.0000E+00  0.1760E+00  0.1760E+00
     12.512  0.0000E+00  0.0000E+00  0.1760E+00  0.1760E+00
