 vasp.6.4.1 05Apr23 (build Jun 07 2023 15:38:11) complex                        
  
 executed on             LinuxIFC date 2023.10.16  22:22:57
 running  128 mpi-ranks, with    1 threads/rank, on    1 nodes
 distrk:  each k-point on  128 cores,    1 groups
 distr:  one band on NCORE=  32 cores,    4 groups


--------------------------------------------------------------------------------------------------------


 INCAR:
   GGA = PE
   PREC = Accu
   EDIFF = 1.e-6
   EDIFFG = -1.e-3
   ENCUT = 520.
   NELM = 100
   NELMDL = -10
   LASPH = .TRUE.
   LREAL = Auto
   LMAXMIX = 4
   ISPIN = 2
   LDIAG = .TRUE.
   LPLANE = .TRUE.
   IVDW = 12
   SIGMA = 0.03
   ISMEAR = 0
   NSW = 1000    number of steps for IOM
   IBRION = 2    ionic relax: 0-MD 1-quasi-New 2-CG
   ISIF = 2    ionic relaxation + stress tensor calcn.
   LCHARG = .FALSE.
   LWAVE = .FALSE.
   ALGO = F
   KPAR = 1
   NPAR = 4
   POTIM = 0.2

 POTCAR:    PAW_PBE Li_sv_GW 25Mar2010            
 POTCAR:    PAW_PBE P_GW 19Mar2012                
 POTCAR:    PAW_PBE S_GW 19Mar2012                
 POTCAR:    PAW_PBE Cl_GW 19Mar2012               
 -----------------------------------------------------------------------------
|                                                                             |
|           W    W    AA    RRRRR   N    N  II  N    N   GGGG   !!!           |
|           W    W   A  A   R    R  NN   N  II  NN   N  G    G  !!!           |
|           W    W  A    A  R    R  N N  N  II  N N  N  G       !!!           |
|           W WW W  AAAAAA  RRRRR   N  N N  II  N  N N  G  GGG   !            |
|           WW  WW  A    A  R   R   N   NN  II  N   NN  G    G                |
|           W    W  A    A  R    R  N    N  II  N    N   GGGG   !!!           |
|                                                                             |
|     You use a magnetic or noncollinear calculation, but did not specify     |
|     the initial magnetic moment with the MAGMOM tag. Note that a            |
|     default of 1 will be used for all atoms. This ferromagnetic setup       |
|     may break the symmetry of the crystal, in particular it may rule        |
|     out finding an antiferromagnetic solution. Thence, we recommend         |
|     setting the initial magnetic moment manually or verifying carefully     |
|     that this magnetic setup is desired.                                    |
|                                                                             |
 -----------------------------------------------------------------------------

 POTCAR:    PAW_PBE Li_sv_GW 25Mar2010            
   SHA256 =  24a6ace15a582615486b36ce4dc781b048409f4015b7684ed1273ae395fa2fdc Li_sv_GW/POTCAR       
   COPYR  = (c) Copyright 25Mar2010 Georg Kresse                                                    
   COPYR  = This file is part of the software VASP. Any use, copying, and all other rights are regul
   COPYR  = If you do not have a valid VASP license, you may not use, copy or distribute this file. 
   VRHFIN =Li: 1s2s                                                                                 
   LEXCH  = PE                                                                                      
   EATOM  =   200.9989 eV,   14.7730 Ry                                                             
                                                                                                    
   TITEL  = PAW_PBE Li_sv_GW 25Mar2010                                                              
   LULTRA =        F    use ultrasoft PP ?                                                          
   IUNSCR =        0    unscreen: 0-lin 1-nonlin 2-no                                               
   RPACOR =    0.000    partial core radius                                                         
   POMASS =    7.010; ZVAL   =    3.000    mass and valenz                                          
   RCORE  =    1.500    outmost cutoff radius                                                       
   RWIGS  =    1.600; RWIGS  =    0.847    wigner-seitz radius (au A)                               
   ENMAX  =  433.699; ENMIN  =  325.274 eV                                                          
   RCLOC  =    1.003    cutoff for local pot                                                        
   LCOR   =        T    correct aug charges                                                         
   LPAW   =        T    paw PP                                                                      
   EAUG   = 1041.699                                                                                
   RMAX   =    1.536    core radius for proj-oper                                                   
   RAUG   =    1.300    factor for augmentation sphere                                              
   RDEP   =    1.520    radius for radial grids                                                     
   RDEPT  =    1.300    core radius for aug-charge                                                  
                                                                                                    
   Atomic configuration                                                                             
    4 entries                                                                                       
     n  l   j            E        occ.                                                              
     1  0  0.50       -53.3604   2.0000                                                             
     1  0  0.50       -52.0001   0.0000                                                             
     2  1  0.50        -1.5636   1.0000                                                             
     3  2  1.50        -1.3606   0.0000                                                             
   Description                                                                                      
     l       E           TYP  RCUT    TYP  RCUT                                                     
     0    -53.3603633     23  1.200                                                                 
     0    -52.0001064     23  1.200                                                                 
     0    176.8757380     23  1.300                                                                 
     1     -1.5635925     23  1.500                                                                 
     1    108.8466080     23  1.500                                                                 
     2     81.6349560     23  1.500                                                                 
  local pseudopotential read in
  kinetic energy density of atom read in
  atomic valenz-charges read in
  non local Contribution for L=           0  read in
    real space projection operators read in
  non local Contribution for L=           0  read in
    real space projection operators read in
  non local Contribution for L=           0  read in
    real space projection operators read in
  non local Contribution for L=           1  read in
    real space projection operators read in
  non local Contribution for L=           1  read in
    real space projection operators read in
  non local Contribution for L=           2  read in
    real space projection operators read in
    PAW grid and wavefunctions read in
 
   number of l-projection  operators is LMAX  =           6
   number of lm-projection operators is LMMAX =          14
 
 POTCAR:    PAW_PBE P_GW 19Mar2012                
   SHA256 =  715c28f2291d37b61637ce89646c59f66f71c8b8d8bfba631e5feb9f7b42defe P_GW/POTCAR           
   COPYR  = (c) Copyright 19Mar2012 Georg Kresse                                                    
   COPYR  = This file is part of the software VASP. Any use, copying, and all other rights are regul
   COPYR  = If you do not have a valid VASP license, you may not use, copy or distribute this file. 
   VRHFIN =P : s2p3                                                                                 
   LEXCH  = PE                                                                                      
   EATOM  =   176.0430 eV,   12.9388 Ry                                                             
                                                                                                    
   TITEL  = PAW_PBE P_GW 19Mar2012                                                                  
   LULTRA =        F    use ultrasoft PP ?                                                          
   IUNSCR =        1    unscreen: 0-lin 1-nonlin 2-no                                               
   RPACOR =    1.400    partial core radius                                                         
   POMASS =   30.974; ZVAL   =    5.000    mass and valenz                                          
   RCORE  =    2.000    outmost cutoff radius                                                       
   RWIGS  =    1.900; RWIGS  =    1.005    wigner-seitz radius (au A)                               
   ENMAX  =  255.040; ENMIN  =  191.280 eV                                                          
   ICORE  =        3    local potential                                                             
   LCOR   =        T    correct aug charges                                                         
   LPAW   =        T    paw PP                                                                      
   EAUG   =  499.732                                                                                
   DEXC   =    0.000                                                                                
   RMAX   =    2.047    core radius for proj-oper                                                   
   RAUG   =    1.300    factor for augmentation sphere                                              
   RDEP   =    2.059    radius for radial grids                                                     
   RDEPT  =    1.900    core radius for aug-charge                                                  
                                                                                                    
   Atomic configuration                                                                             
    7 entries                                                                                       
     n  l   j            E        occ.                                                              
     1  0  0.50     -2084.0982   2.0000                                                             
     2  0  0.50      -173.9859   2.0000                                                             
     2  1  1.50      -124.4865   6.0000                                                             
     3  0  0.50       -13.9692   2.0000                                                             
     3  1  0.50        -5.5067   3.0000                                                             
     3  2  1.50        -6.8029   0.0000                                                             
     4  3  2.50        -1.3606   0.0000                                                             
   Description                                                                                      
     l       E           TYP  RCUT    TYP  RCUT                                                     
     0    -13.9691528     23  1.900                                                                 
     0    102.0436950     23  1.900                                                                 
     1     -5.5066939     23  1.900                                                                 
     1    102.0436950     23  1.900                                                                 
     2     -8.1634956     23  2.000                                                                 
     2     81.6349560     23  2.000                                                                 
     3     27.2116520     23  2.000                                                                 
  local pseudopotential read in
  partial core-charges read in
  partial kinetic energy density read in
  kinetic energy density of atom read in
  atomic valenz-charges read in
  non local Contribution for L=           0  read in
    real space projection operators read in
  non local Contribution for L=           0  read in
    real space projection operators read in
  non local Contribution for L=           1  read in
    real space projection operators read in
  non local Contribution for L=           1  read in
    real space projection operators read in
  non local Contribution for L=           2  read in
    real space projection operators read in
  non local Contribution for L=           2  read in
    real space projection operators read in
    PAW grid and wavefunctions read in
 
   number of l-projection  operators is LMAX  =           6
   number of lm-projection operators is LMMAX =          18
 
 POTCAR:    PAW_PBE S_GW 19Mar2012                
   SHA256 =  357db9cfb0783579b2eebe03197c2d807131fea8ea663b1fcfb6ce2fa75af011 S_GW/POTCAR           
   COPYR  = (c) Copyright 19Mar2012 Georg Kresse                                                    
   COPYR  = This file is part of the software VASP. Any use, copying, and all other rights are regul
   COPYR  = If you do not have a valid VASP license, you may not use, copy or distribute this file. 
   VRHFIN =S : s2p4                                                                                 
   LEXCH  = PE                                                                                      
   EATOM  =   276.8230 eV,   20.3459 Ry                                                             
                                                                                                    
   TITEL  = PAW_PBE S_GW 19Mar2012                                                                  
   LULTRA =        F    use ultrasoft PP ?                                                          
   IUNSCR =        1    unscreen: 0-lin 1-nonlin 2-no                                               
   RPACOR =    1.400    partial core radius                                                         
   POMASS =   32.066; ZVAL   =    6.000    mass and valenz                                          
   RCORE  =    1.900    outmost cutoff radius                                                       
   RWIGS  =    1.900; RWIGS  =    1.005    wigner-seitz radius (au A)                               
   ENMAX  =  258.689; ENMIN  =  194.016 eV                                                          
   ICORE  =        3    local potential                                                             
   LCOR   =        T    correct aug charges                                                         
   LPAW   =        T    paw PP                                                                      
   EAUG   =  488.319                                                                                
   DEXC   =    0.000                                                                                
   RMAX   =    1.942    core radius for proj-oper                                                   
   RAUG   =    1.300    factor for augmentation sphere                                              
   RDEP   =    1.954    radius for radial grids                                                     
   RDEPT  =    1.900    core radius for aug-charge                                                  
                                                                                                    
   Atomic configuration                                                                             
    7 entries                                                                                       
     n  l   j            E        occ.                                                              
     1  0  0.50     -2405.8406   2.0000                                                             
     2  0  0.50      -211.7007   2.0000                                                             
     2  1  1.50      -156.4958   6.0000                                                             
     3  0  0.50       -17.2562   2.0000                                                             
     3  1  0.50        -7.0085   4.0000                                                             
     3  2  1.50        -8.1635   0.0000                                                             
     4  3  2.50        -1.3606   0.0000                                                             
   Description                                                                                      
     l       E           TYP  RCUT    TYP  RCUT                                                     
     0    -17.2561639     23  1.700                                                                 
     0     88.4378690     23  1.900                                                                 
     1     -7.0085399     23  1.900                                                                 
     1     88.4378690     23  1.900                                                                 
     2    -10.8846608     23  1.900                                                                 
     2     54.4233040     23  1.900                                                                 
     3     27.2116520     23  1.800                                                                 
  local pseudopotential read in
  partial core-charges read in
  partial kinetic energy density read in
  kinetic energy density of atom read in
  atomic valenz-charges read in
  non local Contribution for L=           0  read in
    real space projection operators read in
  non local Contribution for L=           0  read in
    real space projection operators read in
  non local Contribution for L=           1  read in
    real space projection operators read in
  non local Contribution for L=           1  read in
    real space projection operators read in
  non local Contribution for L=           2  read in
    real space projection operators read in
  non local Contribution for L=           2  read in
    real space projection operators read in
    PAW grid and wavefunctions read in
 
   number of l-projection  operators is LMAX  =           6
   number of lm-projection operators is LMMAX =          18
 
 POTCAR:    PAW_PBE Cl_GW 19Mar2012               
   SHA256 =  3ef3b3169d6a9a89979f58b4cf17d927a58518fc660d8883d88cacaee8175441 Cl_GW/POTCAR          
   COPYR  = (c) Copyright 19Mar2012 Georg Kresse                                                    
   COPYR  = This file is part of the software VASP. Any use, copying, and all other rights are regul
   COPYR  = If you do not have a valid VASP license, you may not use, copy or distribute this file. 
   VRHFIN =Cl: s2p5                                                                                 
   LEXCH  = PE                                                                                      
   EATOM  =   409.7259 eV,   30.1140 Ry                                                             
                                                                                                    
   TITEL  = PAW_PBE Cl_GW 19Mar2012                                                                 
   LULTRA =        F    use ultrasoft PP ?                                                          
   IUNSCR =        1    unscreen: 0-lin 1-nonlin 2-no                                               
   RPACOR =    1.400    partial core radius                                                         
   POMASS =   35.453; ZVAL   =    7.000    mass and valenz                                          
   RCORE  =    1.900    outmost cutoff radius                                                       
   RWIGS  =    1.900; RWIGS  =    1.005    wigner-seitz radius (au A)                               
   ENMAX  =  262.472; ENMIN  =  196.854 eV                                                          
   ICORE  =        3    local potential                                                             
   LCOR   =        T    correct aug charges                                                         
   LPAW   =        T    paw PP                                                                      
   EAUG   =  456.703                                                                                
   DEXC   =    0.000                                                                                
   RMAX   =    1.945    core radius for proj-oper                                                   
   RAUG   =    1.300    factor for augmentation sphere                                              
   RDEP   =    2.020    radius for radial grids                                                     
   RDEPT  =    1.900    core radius for aug-charge                                                  
                                                                                                    
   Atomic configuration                                                                             
    7 entries                                                                                       
     n  l   j            E        occ.                                                              
     1  0  0.50     -2751.1850   2.0000                                                             
     2  0  0.50      -252.6861   2.0000                                                             
     2  1  1.50      -191.6157   6.0000                                                             
     3  0  0.50       -20.6916   2.0000                                                             
     3  1  0.50        -8.5949   5.0000                                                             
     3  2  1.50        -9.5241   0.0000                                                             
     4  3  2.50        -9.5241   0.0000                                                             
   Description                                                                                      
     l       E           TYP  RCUT    TYP  RCUT                                                     
     0    -20.6915657     23  1.700                                                                 
     0     95.2407820     23  1.800                                                                 
     1     -8.5948577     23  1.900                                                                 
     1     95.2407820     23  1.900                                                                 
     2    -10.8846608     23  1.900                                                                 
     2     54.4233040     23  1.900                                                                 
     3     27.2116520     23  1.900                                                                 
  local pseudopotential read in
  partial core-charges read in
  partial kinetic energy density read in
  kinetic energy density of atom read in
  atomic valenz-charges read in
  non local Contribution for L=           0  read in
    real space projection operators read in
  non local Contribution for L=           0  read in
    real space projection operators read in
  non local Contribution for L=           1  read in
    real space projection operators read in
  non local Contribution for L=           1  read in
    real space projection operators read in
  non local Contribution for L=           2  read in
    real space projection operators read in
  non local Contribution for L=           2  read in
    real space projection operators read in
    PAW grid and wavefunctions read in
 
   number of l-projection  operators is LMAX  =           6
   number of lm-projection operators is LMMAX =          18
 
 Optimization of the real space projectors (new method)

 maximal supplied QI-value         = 25.13
 optimisation between [QCUT,QGAM] = [ 11.56, 23.12] = [ 37.43,149.72] Ry 
 Optimized for a Real-space Cutoff    1.28 Angstroem

   l    n(q)    QCUT    max X(q) W(low)/X(q) W(high)/X(q)  e(spline) 
   0      9    11.561    87.733    0.11E-03    0.32E-04    0.56E-06
   0      9    11.561    82.800    0.11E-03    0.35E-04    0.56E-06
   0      9    11.561     2.509    0.22E-03    0.42E-04    0.79E-06
   1      8    11.561    12.580    0.94E-04    0.26E-03    0.21E-06
   1      8    11.561     1.319    0.33E-04    0.15E-03    0.19E-06
   2      8    11.561     1.993    0.36E-04    0.89E-04    0.26E-06
 Optimization of the real space projectors (new method)

 maximal supplied QI-value         = 18.90
 optimisation between [QCUT,QGAM] = [ 11.53, 23.24] = [ 37.21,151.29] Ry 
 Optimized for a Real-space Cutoff    1.21 Angstroem

   l    n(q)    QCUT    max X(q) W(low)/X(q) W(high)/X(q)  e(spline) 
   0      8    11.527     8.355    0.73E-04    0.70E-04    0.26E-07
   0      8    11.527     1.401    0.17E-03    0.17E-03    0.63E-07
   1      8    11.527     4.747    0.13E-03    0.17E-03    0.11E-06
   1      8    11.527     2.025    0.16E-03    0.18E-03    0.12E-06
   2      7    11.527     3.169    0.51E-04    0.25E-03    0.60E-07
   2      7    11.527     3.441    0.82E-04    0.22E-03    0.14E-06
 Optimization of the real space projectors (new method)

 maximal supplied QI-value         = 19.84
 optimisation between [QCUT,QGAM] = [ 11.51, 23.22] = [ 37.09,150.92] Ry 
 Optimized for a Real-space Cutoff    1.49 Angstroem

   l    n(q)    QCUT    max X(q) W(low)/X(q) W(high)/X(q)  e(spline) 
   0     10    11.508     7.541    0.34E-04    0.13E-04    0.69E-07
   0     10    11.508     1.809    0.49E-04    0.27E-04    0.14E-06
   1     10    11.508     4.107    0.27E-05    0.41E-05    0.14E-06
   1     10    11.508     2.196    0.26E-05    0.25E-05    0.22E-06
   2      9    11.508     4.265    0.18E-03    0.11E-03    0.81E-06
   2      9    11.508     1.925    0.97E-04    0.76E-04    0.47E-06
 Optimization of the real space projectors (new method)

 maximal supplied QI-value         = 19.84
 optimisation between [QCUT,QGAM] = [ 11.51, 23.22] = [ 37.09,150.92] Ry 
 Optimized for a Real-space Cutoff    1.21 Angstroem

   l    n(q)    QCUT    max X(q) W(low)/X(q) W(high)/X(q)  e(spline) 
   0      8    11.508     6.761    0.57E-04    0.57E-04    0.35E-07
   0      8    11.508     1.642    0.14E-03    0.14E-03    0.91E-07
   1      8    11.508     3.519    0.20E-04    0.72E-04    0.47E-07
   1      8    11.508     2.150    0.27E-04    0.11E-03    0.89E-07
   2      7    11.508     2.976    0.19E-03    0.33E-03    0.16E-06
   2      7    11.508     1.494    0.14E-03    0.29E-03    0.14E-06
  PAW_PBE Li_sv_GW 25Mar2010            :
 energy of atom  1       EATOM= -200.9989
 kinetic energy error for atom=    0.0127 (will be added to EATOM!!)
  PAW_PBE P_GW 19Mar2012                :
 energy of atom  2       EATOM= -176.0430
 kinetic energy error for atom=    0.0011 (will be added to EATOM!!)
  PAW_PBE S_GW 19Mar2012                :
 energy of atom  3       EATOM= -276.8230
 kinetic energy error for atom=    0.0024 (will be added to EATOM!!)
  PAW_PBE Cl_GW 19Mar2012               :
 energy of atom  4       EATOM= -409.7259
 kinetic energy error for atom=    0.0030 (will be added to EATOM!!)
 
 
 POSCAR: Li24 P4 S20 Cl4
  positions in direct lattice
  velocities in cartesian coordinates
 exchange correlation table for  LEXCH =        8
   RHO(1)=    0.500       N(1)  =     2000
   RHO(2)=  100.500       N(2)  =     4000

 VTST: version 4.1, (05/19/21)

 CHAIN: initializing optimizer
 
 OPT: Using VASP Conjugate-Gradient optimizer
 CHAIN: Read ICHAIN            0
 
 POSCAR: Li24 P4 S20 Cl4
  positions in direct lattice
  velocities in cartesian coordinates
 


--------------------------------------------------------------------------------------------------------


 ion  position               nearest neighbor table
   1  0.947  0.185  0.173-
   2  0.995  0.826  0.803-
   3  0.988  0.203  0.788-
   4  0.036  0.830  0.165-
   5  0.204  0.191  0.967-
   6  0.300  0.727  0.000-
   7  0.646  0.322  0.042-
   8  0.685  0.689  0.986-
   9  0.278  0.982  0.310-
  10  0.312  0.059  0.667-
  11  0.769  0.969  0.877-
  12  0.703  0.022  0.309-
  13  0.183  0.679  0.454-
  14  0.156  0.328  0.527-
  15  0.795  0.704  0.517-
  16  0.801  0.286  0.488-
  17  0.310  0.462  0.797-
  18  0.309  0.521  0.185-
  19  0.814  0.478  0.290-
  20  0.912  0.550  0.722-
  21  0.546  0.845  0.667-
  22  0.482  0.798  0.287-
  23  0.507  0.216  0.329-
  24  0.598  0.559  0.767-
  25  0.495  0.503  0.496-  42 2.03  44 2.06  41 2.06  43 2.07
  26  0.494  0.020  0.991-  37 2.02  39 2.05  40 2.06  38 2.08
  27  0.993  0.501  0.001-  36 2.04  33 2.05  34 2.06  35 2.08
  28  0.991  0.997  0.496-  32 2.05  29 2.06  31 2.06  30 2.06
  29  0.132  0.880  0.603-  28 2.06
  30  0.095  0.137  0.375-  28 2.06
  31  0.886  0.870  0.362-  28 2.06
  32  0.849  0.088  0.624-  28 2.05
  33  0.885  0.638  0.120-  27 2.05
  34  0.851  0.385  0.892-  27 2.06
  35  0.115  0.614  0.865-  27 2.08
  36  0.113  0.375  0.120-  27 2.04
  37  0.602  0.150  0.868-  26 2.02
  38  0.628  0.896  0.104-  26 2.08
  39  0.374  0.129  0.127-  26 2.05
  40  0.379  0.901  0.857-  26 2.06
  41  0.620  0.616  0.365-  25 2.06
  42  0.606  0.372  0.616-  25 2.03
  43  0.390  0.638  0.624-  25 2.07
  44  0.351  0.394  0.384-  25 2.06
  45  0.758  0.746  0.755-
  46  0.734  0.254  0.258-
  47  0.254  0.753  0.233-
  48  0.211  0.257  0.743-
  49  0.995  0.011  0.983-
  50  0.970  0.504  0.493-
  51  0.488  0.992  0.461-
  52  0.484  0.526  0.986-
 
  LATTYP: Found a simple cubic cell.
 ALAT       =     9.6848989672
  
  Lattice vectors:
  
 A1 = (   9.6848989672,   0.0000000000,   0.0000000000)
 A2 = (   0.0000000000,   9.6848989672,   0.0000000000)
 A3 = (   0.0000000000,   0.0000000000,   9.6848989672)


Analysis of symmetry for initial positions (statically):
=====================================================================
 Subroutine PRICEL returns:
 Original cell was already a primitive cell.
 

 Routine SETGRP: Setting up the symmetry group for a 
 simple cubic supercell.


 Subroutine GETGRP returns: Found  1 space group operations
 (whereof  1 operations were pure point group operations)
 out of a pool of 48 trial point group operations.


The static configuration has the point symmetry C_1 .


Analysis of symmetry for dynamics (positions and initial velocities):
=====================================================================
 Subroutine PRICEL returns:
 Original cell was already a primitive cell.
 

 Routine SETGRP: Setting up the symmetry group for a 
 simple cubic supercell.


 Subroutine GETGRP returns: Found  1 space group operations
 (whereof  1 operations were pure point group operations)
 out of a pool of 48 trial point group operations.


The dynamic configuration has the point symmetry C_1 .


Analysis of structural, dynamic, and magnetic symmetry:
=====================================================================
 Subroutine PRICEL returns:
 Original cell was already a primitive cell.
 

 Routine SETGRP: Setting up the symmetry group for a 
 simple cubic supercell.


 Subroutine GETGRP returns: Found  1 space group operations
 (whereof  1 operations were pure point group operations)
 out of a pool of 48 trial point group operations.


The overall configuration has the point symmetry C_1 .


 Subroutine INISYM returns: Found  1 space group operations
 (whereof  1 operations are pure point group operations),
 and found     1 'primitive' translations


----------------------------------------------------------------------------------------

                                     Primitive cell                                     

  volume of cell :     908.4171

  direct lattice vectors                    reciprocal lattice vectors
     9.684898967  0.000000000  0.000000000     0.103253529  0.000000000  0.000000000
     0.000000000  9.684898967  0.000000000     0.000000000  0.103253529  0.000000000
     0.000000000  0.000000000  9.684898967     0.000000000  0.000000000  0.103253529

  length of vectors
     9.684898967  9.684898967  9.684898967     0.103253529  0.103253529  0.103253529

  position of ions in fractional coordinates (direct lattice)
     0.946995847  0.184987922  0.173489035
     0.995009662  0.825563519  0.803428218
     0.987935083  0.202963361  0.788466919
     0.035594539  0.829933813  0.165357601
     0.203863120  0.190797124  0.966791690
     0.300045688  0.726864671  0.000139128
     0.645958222  0.322208036  0.042463816
     0.685348836  0.688955211  0.986398857
     0.277917903  0.982017194  0.309717924
     0.311677254  0.058825696  0.667223020
     0.769413445  0.969145497  0.877428692
     0.703217360  0.021860983  0.309224586
     0.182756638  0.678682122  0.454431324
     0.156042914  0.327586938  0.526529428
     0.795288138  0.704397128  0.517217419
     0.800511780  0.286004214  0.488027378
     0.309610297  0.462176934  0.796861757
     0.309294008  0.521408601  0.185045104
     0.814484771  0.478288064  0.289696030
     0.912023886  0.550068860  0.722113677
     0.546193914  0.844543558  0.666845015
     0.481746756  0.798474888  0.286653762
     0.506939063  0.215586591  0.329217664
     0.598175302  0.559464882  0.767197208
     0.495478518  0.502872654  0.495529855
     0.494463580  0.020123817  0.990698498
     0.992824209  0.500650792  0.000894516
     0.991396500  0.996955626  0.495766121
     0.132270519  0.880441481  0.603487114
     0.095493088  0.137355074  0.374624282
     0.885843107  0.869674068  0.362394853
     0.849412560  0.088024027  0.623860384
     0.884793616  0.637706822  0.120167523
     0.851002385  0.385051952  0.892268259
     0.115030150  0.614096750  0.865148943
     0.112623857  0.375049263  0.119894665
     0.602437263  0.149526199  0.867570326
     0.627729434  0.895570906  0.104139338
     0.374476716  0.129363978  0.127400376
     0.378587089  0.901231241  0.857188469
     0.619787675  0.616289731  0.365290572
     0.605823189  0.371510509  0.615800562
     0.390148039  0.637646525  0.623582660
     0.351023563  0.394333657  0.384066771
     0.757751834  0.745908870  0.755490825
     0.733983351  0.254440749  0.258084460
     0.253539049  0.753186788  0.232792690
     0.211168009  0.257370531  0.742595651
     0.994818610  0.011140319  0.983174950
     0.969758286  0.503561862  0.493090576
     0.488242455  0.992335538  0.461105963
     0.484492801  0.526498996  0.986330812

  ion indices of the primitive-cell ions
   primitive index   ion index
                 1           1
                 2           2
                 3           3
                 4           4
                 5           5
                 6           6
                 7           7
                 8           8
                 9           9
                10          10
                11          11
                12          12
                13          13
                14          14
                15          15
                16          16
                17          17
                18          18
                19          19
                20          20
                21          21
                22          22
                23          23
                24          24
                25          25
                26          26
                27          27
                28          28
                29          29
                30          30
                31          31
                32          32
                33          33
                34          34
                35          35
                36          36
                37          37
                38          38
                39          39
                40          40
                41          41
                42          42
                43          43
                44          44
                45          45
                46          46
                47          47
                48          48
                49          49
                50          50
                51          51
                52          52

----------------------------------------------------------------------------------------

 
 
 KPOINTS: Automatic mesh                          

Automatic generation of k-mesh.
 Grid dimensions read from file:
 generate k-points for:    2    2    2

 Generating k-lattice:

  Cartesian coordinates                     Fractional coordinates (reciprocal lattice)
     0.051626765  0.000000000  0.000000000     0.500000000  0.000000000  0.000000000
     0.000000000  0.051626765  0.000000000     0.000000000  0.500000000  0.000000000
     0.000000000  0.000000000  0.051626765     0.000000000  0.000000000  0.500000000

  Length of vectors
     0.051626765  0.051626765  0.051626765

  Shift w.r.t. Gamma in fractional coordinates (k-lattice)
     0.500000000  0.500000000  0.500000000

 
 Subroutine IBZKPT returns following result:
 ===========================================
 
 Found      4 irreducible k-points:
 
 Following reciprocal coordinates:
            Coordinates               Weight
  0.250000  0.250000  0.250000      2.000000
 -0.250000  0.250000  0.250000      2.000000
 -0.250000 -0.250000  0.250000      2.000000
  0.250000 -0.250000  0.250000      2.000000
 
 Following cartesian coordinates:
            Coordinates               Weight
  0.025813  0.025813  0.025813      2.000000
 -0.025813  0.025813  0.025813      2.000000
 -0.025813 -0.025813  0.025813      2.000000
  0.025813 -0.025813  0.025813      2.000000
 


--------------------------------------------------------------------------------------------------------




 Dimension of arrays:
   k-points           NKPTS =      4   k-points in BZ     NKDIM =      4   number of bands    NBANDS=    176
   number of dos      NEDOS =    301   number of ions     NIONS =     52
   non local maximal  LDIM  =      6   non local SUM 2l+1 LMDIM =     18
   total plane-waves  NPLWV = 373248
   max r-space proj   IRMAX =   5733   max aug-charges    IRDMAX=  17539
   dimension x,y,z NGX =    72 NGY =   72 NGZ =   72
   dimension x,y,z NGXF=   144 NGYF=  144 NGZF=  144
   support grid    NGXF=   144 NGYF=  144 NGZF=  144
   ions per type =              24   4  20   4
   NGX,Y,Z   is equivalent  to a cutoff of  12.36, 12.36, 12.36 a.u.
   NGXF,Y,Z  is equivalent  to a cutoff of  24.72, 24.72, 24.72 a.u.

 SYSTEM =  unknown system                          
 POSCAR =  Li24 P4 S20 Cl4                         

 Startparameter for this run:
   NWRITE =      2    write-flag & timer
   PREC   = accu      normal or accurate (medium, high low for compatibility)
   ISTART =      0    job   : 0-new  1-cont  2-samecut
   ICHARG =      2    charge: 1-file 2-atom 10-const
   ISPIN  =      2    spin polarized calculation?
   LNONCOLLINEAR =      F non collinear calculations
   LSORBIT =      F    spin-orbit coupling
   INIWAV =      1    electr: 0-lowe 1-rand  2-diag
   LASPH  =      T    aspherical Exc in radial PAW
 Electronic Relaxation 1
   ENCUT  =  520.0 eV  38.22 Ry    6.18 a.u.  18.01 18.01 18.01*2*pi/ulx,y,z
   ENINI  =  520.0     initial cutoff
   ENAUG  = 1041.7 eV  augmentation charge cutoff
   NELM   =    100;   NELMIN=  2; NELMDL=-10     # of ELM steps 
   EDIFF  = 0.1E-05   stopping-criterion for ELM
   LREAL  =      T    real-space projection
   NLSPLINE    = F    spline interpolate recip. space projectors
   LCOMPAT=      F    compatible to vasp.4.4
   GGA_COMPAT  = T    GGA compatible to vasp.4.4-vasp.4.6
   LMAXPAW     = -100 max onsite density
   LMAXMIX     =    4 max onsite mixed and CHGCAR
   VOSKOWN=      0    Vosko Wilk Nusair interpolation
   ROPT   =   -0.00025  -0.00025  -0.00025  -0.00025
 Ionic relaxation
   EDIFFG = -.1E-02   stopping-criterion for IOM
   NSW    =   1000    number of steps for IOM
   NBLOCK =      1;   KBLOCK =   1000    inner block; outer block 
   IBRION =      2    ionic relax: 0-MD 1-quasi-New 2-CG
   NFREE  =      1    steps in history (QN), initial steepest desc. (CG)
   ISIF   =      2    stress and relaxation
   IWAVPR =     11    prediction:  0-non 1-charg 2-wave 3-comb
   ISYM   =      2    0-nonsym 1-usesym 2-fastsym
   LCORR  =      T    Harris-Foulkes like correction to forces

   POTIM  = 0.2000    time-step for ionic-motion
   TEIN   =    0.0    initial temperature
   TEBEG  =    0.0;   TEEND  =   0.0 temperature during run
   SMASS  =  -3.00    Nose mass-parameter (am)
   estimated Nose-frequenzy (Omega)   =  0.10E-29 period in steps = 0.31E+47 mass=  -0.214E-26a.u.
   SCALEE = 1.0000    scale energy and forces
   NPACO  =    256;   APACO  = 10.0  distance and # of slots for P.C.
   PSTRESS=    0.0 pullay stress

  Mass of Ions in am
   POMASS =   7.01 30.97 32.07 35.45
  Ionic Valenz
   ZVAL   =   3.00  5.00  6.00  7.00
  Atomic Wigner-Seitz radii
   RWIGS  =  -1.00 -1.00 -1.00 -1.00
  virtual crystal weights 
   VCA    =   1.00  1.00  1.00  1.00
   NELECT =     240.0000    total number of electrons
   NUPDOWN=      -1.0000    fix difference up-down

 DOS related values:
   EMIN   =  10.00;   EMAX   =-10.00  energy-range for DOS
   EFERMI =   0.00;   METHOD = LEGACY      
   ISMEAR =     0;   SIGMA  =   0.03  broadening in eV -4-tet -1-fermi 0-gaus

 Electronic relaxation 2 (details)
   IALGO  =     68    algorithm
   LDIAG  =      T    sub-space diagonalisation (order eigenvalues)
   LSUBROT=      F    optimize rotation matrix (better conditioning)
   TURBO    =      0    0=normal 1=particle mesh
   IRESTART =      0    0=no restart 2=restart with 2 vectors
   NREBOOT  =      0    no. of reboots
   NMIN     =      0    reboot dimension
   EREF     =   0.00    reference energy to select bands
   IMIX   =      4    mixing-type and parameters
     AMIX     =   0.40;   BMIX     =  1.00
     AMIX_MAG =   1.60;   BMIX_MAG =  1.00
     AMIN     =   0.10
     WC   =   100.;   INIMIX=   1;  MIXPRE=   1;  MAXMIX= -45

 Intra band minimization:
   WEIMIN = 0.0010     energy-eigenvalue tresh-hold
   EBREAK =  0.14E-08  absolut break condition
   DEPER  =   0.30     relativ break condition  

   TIME   =   0.40     timestep for ELM

  volume/ion in A,a.u.               =      17.47       117.89
  Fermi-wavevector in a.u.,A,eV,Ry     =   1.050470  1.985100 15.013843  1.103486
  Thomas-Fermi vector in A             =   2.185474
 
 Write flags
   LWAVE        =      F    write WAVECAR
   LDOWNSAMPLE  =      F    k-point downsampling of WAVECAR
   LCHARG       =      F    write CHGCAR
   LVTOT        =      F    write LOCPOT, total local potential
   LVHAR        =      F    write LOCPOT, Hartree potential only
   LELF         =      F    write electronic localiz. function (ELF)
   LORBIT       =      0    0 simple, 1 ext, 2 COOP (PROOUT), +10 PAW based schemes


 Dipole corrections
   LMONO  =      F    monopole corrections only (constant potential shift)
   LDIPOL =      F    correct potential (dipole corrections)
   IDIPOL =      0    1-x, 2-y, 3-z, 4-all directions 
   EPSILON=  1.0000000 bulk dielectric constant

 Exchange correlation treatment:
   GGA     =    PE    GGA type
   LEXCH   =     8    internal setting for exchange type
   LIBXC   =     F    Libxc                    
   VOSKOWN =     0    Vosko Wilk Nusair interpolation
   LHFCALC =     F    Hartree Fock is set to
   LHFONE  =     F    Hartree Fock one center treatment
   AEXX    =    0.0000 exact exchange contribution

 Linear response parameters
   LEPSILON=     F    determine dielectric tensor
   LRPA    =     F    only Hartree local field effects (RPA)
   LNABLA  =     F    use nabla operator in PAW spheres
   LVEL    =     F    velocity operator in full k-point grid
   CSHIFT  =0.1000    complex shift for real part using Kramers Kronig
   OMEGAMAX=  -1.0    maximum frequency
   DEG_THRESHOLD= 0.2000000E-02 threshold for treating states as degnerate
   RTIME   =   -0.100 relaxation time in fs
  (WPLASMAI=    0.000 imaginary part of plasma frequency in eV, 0.658/RTIME)
   DFIELD  = 0.0000000 0.0000000 0.0000000 field for delta impulse in time
 
  Optional k-point grid parameters
   LKPOINTS_OPT  =     F    use optional k-point grid
   KPOINTS_OPT_MODE=     1    mode for optional k-point grid
 
 Orbital magnetization related:
   ORBITALMAG=     F  switch on orbital magnetization
   LCHIMAG   =     F  perturbation theory with respect to B field
   DQ        =  0.001000  dq finite difference perturbation B field
   LLRAUG    =     F  two centre corrections for induced B field
   LBONE     =     F  B-component reconstruction in AE one-centre
   LVGVCALC  =     T  calculate vGv susceptibility
   LVGVAPPL  =     F  apply vGv susceptibility instead of pGv for G=0

 Random number generation:
   RANDOM_GENERATOR = DEFAULT
   PCG_SEED         = not used


--------------------------------------------------------------------------------------------------------


 conjugate gradient relaxation of ions
 charge density and potential will be updated during run
 spin polarized calculation
 RMM-DIIS sequential band-by-band and
  variant of blocked Davidson during initial phase
 perform sub-space diagonalisation
    before iterative eigenvector-optimisation
 modified Broyden-mixing scheme, WC =      100.0
 initial mixing is a Kerker type mixing with AMIX =  0.4000 and BMIX =      1.0000
 Hartree-type preconditioning will be used
 using additional bands           56
 real space projection scheme for non local part
 use partial core corrections
 calculate Harris-corrections to forces 
   (improved forces if not selfconsistent)
 use gradient corrections 
 use of overlap-Matrix (Vanderbilt PP)
 Gauss-broadening in eV      SIGMA  =   0.03


--------------------------------------------------------------------------------------------------------


  energy-cutoff  :      520.00
  volume of cell :      908.42
      direct lattice vectors                 reciprocal lattice vectors
     9.684898967  0.000000000  0.000000000     0.103253529  0.000000000  0.000000000
     0.000000000  9.684898967  0.000000000     0.000000000  0.103253529  0.000000000
     0.000000000  0.000000000  9.684898967     0.000000000  0.000000000  0.103253529

  length of vectors
     9.684898967  9.684898967  9.684898967     0.103253529  0.103253529  0.103253529


 
 k-points in units of 2pi/SCALE and weight: Automatic mesh                          
   0.02581338  0.02581338  0.02581338       0.250
  -0.02581338  0.02581338  0.02581338       0.250
  -0.02581338 -0.02581338  0.02581338       0.250
   0.02581338 -0.02581338  0.02581338       0.250
 
 k-points in reciprocal lattice and weights: Automatic mesh                          
   0.25000000  0.25000000  0.25000000       0.250
  -0.25000000  0.25000000  0.25000000       0.250
  -0.25000000 -0.25000000  0.25000000       0.250
   0.25000000 -0.25000000  0.25000000       0.250
 
 position of ions in fractional coordinates (direct lattice) 
   0.94699585  0.18498792  0.17348903
   0.99500966  0.82556352  0.80342822
   0.98793508  0.20296336  0.78846692
   0.03559454  0.82993381  0.16535760
   0.20386312  0.19079712  0.96679169
   0.30004569  0.72686467  0.00013913
   0.64595822  0.32220804  0.04246382
   0.68534884  0.68895521  0.98639886
   0.27791790  0.98201719  0.30971792
   0.31167725  0.05882570  0.66722302
   0.76941345  0.96914550  0.87742869
   0.70321736  0.02186098  0.30922459
   0.18275664  0.67868212  0.45443132
   0.15604291  0.32758694  0.52652943
   0.79528814  0.70439713  0.51721742
   0.80051178  0.28600421  0.48802738
   0.30961030  0.46217693  0.79686176
   0.30929401  0.52140860  0.18504510
   0.81448477  0.47828806  0.28969603
   0.91202389  0.55006886  0.72211368
   0.54619391  0.84454356  0.66684502
   0.48174676  0.79847489  0.28665376
   0.50693906  0.21558659  0.32921766
   0.59817530  0.55946488  0.76719721
   0.49547852  0.50287265  0.49552986
   0.49446358  0.02012382  0.99069850
   0.99282421  0.50065079  0.00089452
   0.99139650  0.99695563  0.49576612
   0.13227052  0.88044148  0.60348711
   0.09549309  0.13735507  0.37462428
   0.88584311  0.86967407  0.36239485
   0.84941256  0.08802403  0.62386038
   0.88479362  0.63770682  0.12016752
   0.85100239  0.38505195  0.89226826
   0.11503015  0.61409675  0.86514894
   0.11262386  0.37504926  0.11989467
   0.60243726  0.14952620  0.86757033
   0.62772943  0.89557091  0.10413934
   0.37447672  0.12936398  0.12740038
   0.37858709  0.90123124  0.85718847
   0.61978768  0.61628973  0.36529057
   0.60582319  0.37151051  0.61580056
   0.39014804  0.63764652  0.62358266
   0.35102356  0.39433366  0.38406677
   0.75775183  0.74590887  0.75549083
   0.73398335  0.25444075  0.25808446
   0.25353905  0.75318679  0.23279269
   0.21116801  0.25737053  0.74259565
   0.99481861  0.01114032  0.98317495
   0.96975829  0.50356186  0.49309058
   0.48824245  0.99233554  0.46110596
   0.48449280  0.52649900  0.98633081
 
 position of ions in cartesian coordinates  (Angst):
   9.17155910  1.79158933  1.68022377
   9.63656805  7.99549928  7.78112112
   9.56805147  1.96567965  7.63622245
   0.34472952  8.03782513  1.60147166
   1.97439372  1.84785087  9.36327984
   2.90591218  7.03961090  0.00134744
   6.25604012  3.12055227  0.41125777
   6.63753424  6.67246161  9.55317328
   2.69160681  9.51073731  2.99958680
   3.01856271  0.56972092  6.46198754
   7.45169148  9.38607622  8.49780824
   6.81058908  0.21172141  2.99480887
   1.76997958  6.57296778  4.40112146
   1.51125985  3.17264640  5.09938432
   7.70228526  6.82201502  5.00919844
   7.75287571  2.76992192  4.72649585
   2.99854445  4.47613691  7.71752561
   2.99548122  5.04978962  1.79214314
   7.88820272  4.63217158  2.80567678
   8.83285919  5.32736134  6.99359801
   5.28983288  8.17931903  6.45832660
   4.66566866  7.73314861  2.77621272
   4.90965361  2.08793435  3.18843982
   5.79326736  5.41836086  7.43022745
   4.79865939  4.87027085  4.79915658
   4.78882981  0.19489713  9.59481486
   9.61540215  4.84875234  0.00866330
   9.60157494  9.65541451  4.80144480
   1.28102661  8.52698679  5.84471173
   0.92484091  1.33027001  3.62819832
   8.57930099  8.42270549  3.50975754
   8.22647483  0.85250380  6.04202479
   8.56913678  6.17612614  1.16381032
   8.24187212  3.72918925  8.64152794
   1.11405538  5.94746498  8.37888010
   1.09075068  3.63231422  1.16116772
   5.83454403  1.44814613  8.40233095
   6.07949614  8.67351374  1.00857897
   3.62676916  1.25287706  1.23385977
   3.66657771  8.72833352  8.30178372
   6.00258101  5.96870378  3.53780229
   5.86733637  3.59804175  5.96396623
   3.77854434  6.17554217  6.03933506
   3.39962774  3.81908163  3.71964787
   7.33874996  7.22405204  7.31685231
   7.10855460  2.46423294  2.49952192
   2.45550007  7.29453795  2.25457368
   2.04514083  2.49260759  7.19196385
   9.63471773  0.10789287  9.52195006
   9.39201103  4.87694576  4.77553241
   4.72857885  9.61066943  4.46576467
   4.69226383  5.09908958  9.55251426
 


--------------------------------------------------------------------------------------------------------


 k-point   1 :   0.2500 0.2500 0.2500  plane waves:   24468
 k-point   2 :  -0.2500 0.2500 0.2500  plane waves:   24468
 k-point   3 :  -0.2500-0.2500 0.2500  plane waves:   24468
 k-point   4 :   0.2500-0.2500 0.2500  plane waves:   24468

 maximum and minimum number of plane-waves per node :       784      745

 maximum number of plane-waves:     24468
 maximum index in each direction: 
   IXMAX=   18   IYMAX=   18   IZMAX=   17
   IXMIN=  -18   IYMIN=  -18   IZMIN=  -18


 real space projection operators:
  total allocation   :      28137.83 KBytes
  max/ min on nodes  :       1185.22        741.80


 parallel 3D FFT for wavefunctions:
    minimum data exchange during FFTs selected (reduces bandwidth)
 parallel 3D FFT for charge:
    minimum data exchange during FFTs selected (reduces bandwidth)


 total amount of memory used by VASP MPI-rank0    48121. kBytes
=======================================================================

   base      :      30000. kBytes
   nonlr-proj:       6506. kBytes
   fftplans  :       1747. kBytes
   grid      :       5278. kBytes
   one-center:         62. kBytes
   wavefun   :       4528. kBytes
 
     INWAV:  cpu time      0.0000: real time      0.0000
 Broyden mixing: mesh for mixing (old mesh)
   NGX = 37   NGY = 37   NGZ = 37
  (NGX  =144   NGY  =144   NGZ  =144)
  gives a total of  50653 points

 initial charge density was supplied:
 charge density of overlapping atoms calculated
 number of electron     240.0000000 magnetization      52.0000000
 keeping initial charge density in first step


--------------------------------------------------------------------------------------------------------


 Maximum index for non-local projection operator          539
 Maximum index for augmentation-charges         1100 (set IRDMAX)


--------------------------------------------------------------------------------------------------------


 First call to EWALD:  gamma=   0.183
 Maximum number of real-space cells 3x 3x 3
 Maximum number of reciprocal cells 3x 3x 3

    FEWALD:  cpu time      0.0453: real time      0.0481


--------------------------------------- Ionic step        1  -------------------------------------------




--------------------------------------- Iteration      1(   1)  ---------------------------------------


    POTLOK:  cpu time      0.0576: real time      0.0673
    SETDIJ:  cpu time      0.4082: real time      0.4156
     EDDAV:  cpu time      2.2375: real time      2.3987
       DOS:  cpu time      0.0030: real time      0.0043
    --------------------------------------------
      LOOP:  cpu time      2.7063: real time      2.8859

 eigenvalue-minimisations  :  3096
 total energy-change (2. order) : 0.1589654E+04  (-0.1137839E+05)
 number of electron     240.0000000 magnetization      52.0000000
 augmentation part      240.0000000 magnetization      52.0000000

 Free energy of the ion-electron system (eV)
  ---------------------------------------------------
  alpha Z        PSCENC =       298.82475179
  Ewald energy   TEWEN  =     -8790.00657200
  -Hartree energ DENC   =     -2124.21579079
  -exchange      EXHF   =         0.00000000
  -V(xc)+E(xc)   XCENC  =       533.78995775
  PAW double counting   =      8141.38806575    -8271.61346273
  entropy T*S    EENTRO =        -0.00840268
  eigenvalues    EBANDS =      -901.64420202
  atomic energy  EATOM  =     12703.13999606
  Solvation  Ediel_sol  =         0.00000000
  ---------------------------------------------------
  free energy    TOTEN  =      1589.65434113 eV

  energy without entropy =     1589.66274381  energy(sigma->0) =     1589.65854247


--------------------------------------------------------------------------------------------------------




--------------------------------------- Iteration      1(   2)  ---------------------------------------


     EDDAV:  cpu time      2.5869: real time      2.6160
       DOS:  cpu time      0.0006: real time      0.0006
    --------------------------------------------
      LOOP:  cpu time      2.5875: real time      2.6166

 eigenvalue-minimisations  :  3824
 total energy-change (2. order) :-0.1644680E+04  (-0.1546594E+04)
 number of electron     240.0000000 magnetization      52.0000000
 augmentation part      240.0000000 magnetization      52.0000000

 Free energy of the ion-electron system (eV)
  ---------------------------------------------------
  alpha Z        PSCENC =       298.82475179
  Ewald energy   TEWEN  =     -8790.00657200
  -Hartree energ DENC   =     -2124.21579079
  -exchange      EXHF   =         0.00000000
  -V(xc)+E(xc)   XCENC  =       533.78995775
  PAW double counting   =      8141.38806575    -8271.61346273
  entropy T*S    EENTRO =        -0.00000000
  eigenvalues    EBANDS =     -2546.33273395
  atomic energy  EATOM  =     12703.13999606
  Solvation  Ediel_sol  =         0.00000000
  ---------------------------------------------------
  free energy    TOTEN  =       -55.02578812 eV

  energy without entropy =      -55.02578812  energy(sigma->0) =      -55.02578812


--------------------------------------------------------------------------------------------------------




--------------------------------------- Iteration      1(   3)  ---------------------------------------


     EDDAV:  cpu time      2.5987: real time      2.6243
       DOS:  cpu time      0.0006: real time      0.0006
    --------------------------------------------
      LOOP:  cpu time      2.5992: real time      2.6249

 eigenvalue-minimisations  :  3768
 total energy-change (2. order) :-0.1729382E+03  (-0.1708377E+03)
 number of electron     240.0000000 magnetization      52.0000000
 augmentation part      240.0000000 magnetization      52.0000000

 Free energy of the ion-electron system (eV)
  ---------------------------------------------------
  alpha Z        PSCENC =       298.82475179
  Ewald energy   TEWEN  =     -8790.00657200
  -Hartree energ DENC   =     -2124.21579079
  -exchange      EXHF   =         0.00000000
  -V(xc)+E(xc)   XCENC  =       533.78995775
  PAW double counting   =      8141.38806575    -8271.61346273
  entropy T*S    EENTRO =        -0.00000000
  eigenvalues    EBANDS =     -2719.27093355
  atomic energy  EATOM  =     12703.13999606
  Solvation  Ediel_sol  =         0.00000000
  ---------------------------------------------------
  free energy    TOTEN  =      -227.96398772 eV

  energy without entropy =     -227.96398772  energy(sigma->0) =     -227.96398772


--------------------------------------------------------------------------------------------------------




--------------------------------------- Iteration      1(   4)  ---------------------------------------


     EDDAV:  cpu time      3.2069: real time      3.2436
       DOS:  cpu time      0.0006: real time      0.0006
    --------------------------------------------
      LOOP:  cpu time      3.2075: real time      3.2441

 eigenvalue-minimisations  :  4728
 total energy-change (2. order) :-0.1341828E+02  (-0.1339312E+02)
 number of electron     240.0000000 magnetization      52.0000000
 augmentation part      240.0000000 magnetization      52.0000000

 Free energy of the ion-electron system (eV)
  ---------------------------------------------------
  alpha Z        PSCENC =       298.82475179
  Ewald energy   TEWEN  =     -8790.00657200
  -Hartree energ DENC   =     -2124.21579079
  -exchange      EXHF   =         0.00000000
  -V(xc)+E(xc)   XCENC  =       533.78995775
  PAW double counting   =      8141.38806575    -8271.61346273
  entropy T*S    EENTRO =        -0.00000000
  eigenvalues    EBANDS =     -2732.68920874
  atomic energy  EATOM  =     12703.13999606
  Solvation  Ediel_sol  =         0.00000000
  ---------------------------------------------------
  free energy    TOTEN  =      -241.38226291 eV

  energy without entropy =     -241.38226291  energy(sigma->0) =     -241.38226291


--------------------------------------------------------------------------------------------------------




--------------------------------------- Iteration      1(   5)  ---------------------------------------


     EDDAV:  cpu time      2.9382: real time      2.9675
       DOS:  cpu time      0.0006: real time      0.0006
    --------------------------------------------
      LOOP:  cpu time      2.9388: real time      2.9681

 eigenvalue-minimisations  :  4480
 total energy-change (2. order) :-0.2563034E+00  (-0.2561996E+00)
 number of electron     240.0000000 magnetization      52.0000000
 augmentation part      240.0000000 magnetization      52.0000000

 Free energy of the ion-electron system (eV)
  ---------------------------------------------------
  alpha Z        PSCENC =       298.82475179
  Ewald energy   TEWEN  =     -8790.00657200
  -Hartree energ DENC   =     -2124.21579079
  -exchange      EXHF   =         0.00000000
  -V(xc)+E(xc)   XCENC  =       533.78995775
  PAW double counting   =      8141.38806575    -8271.61346273
  entropy T*S    EENTRO =        -0.00000000
  eigenvalues    EBANDS =     -2732.94551217
  atomic energy  EATOM  =     12703.13999606
  Solvation  Ediel_sol  =         0.00000000
  ---------------------------------------------------
  free energy    TOTEN  =      -241.63856634 eV

  energy without entropy =     -241.63856634  energy(sigma->0) =     -241.63856634


--------------------------------------------------------------------------------------------------------




--------------------------------------- Iteration      1(   6)  ---------------------------------------


     EDDAV:  cpu time      3.0263: real time      3.0527
       DOS:  cpu time      0.0006: real time      0.0006
    --------------------------------------------
      LOOP:  cpu time      3.0270: real time      3.0533

 eigenvalue-minimisations  :  4640
 total energy-change (2. order) :-0.1046111E-01  (-0.1045988E-01)
 number of electron     240.0000000 magnetization      52.0000000
 augmentation part      240.0000000 magnetization      52.0000000

 Free energy of the ion-electron system (eV)
  ---------------------------------------------------
  alpha Z        PSCENC =       298.82475179
  Ewald energy   TEWEN  =     -8790.00657200
  -Hartree energ DENC   =     -2124.21579079
  -exchange      EXHF   =         0.00000000
  -V(xc)+E(xc)   XCENC  =       533.78995775
  PAW double counting   =      8141.38806575    -8271.61346273
  entropy T*S    EENTRO =        -0.00000000
  eigenvalues    EBANDS =     -2732.95597328
  atomic energy  EATOM  =     12703.13999606
  Solvation  Ediel_sol  =         0.00000000
  ---------------------------------------------------
  free energy    TOTEN  =      -241.64902745 eV

  energy without entropy =     -241.64902745  energy(sigma->0) =     -241.64902745


--------------------------------------------------------------------------------------------------------




--------------------------------------- Iteration      1(   7)  ---------------------------------------


     EDDAV:  cpu time      2.9617: real time      2.9848
       DOS:  cpu time      0.0006: real time      0.0006
    --------------------------------------------
      LOOP:  cpu time      2.9623: real time      2.9854

 eigenvalue-minimisations  :  4528
 total energy-change (2. order) :-0.3793917E-03  (-0.3793675E-03)
 number of electron     240.0000000 magnetization      52.0000000
 augmentation part      240.0000000 magnetization      52.0000000

 Free energy of the ion-electron system (eV)
  ---------------------------------------------------
  alpha Z        PSCENC =       298.82475179
  Ewald energy   TEWEN  =     -8790.00657200
  -Hartree energ DENC   =     -2124.21579079
  -exchange      EXHF   =         0.00000000
  -V(xc)+E(xc)   XCENC  =       533.78995775
  PAW double counting   =      8141.38806575    -8271.61346273
  entropy T*S    EENTRO =        -0.00000000
  eigenvalues    EBANDS =     -2732.95635267
  atomic energy  EATOM  =     12703.13999606
  Solvation  Ediel_sol  =         0.00000000
  ---------------------------------------------------
  free energy    TOTEN  =      -241.64940684 eV

  energy without entropy =     -241.64940684  energy(sigma->0) =     -241.64940684


--------------------------------------------------------------------------------------------------------




--------------------------------------- Iteration      1(   8)  ---------------------------------------


     EDDAV:  cpu time      3.0042: real time      3.0347
       DOS:  cpu time      0.0005: real time      0.0005
    --------------------------------------------
      LOOP:  cpu time      3.0046: real time      3.0351

 eigenvalue-minimisations  :  4568
 total energy-change (2. order) :-0.2224424E-04  (-0.2224385E-04)
 number of electron     240.0000000 magnetization      52.0000000
 augmentation part      240.0000000 magnetization      52.0000000

 Free energy of the ion-electron system (eV)
  ---------------------------------------------------
  alpha Z        PSCENC =       298.82475179
  Ewald energy   TEWEN  =     -8790.00657200
  -Hartree energ DENC   =     -2124.21579079
  -exchange      EXHF   =         0.00000000
  -V(xc)+E(xc)   XCENC  =       533.78995775
  PAW double counting   =      8141.38806575    -8271.61346273
  entropy T*S    EENTRO =        -0.00000000
  eigenvalues    EBANDS =     -2732.95637492
  atomic energy  EATOM  =     12703.13999606
  Solvation  Ediel_sol  =         0.00000000
  ---------------------------------------------------
  free energy    TOTEN  =      -241.64942909 eV

  energy without entropy =     -241.64942909  energy(sigma->0) =     -241.64942909


--------------------------------------------------------------------------------------------------------




--------------------------------------- Iteration      1(   9)  ---------------------------------------


     EDDAV:  cpu time      2.9251: real time      2.9477
       DOS:  cpu time      0.0006: real time      0.0006
    --------------------------------------------
      LOOP:  cpu time      2.9256: real time      2.9483

 eigenvalue-minimisations  :  4464
 total energy-change (2. order) :-0.1432330E-05  (-0.1431975E-05)
 number of electron     240.0000000 magnetization      52.0000000
 augmentation part      240.0000000 magnetization      52.0000000

 Free energy of the ion-electron system (eV)
  ---------------------------------------------------
  alpha Z        PSCENC =       298.82475179
  Ewald energy   TEWEN  =     -8790.00657200
  -Hartree energ DENC   =     -2124.21579079
  -exchange      EXHF   =         0.00000000
  -V(xc)+E(xc)   XCENC  =       533.78995775
  PAW double counting   =      8141.38806575    -8271.61346273
  entropy T*S    EENTRO =        -0.00000000
  eigenvalues    EBANDS =     -2732.95637635
  atomic energy  EATOM  =     12703.13999606
  Solvation  Ediel_sol  =         0.00000000
  ---------------------------------------------------
  free energy    TOTEN  =      -241.64943052 eV

  energy without entropy =     -241.64943052  energy(sigma->0) =     -241.64943052


--------------------------------------------------------------------------------------------------------




--------------------------------------- Iteration      1(  10)  ---------------------------------------


     EDDAV:  cpu time      1.9673: real time      1.9824
       DOS:  cpu time      0.0005: real time      0.0005
    CHARGE:  cpu time      0.0667: real time      0.0735
    MIXING:  cpu time      0.0018: real time      0.0028
    --------------------------------------------
      LOOP:  cpu time      2.0364: real time      2.0592

 eigenvalue-minimisations  :  2656
 total energy-change (2. order) :-0.6124901E-07  (-0.6106735E-07)
 number of electron     240.0000018 magnetization      27.3548119
 augmentation part        1.4827964 magnetization      27.7963026

 Broyden mixing:
  rms(total) = 0.63682E+01    rms(broyden)= 0.63679E+01
  rms(prec ) = 0.66054E+01
  weight for this iteration     100.00

 Free energy of the ion-electron system (eV)
  ---------------------------------------------------
  alpha Z        PSCENC =       298.82475179
  Ewald energy   TEWEN  =     -8790.00657200
  -Hartree energ DENC   =     -2124.21579079
  -exchange      EXHF   =         0.00000000
  -V(xc)+E(xc)   XCENC  =       533.78995775
  PAW double counting   =      8141.38806575    -8271.61346273
  entropy T*S    EENTRO =        -0.00000000
  eigenvalues    EBANDS =     -2732.95637641
  atomic energy  EATOM  =     12703.13999606
  Solvation  Ediel_sol  =         0.00000000
  ---------------------------------------------------
  free energy    TOTEN  =      -241.64943058 eV

  energy without entropy =     -241.64943058  energy(sigma->0) =     -241.64943058


--------------------------------------------------------------------------------------------------------




--------------------------------------- Iteration      1(  11)  ---------------------------------------


    POTLOK:  cpu time      0.0550: real time      0.0558
    SETDIJ:  cpu time      0.3969: real time      0.4000
    EDDIAG:  cpu time      0.3649: real time      0.3675
  RMM-DIIS:  cpu time      1.1671: real time      1.1775
    ORTHCH:  cpu time      0.0659: real time      0.0671
       DOS:  cpu time      0.0005: real time      0.0005
    CHARGE:  cpu time      0.0645: real time      0.0668
    MIXING:  cpu time      0.0012: real time      0.0031
    --------------------------------------------
      LOOP:  cpu time      2.1159: real time      2.1384

 eigenvalue-minimisations  :  2816
 total energy-change (2. order) : 0.6258716E+01  (-0.4786544E+01)
 number of electron     240.0000018 magnetization      16.4794665
 augmentation part        1.6998338 magnetization      16.6609303

 Broyden mixing:
  rms(total) = 0.32617E+01    rms(broyden)= 0.32616E+01
  rms(prec ) = 0.33792E+01
  weight for this iteration     100.00

 eigenvalues of (default mixing * dielectric matrix)
  average eigenvalue GAMMA=   0.7240
  0.7240

 Free energy of the ion-electron system (eV)
  ---------------------------------------------------
  alpha Z        PSCENC =       298.82475179
  Ewald energy   TEWEN  =     -8790.00657200
  -Hartree energ DENC   =     -2172.77912363
  -exchange      EXHF   =         0.00000000
  -V(xc)+E(xc)   XCENC  =       542.22511639
  PAW double counting   =      8915.24888087    -9051.44105253
  entropy T*S    EENTRO =        -0.00000000
  eigenvalues    EBANDS =     -2680.60271118
  atomic energy  EATOM  =     12703.13999606
  Solvation  Ediel_sol  =         0.00000000
  ---------------------------------------------------
  free energy    TOTEN  =      -235.39071421 eV

  energy without entropy =     -235.39071421  energy(sigma->0) =     -235.39071421


--------------------------------------------------------------------------------------------------------




--------------------------------------- Iteration      1(  12)  ---------------------------------------


    POTLOK:  cpu time      0.0531: real time      0.0540
    SETDIJ:  cpu time      0.4027: real time      0.4048
    EDDIAG:  cpu time      0.3547: real time      0.3568
  RMM-DIIS:  cpu time      1.2212: real time      1.2324
    ORTHCH:  cpu time      0.0661: real time      0.0672
       DOS:  cpu time      0.0005: real time      0.0006
    CHARGE:  cpu time      0.0650: real time      0.0667
    MIXING:  cpu time      0.0011: real time      0.0011
    --------------------------------------------
      LOOP:  cpu time      2.1646: real time      2.1835

 eigenvalue-minimisations  :  2953
 total energy-change (2. order) :-0.2043088E+02  (-0.2220882E+01)
 number of electron     240.0000018 magnetization       0.8678937
 augmentation part        1.7997296 magnetization       1.2095695

 Broyden mixing:
  rms(total) = 0.20004E+01    rms(broyden)= 0.20004E+01
  rms(prec ) = 0.20622E+01
  weight for this iteration     100.00

 eigenvalues of (default mixing * dielectric matrix)
  average eigenvalue GAMMA=   1.1206
  1.5720  0.6692

 Free energy of the ion-electron system (eV)
  ---------------------------------------------------
  alpha Z        PSCENC =       298.82475179
  Ewald energy   TEWEN  =     -8790.00657200
  -Hartree energ DENC   =     -2197.14665598
  -exchange      EXHF   =         0.00000000
  -V(xc)+E(xc)   XCENC  =       535.79039543
  PAW double counting   =      9260.61576443    -9400.39617468
  entropy T*S    EENTRO =        -0.00000000
  eigenvalues    EBANDS =     -2666.64309622
  atomic energy  EATOM  =     12703.13999606
  Solvation  Ediel_sol  =         0.00000000
  ---------------------------------------------------
  free energy    TOTEN  =      -255.82159116 eV

  energy without entropy =     -255.82159116  energy(sigma->0) =     -255.82159116


--------------------------------------------------------------------------------------------------------




--------------------------------------- Iteration      1(  13)  ---------------------------------------


    POTLOK:  cpu time      0.0526: real time      0.0535
    SETDIJ:  cpu time      0.4026: real time      0.4043
    EDDIAG:  cpu time      0.3565: real time      0.3586
  RMM-DIIS:  cpu time      1.1872: real time      1.1974
    ORTHCH:  cpu time      0.0658: real time      0.0671
       DOS:  cpu time      0.0006: real time      0.0006
    CHARGE:  cpu time      0.0648: real time      0.0665
    MIXING:  cpu time      0.0012: real time      0.0012
    --------------------------------------------
      LOOP:  cpu time      2.1312: real time      2.1492

 eigenvalue-minimisations  :  2875
 total energy-change (2. order) :-0.2510334E+01  (-0.8817608E+00)
 number of electron     240.0000017 magnetization      -1.8340766
 augmentation part        1.9029662 magnetization      -1.7221177

 Broyden mixing:
  rms(total) = 0.69573E+00    rms(broyden)= 0.69573E+00
  rms(prec ) = 0.72725E+00
  weight for this iteration     100.00

 eigenvalues of (default mixing * dielectric matrix)
  average eigenvalue GAMMA=   1.2996
  2.5052  0.7424  0.6511

 Free energy of the ion-electron system (eV)
  ---------------------------------------------------
  alpha Z        PSCENC =       298.82475179
  Ewald energy   TEWEN  =     -8790.00657200
  -Hartree energ DENC   =     -2223.96058449
  -exchange      EXHF   =         0.00000000
  -V(xc)+E(xc)   XCENC  =       537.19201565
  PAW double counting   =      9742.37534770    -9885.97157972
  entropy T*S    EENTRO =        -0.00000000
  eigenvalues    EBANDS =     -2639.92530011
  atomic energy  EATOM  =     12703.13999606
  Solvation  Ediel_sol  =         0.00000000
  ---------------------------------------------------
  free energy    TOTEN  =      -258.33192512 eV

  energy without entropy =     -258.33192512  energy(sigma->0) =     -258.33192512


--------------------------------------------------------------------------------------------------------




--------------------------------------- Iteration      1(  14)  ---------------------------------------


    POTLOK:  cpu time      0.0523: real time      0.0532
    SETDIJ:  cpu time      0.4038: real time      0.4053
    EDDIAG:  cpu time      0.3534: real time      0.3555
  RMM-DIIS:  cpu time      1.5546: real time      1.5680
    ORTHCH:  cpu time      0.0667: real time      0.0670
       DOS:  cpu time      0.0006: real time      0.0006
    CHARGE:  cpu time      0.0652: real time      0.0666
    MIXING:  cpu time      0.0011: real time      0.0011
    --------------------------------------------
      LOOP:  cpu time      2.4977: real time      2.5174

 eigenvalue-minimisations  :  3749
 total energy-change (2. order) :-0.2013429E+00  (-0.2040865E+00)
 number of electron     240.0000017 magnetization      -0.8177104
 augmentation part        1.8728744 magnetization      -0.7909812

 Broyden mixing:
  rms(total) = 0.32272E+00    rms(broyden)= 0.32272E+00
  rms(prec ) = 0.35947E+00
  weight for this iteration     100.00

 eigenvalues of (default mixing * dielectric matrix)
  average eigenvalue GAMMA=   1.2720
  2.6213  1.1813  0.6910  0.5946

 Free energy of the ion-electron system (eV)
  ---------------------------------------------------
  alpha Z        PSCENC =       298.82475179
  Ewald energy   TEWEN  =     -8790.00657200
  -Hartree energ DENC   =     -2225.56288017
  -exchange      EXHF   =         0.00000000
  -V(xc)+E(xc)   XCENC  =       537.68108856
  PAW double counting   =      9824.22244577    -9968.67514080
  entropy T*S    EENTRO =        -0.00000000
  eigenvalues    EBANDS =     -2638.15695724
  atomic energy  EATOM  =     12703.13999606
  Solvation  Ediel_sol  =         0.00000000
  ---------------------------------------------------
  free energy    TOTEN  =      -258.53326802 eV

  energy without entropy =     -258.53326802  energy(sigma->0) =     -258.53326802


--------------------------------------------------------------------------------------------------------




--------------------------------------- Iteration      1(  15)  ---------------------------------------


    POTLOK:  cpu time      0.0521: real time      0.0529
    SETDIJ:  cpu time      0.4029: real time      0.4048
    EDDIAG:  cpu time      0.3547: real time      0.3566
  RMM-DIIS:  cpu time      1.2799: real time      1.2910
    ORTHCH:  cpu time      0.0652: real time      0.0658
       DOS:  cpu time      0.0005: real time      0.0005
    CHARGE:  cpu time      0.0658: real time      0.0664
    MIXING:  cpu time      0.0012: real time      0.0012
    --------------------------------------------
      LOOP:  cpu time      2.2224: real time      2.2393

 eigenvalue-minimisations  :  3049
 total energy-change (2. order) : 0.3671042E-01  (-0.3654216E-01)
 number of electron     240.0000017 magnetization      -0.2417267
 augmentation part        1.8225830 magnetization      -0.2150678

 Broyden mixing:
  rms(total) = 0.66475E-01    rms(broyden)= 0.66474E-01
  rms(prec ) = 0.78681E-01
  weight for this iteration     100.00

 eigenvalues of (default mixing * dielectric matrix)
  average eigenvalue GAMMA=   1.2706
  2.5394  1.5728  0.9517  0.6861  0.6029

 Free energy of the ion-electron system (eV)
  ---------------------------------------------------
  alpha Z        PSCENC =       298.82475179
  Ewald energy   TEWEN  =     -8790.00657200
  -Hartree energ DENC   =     -2220.50374773
  -exchange      EXHF   =         0.00000000
  -V(xc)+E(xc)   XCENC  =       537.29399191
  PAW double counting   =      9793.63713004    -9937.90459412
  entropy T*S    EENTRO =        -0.00000000
  eigenvalues    EBANDS =     -2642.97751355
  atomic energy  EATOM  =     12703.13999606
  Solvation  Ediel_sol  =         0.00000000
  ---------------------------------------------------
  free energy    TOTEN  =      -258.49655760 eV

  energy without entropy =     -258.49655760  energy(sigma->0) =     -258.49655760


--------------------------------------------------------------------------------------------------------




--------------------------------------- Iteration      1(  16)  ---------------------------------------


    POTLOK:  cpu time      0.0539: real time      0.0547
    SETDIJ:  cpu time      0.4036: real time      0.4050
    EDDIAG:  cpu time      0.3549: real time      0.3586
  RMM-DIIS:  cpu time      1.2877: real time      1.2990
    ORTHCH:  cpu time      0.0648: real time      0.0652
       DOS:  cpu time      0.0004: real time      0.0004
    CHARGE:  cpu time      0.0646: real time      0.0653
    MIXING:  cpu time      0.0013: real time      0.0013
    --------------------------------------------
      LOOP:  cpu time      2.2311: real time      2.2496

 eigenvalue-minimisations  :  3080
 total energy-change (2. order) :-0.2038637E-01  (-0.1089708E-01)
 number of electron     240.0000017 magnetization      -0.1233504
 augmentation part        1.8000008 magnetization      -0.1085335

 Broyden mixing:
  rms(total) = 0.30989E-01    rms(broyden)= 0.30988E-01
  rms(prec ) = 0.37959E-01
  weight for this iteration     100.00

 eigenvalues of (default mixing * dielectric matrix)
  average eigenvalue GAMMA=   1.2418
  2.4582  1.9091  1.0330  0.6211  0.7071  0.7223

 Free energy of the ion-electron system (eV)
  ---------------------------------------------------
  alpha Z        PSCENC =       298.82475179
  Ewald energy   TEWEN  =     -8790.00657200
  -Hartree energ DENC   =     -2220.07767859
  -exchange      EXHF   =         0.00000000
  -V(xc)+E(xc)   XCENC  =       537.22558825
  PAW double counting   =      9784.10026842    -9928.15470341
  entropy T*S    EENTRO =        -0.00000000
  eigenvalues    EBANDS =     -2643.56859449
  atomic energy  EATOM  =     12703.13999606
[...]
  0.433  -0.445  -0.001   0.376   0.003  -0.054   0.003   0.000  -0.000   0.003  -0.002  -0.005  -0.003   0.001
  0.619  -0.636  -0.002   0.003   0.436  -0.075   0.000   0.003  -0.001  -0.003  -0.002   0.002   0.003   0.004
 -0.394   0.405   0.001  -0.054  -0.075   0.714  -0.000  -0.001   0.005   0.006  -0.003   0.004   0.008  -0.006
  0.004  -0.003  -0.000   0.003   0.000  -0.000   0.000   0.000  -0.000   0.000  -0.000  -0.000  -0.000   0.000
  0.005  -0.004  -0.000   0.000   0.003  -0.001   0.000   0.000  -0.000  -0.000  -0.000   0.000   0.000   0.000
 -0.003   0.002   0.000  -0.000  -0.001   0.005  -0.000  -0.000   0.000   0.000  -0.000   0.000   0.000  -0.000
 -0.007   0.007   0.000   0.003  -0.003   0.006   0.000  -0.000   0.000   0.000  -0.000  -0.000  -0.000  -0.000
  0.004  -0.004  -0.000  -0.002  -0.002  -0.003  -0.000  -0.000  -0.000  -0.000   0.000   0.000  -0.000  -0.000
 -0.007   0.007   0.000  -0.005   0.002   0.004  -0.000   0.000   0.000  -0.000   0.000   0.000   0.000  -0.000
 -0.011   0.011   0.000  -0.003   0.003   0.008  -0.000   0.000   0.000  -0.000  -0.000   0.000   0.000  -0.000
  0.020  -0.020  -0.000   0.001   0.004  -0.006   0.000   0.000  -0.000  -0.000  -0.000  -0.000  -0.000   0.000
 total augmentation occupancy for first ion, spin component:           2
  0.000  -0.000   0.000  -0.000   0.000  -0.000  -0.000  -0.000   0.000  -0.000   0.000   0.000   0.000   0.000
 -0.000   0.000  -0.000   0.000  -0.000   0.000   0.000  -0.000   0.000   0.000  -0.000  -0.000  -0.000  -0.000
  0.000  -0.000  -0.000  -0.000   0.000  -0.000  -0.000   0.000  -0.000  -0.000   0.000   0.000   0.000   0.000
 -0.000   0.000  -0.000  -0.000   0.000   0.000  -0.000   0.000  -0.000   0.000  -0.000   0.000   0.000  -0.000
  0.000  -0.000   0.000   0.000  -0.000  -0.000  -0.000   0.000  -0.000   0.000   0.000  -0.000  -0.000   0.000
 -0.000   0.000  -0.000   0.000  -0.000  -0.000   0.000  -0.000   0.000   0.000   0.000  -0.000  -0.000   0.000
 -0.000   0.000  -0.000  -0.000  -0.000   0.000  -0.000  -0.000   0.000   0.000  -0.000   0.000   0.000  -0.000
 -0.000  -0.000   0.000   0.000   0.000  -0.000  -0.000   0.000  -0.000  -0.000   0.000  -0.000  -0.000   0.000
  0.000   0.000  -0.000  -0.000  -0.000   0.000   0.000  -0.000   0.000   0.000  -0.000   0.000  -0.000  -0.000
 -0.000   0.000  -0.000   0.000   0.000   0.000   0.000  -0.000   0.000   0.000  -0.000  -0.000  -0.000  -0.000
  0.000  -0.000   0.000  -0.000   0.000   0.000  -0.000   0.000  -0.000  -0.000  -0.000   0.000   0.000   0.000
  0.000  -0.000   0.000   0.000  -0.000  -0.000   0.000  -0.000   0.000  -0.000   0.000  -0.000  -0.000   0.000
  0.000  -0.000   0.000   0.000  -0.000  -0.000   0.000  -0.000  -0.000  -0.000   0.000  -0.000  -0.000   0.000
  0.000  -0.000   0.000  -0.000   0.000   0.000  -0.000   0.000  -0.000  -0.000   0.000   0.000   0.000  -0.000


------------------------ aborting loop because EDIFF is reached ----------------------------------------


    CHARGE:  cpu time      0.0644: real time      0.0652
    FORLOC:  cpu time      0.0038: real time      0.0038
    FORNL :  cpu time      0.3946: real time      0.3973
    STRESS:  cpu time      1.1775: real time      1.1855
    FORCOR:  cpu time      0.0501: real time      0.0504
    FORHAR:  cpu time      0.0084: real time      0.0084
    MIXING:  cpu time      0.0008: real time      0.0008
    OFIELD:  cpu time      0.0000: real time      0.0000

 ---------------------------------------------------------------------------------------------

         DFTD3 V3.0 Rev 1        
 Edisp (eV)  -13.46712

 E6    (eV) :    -8.2990
 E8    (eV) :    -5.1681
 % E8        : 38.38
    FORVDW:  cpu time      0.2895: real time      0.2912

  FORCE on cell =-STRESS in cart. coord.  units (eV):
  Direction    XX          YY          ZZ          XY          YZ          ZX
  --------------------------------------------------------------------------------------
  Alpha Z   298.82475   298.82475   298.82475
  Ewald   -2985.25242 -2950.22897 -2854.60004   -43.96786    15.00130    11.47156
  Hartree   714.45328   731.02217   777.23882   -19.18023    19.23640     7.17448
  E(xc)    -947.36681  -947.27652  -947.03491    -0.07868    -0.01536     0.00074
  Local   -1435.39083 -1488.84560 -1622.97504    60.37420   -36.24131   -18.81363
  n-local  1479.72542  1481.35620  1480.98149    -0.57528    -0.34256    -0.00689
  augment  -356.85195  -357.19204  -356.58670    -0.03197    -0.04031    -0.09635
  Kinetic  3242.63761  3245.87910  3236.14044     1.82015     1.31529     1.62386
  Fock        0.00000     0.00000     0.00000     0.00000     0.00000     0.00000
  vdW       -14.30153   -14.25540   -14.25578    -0.01823    -0.01517    -0.00326
  -------------------------------------------------------------------------------------
  Total      -3.52247    -0.71629    -2.26697    -1.65791    -1.10172     1.35052
  in kB      -6.21259    -1.26332    -3.99825    -2.92405    -1.94310     2.38191
  external pressure =       -3.82 kB  Pullay stress =        0.00 kB


 VOLUME and BASIS-vectors are now :
 -----------------------------------------------------------------------------
  energy-cutoff  :      520.00
  volume of cell :      908.42
      direct lattice vectors                 reciprocal lattice vectors
     9.684898967  0.000000000  0.000000000     0.103253529  0.000000000  0.000000000
     0.000000000  9.684898967  0.000000000     0.000000000  0.103253529  0.000000000
     0.000000000  0.000000000  9.684898967     0.000000000  0.000000000  0.103253529

  length of vectors
     9.684898967  9.684898967  9.684898967     0.103253529  0.103253529  0.103253529


 FORCES acting on ions
    electron-ion (+dipol)            ewald-force                    non-local-force                 convergence-correction
 -----------------------------------------------------------------------------------------------
   -.385E+00 0.775E+01 0.853E+01   -.682E+00 -.665E+01 -.696E+01   0.107E+01 -.110E+01 -.157E+01   0.261E-04 0.583E-06 0.587E-04
   -.101E+02 -.721E+01 -.445E+01   0.101E+02 0.620E+01 0.340E+01   -.495E-02 0.101E+01 0.105E+01   0.426E-04 0.779E-06 0.270E-04
   0.666E+01 0.579E+00 0.318E+00   -.495E+01 0.353E+00 -.165E+01   -.170E+01 -.938E+00 0.133E+01   0.692E-04 -.170E-04 0.358E-04
   -.557E+01 -.107E+02 0.843E+01   0.626E+01 0.919E+01 -.715E+01   -.687E+00 0.147E+01 -.128E+01   0.283E-04 -.390E-04 -.164E-04
   -.608E+01 0.610E+01 -.264E+01   0.701E+01 -.480E+01 0.123E+01   -.934E+00 -.131E+01 0.140E+01   0.362E-04 0.156E-03 0.969E-04
   0.235E+01 -.183E+01 0.511E+01   -.286E+01 0.321E+01 -.420E+01   0.512E+00 -.139E+01 -.901E+00   -.270E-04 0.432E-04 0.291E-04
   0.128E+02 -.917E+01 -.239E+01   -.117E+02 0.761E+01 0.292E+01   -.117E+01 0.155E+01 -.540E+00   0.211E-04 0.562E-04 0.569E-04
   0.850E+01 0.650E+01 -.828E+01   -.728E+01 -.532E+01 0.804E+01   -.122E+01 -.119E+01 0.230E+00   -.513E-04 0.456E-04 -.244E-04
   0.602E+01 -.541E+01 -.281E+01   -.652E+01 0.481E+01 0.174E+01   0.502E+00 0.596E+00 0.108E+01   -.428E-05 0.150E-04 -.669E-04
   -.185E+02 -.841E+01 0.978E+01   0.165E+02 0.100E+02 -.799E+01   0.198E+01 -.160E+01 -.179E+01   -.870E-04 -.687E-04 -.432E-04
   -.531E+01 -.542E+01 0.493E+01   0.440E+01 0.554E+01 -.536E+01   0.907E+00 -.112E+00 0.433E+00   -.115E-03 -.133E-03 0.376E-03
   0.263E+00 0.162E+01 -.702E+01   0.947E+00 -.807E+00 0.603E+01   -.121E+01 -.804E+00 0.100E+01   -.446E-04 -.159E-04 -.255E-04
   0.761E+01 0.144E+02 -.416E+01   -.666E+01 -.126E+02 0.297E+01   -.948E+00 -.176E+01 0.118E+01   -.111E-03 0.220E-05 -.632E-05
   -.613E+00 -.826E+01 0.208E+01   0.175E+01 0.684E+01 -.503E+00   -.114E+01 0.142E+01 -.158E+01   0.413E-05 -.233E-04 -.135E-04
   -.489E+00 -.557E+01 -.134E+01   -.200E+00 0.645E+01 0.133E+01   0.691E+00 -.887E+00 0.112E-01   -.307E-04 0.325E-05 -.992E-04
   -.640E+01 -.306E+00 -.109E+02   0.480E+01 -.809E+00 0.101E+02   0.160E+01 0.111E+01 0.809E+00   0.107E-03 -.167E-04 -.141E-03
   -.838E+01 0.995E+01 -.215E+01   0.661E+01 -.117E+02 0.102E+01   0.178E+01 0.170E+01 0.113E+01   -.476E-04 0.915E-04 -.385E-04
   -.627E+01 0.999E+01 0.599E+01   0.527E+01 -.936E+01 -.422E+01   0.100E+01 -.626E+00 -.176E+01   0.105E-03 0.521E-04 -.194E-04
   -.532E+01 0.196E+01 0.400E+01   0.422E+01 -.250E+01 -.482E+01   0.110E+01 0.535E+00 0.817E+00   0.302E-04 0.106E-03 -.240E-04
   -.365E+01 0.671E+01 0.158E+02   0.309E+01 -.638E+01 -.150E+02   0.566E+00 -.329E+00 -.724E+00   -.521E-04 0.230E-04 0.490E-05
   -.295E+01 -.184E+02 0.865E+01   0.322E+01 0.172E+02 -.756E+01   -.277E+00 0.116E+01 -.109E+01   0.278E-04 -.281E-04 0.630E-04
   -.295E+01 0.401E+01 -.169E+01   0.199E+01 -.513E+01 0.104E+01   0.957E+00 0.112E+01 0.657E+00   0.307E-04 -.472E-04 -.225E-05
   0.700E+01 -.306E+01 -.854E+01   -.625E+01 0.415E+01 0.753E+01   -.745E+00 -.109E+01 0.101E+01   -.116E-03 -.130E-05 -.823E-04
   -.186E+01 0.783E+01 -.114E+02   0.255E+01 -.763E+01 0.103E+02   -.703E+00 -.203E+00 0.109E+01   -.160E-03 0.214E-03 -.959E-04
   0.944E+01 0.900E+01 0.829E+01   -.882E+01 -.975E+01 -.780E+01   -.632E+00 0.749E+00 -.482E+00   0.982E-05 0.124E-03 0.303E-04
   0.130E+02 -.666E+01 0.242E+01   -.126E+02 0.783E+01 -.352E+01   -.427E+00 -.116E+01 0.109E+01   0.243E-04 -.294E-03 0.810E-04
   -.108E+02 0.480E+01 -.715E+01   0.104E+02 -.522E+01 0.789E+01   0.402E+00 0.414E+00 -.735E+00   -.118E-04 0.536E-05 0.628E-04
   -.335E+01 -.467E+01 -.738E+01   0.319E+01 0.464E+01 0.749E+01   0.165E+00 0.285E-01 -.106E+00   0.798E-04 0.380E-04 0.614E-05
   -.546E+02 0.372E+02 -.361E+02   0.584E+02 -.399E+02 0.386E+02   -.385E+01 0.273E+01 -.244E+01   0.209E-03 0.482E-04 -.895E-04
   -.392E+02 -.516E+02 0.360E+02   0.417E+02 0.551E+02 -.390E+02   -.242E+01 -.359E+01 0.301E+01   -.409E-04 0.123E-03 -.678E-04
   0.276E+02 0.392E+02 0.402E+02   -.297E+02 -.424E+02 -.435E+02   0.213E+01 0.321E+01 0.322E+01   0.208E-04 -.189E-03 -.127E-03
   0.679E+02 -.221E+02 -.395E+02   -.728E+02 0.235E+02 0.422E+02   0.492E+01 -.132E+01 -.270E+01   0.362E-03 -.152E-03 -.162E-03
   0.262E+02 -.425E+02 -.435E+02   -.285E+02 0.459E+02 0.468E+02   0.226E+01 -.343E+01 -.328E+01   0.650E-04 -.282E-04 0.617E-04
   0.559E+02 0.537E+02 0.310E+02   -.596E+02 -.567E+02 -.332E+02   0.373E+01 0.298E+01 0.226E+01   0.266E-03 0.605E-04 0.313E-03
   -.514E+02 -.344E+02 0.449E+02   0.545E+02 0.367E+02 -.488E+02   -.305E+01 -.230E+01 0.387E+01   0.165E-05 -.824E-05 -.114E-03
   -.464E+02 0.347E+02 -.521E+02   0.493E+02 -.375E+02 0.557E+02   -.289E+01 0.275E+01 -.353E+01   0.164E-03 0.818E-04 0.713E-04
   -.141E+02 -.616E+02 0.716E+02   0.153E+02 0.648E+02 -.754E+02   -.121E+01 -.321E+01 0.384E+01   0.103E-03 -.400E-03 0.736E-04
   -.426E+02 0.314E+02 -.303E+02   0.464E+02 -.339E+02 0.329E+02   -.384E+01 0.253E+01 -.255E+01   -.157E-03 -.242E-03 -.116E-03
   0.409E+02 -.502E+02 -.280E+02   -.441E+02 0.538E+02 0.307E+02   0.316E+01 -.355E+01 -.274E+01   -.179E-03 -.150E-03 0.147E-03
   0.490E+02 0.239E+02 0.422E+02   -.523E+02 -.265E+02 -.453E+02   0.327E+01 0.266E+01 0.311E+01   -.119E-04 -.360E-03 0.131E-03
   -.226E+02 -.272E+02 0.542E+02   0.255E+02 0.299E+02 -.580E+02   -.291E+01 -.269E+01 0.381E+01   0.393E-04 0.137E-03 -.258E-03
   -.184E+02 0.852E+02 -.488E+02   0.195E+02 -.892E+02 0.523E+02   -.117E+01 0.399E+01 -.357E+01   -.624E-04 0.748E-03 0.281E-04
   0.562E+02 -.474E+02 -.308E+02   -.590E+02 0.505E+02 0.334E+02   0.273E+01 -.317E+01 -.255E+01   0.158E-03 0.256E-03 -.587E-04
   0.501E+02 0.404E+02 0.274E+02   -.536E+02 -.433E+02 -.301E+02   0.351E+01 0.282E+01 0.262E+01   0.164E-03 -.346E-04 -.979E-04
   0.179E+01 -.202E+02 0.892E+01   -.182E+01 0.208E+02 -.903E+01   0.238E-01 -.525E+00 0.107E+00   -.373E-03 -.418E-04 0.185E-03
   0.499E+01 -.334E+01 0.142E+02   -.505E+01 0.339E+01 -.146E+02   0.621E-01 -.518E-01 0.379E+00   0.130E-03 -.104E-03 0.474E-04
   0.135E+02 0.477E+01 -.245E+01   -.138E+02 -.487E+01 0.266E+01   0.324E+00 0.954E-01 -.215E+00   0.355E-04 -.987E-04 -.298E-03
   -.309E+02 -.197E+01 0.879E+01   0.315E+02 0.204E+01 -.890E+01   -.539E+00 -.812E-01 0.110E+00   -.826E-04 0.882E-04 -.615E-04
   -.187E+02 0.112E+01 -.128E+02   0.192E+02 -.112E+01 0.130E+02   -.502E+00 0.353E-02 -.282E+00   0.809E-04 -.202E-03 0.104E-03
   -.359E+02 0.472E+01 0.120E+02   0.365E+02 -.470E+01 -.126E+02   -.605E+00 -.140E-01 0.625E+00   0.122E-03 0.177E-03 -.127E-03
   -.546E+01 -.198E+02 -.479E+02   0.567E+01 0.200E+02 0.485E+02   -.214E+00 -.230E+00 -.631E+00   0.243E-03 -.109E-03 -.128E-03
   0.707E+01 0.313E+02 -.248E+02   -.715E+01 -.318E+02 0.254E+02   0.728E-01 0.498E+00 -.676E+00   -.256E-03 0.952E-04 -.263E-03
 -----------------------------------------------------------------------------------------------
   -.445E+01 0.153E+01 -.358E+01   0.249E-13 0.782E-13 -.391E-13   0.444E+01 -.153E+01 0.358E+01   0.787E-03 -.108E-04 -.575E-03
 
 
 POSITION                                       TOTAL-FORCE (eV/Angst)
 -----------------------------------------------------------------------------------
      9.17152      1.79150      1.68027        -0.000012      0.000142     -0.000084
      9.63655      7.99546      7.78122         0.000062     -0.000028      0.000167
      9.56802      1.96575      7.63618        -0.000029     -0.000154      0.000053
      0.34471      8.03782      1.60147         0.000064      0.000044      0.000039
      1.97433      1.84768      9.36324        -0.000057     -0.000338      0.000076
      2.90604      7.03968      0.00136         0.000131      0.000150      0.000228
      6.25606      3.12059      0.41132        -0.000116     -0.000027     -0.000212
      6.63753      6.67258      9.55315         0.000026      0.000120     -0.000071
      2.69160      9.51075      2.99957         0.000133      0.000001     -0.000022
      3.01858      0.56975      6.46195         0.000008     -0.000100      0.000015
      7.45165      9.38616      8.49741         0.000026      0.000282     -0.000402
      6.81056      0.21173      2.99485         0.000019      0.000138      0.000028
      1.77014      6.57296      4.40117         0.000149     -0.000011      0.000151
      1.51128      3.17267      5.09941        -0.000103     -0.000097     -0.000002
      7.70235      6.82199      5.00917        -0.000072      0.000062      0.000133
      7.75293      2.76998      4.72650        -0.000157     -0.000084     -0.000031
      2.99859      4.47605      7.71768         0.000083     -0.000084      0.000243
      2.99529      5.04979      1.79207        -0.000229      0.000041     -0.000027
      7.88813      4.63219      2.80566         0.000124     -0.000034      0.000006
      8.83307      5.32741      6.99356         0.000190      0.000021      0.000053
      5.28978      8.17914      6.45827        -0.000070     -0.000244     -0.000086
      4.66570      7.73317      2.77610         0.000023     -0.000020     -0.000082
      4.90965      2.08800      3.18856         0.000030     -0.000023      0.000116
      5.79344      5.41811      7.43028         0.000342     -0.000325      0.000027
      4.79862      4.87015      4.79921         0.000099      0.000380      0.000194
      4.78888      0.19489      9.59481         0.000113      0.000962      0.000019
      9.61533      4.84874      0.00865         0.000221      0.000055     -0.000022
      9.60155      9.65547      4.80151        -0.000160     -0.000613     -0.000088
      1.28096      8.52694      5.84475        -0.000025      0.000138      0.000310
      0.92489      1.33024      3.62819        -0.000045      0.000288      0.000229
      8.57930      8.42275      3.50977        -0.000119      0.000120     -0.000003
      8.22639      0.85251      6.04202         0.000292      0.000141     -0.000190
      8.56912      6.17615      1.16380        -0.000181     -0.000134      0.000015
      8.24182      3.72923      8.64145         0.000187      0.000413     -0.000032
      1.11413      5.94749      8.37899        -0.000101     -0.000132      0.000115
      1.09069      3.63225      1.16116        -0.000255     -0.000182     -0.000085
      5.83451      1.44829      8.40232         0.000051     -0.000107      0.000057
      6.07959      8.67360      1.00859         0.000019     -0.000052     -0.000136
      3.62683      1.25294      1.23383        -0.000075     -0.000057      0.000151
      3.66663      8.72845      8.30176         0.000018     -0.000277      0.000105
      6.00256      5.96873      3.53787        -0.000049      0.000052      0.000097
      5.86724      3.59791      5.96385        -0.000624      0.000271     -0.000514
      3.77849      6.17546      6.03944         0.000091     -0.000235      0.000213
      3.39951      3.81912      3.71960        -0.000121     -0.000096     -0.000133
      7.33881      7.22404      7.31681        -0.000098     -0.000223     -0.000074
      7.10853      2.46426      2.49948         0.000054     -0.000048      0.000327
      2.45548      7.29456      2.25466         0.000103      0.000043     -0.000298
      2.04515      2.49259      7.19198        -0.000146      0.000006     -0.000054
      9.63467      0.10790      9.52196         0.000102     -0.000117     -0.000269
      9.39203      4.87693      4.77549        -0.000134     -0.000041      0.000186
      4.72852      9.61065      4.46580         0.000270      0.000078     -0.000157
      4.69231      5.09911      9.55262        -0.000051     -0.000063     -0.000277
 -----------------------------------------------------------------------------------
    total drift:                               -0.005023      0.004324     -0.001725


--------------------------------------------------------------------------------------------------------



  FREE ENERGIE OF THE ION-ELECTRON SYSTEM (eV)
  ---------------------------------------------------
  free  energy   TOTEN  =      -271.99150834 eV

  energy  without entropy=     -271.99150834  energy(sigma->0) =     -271.99150834
 
 d Force = 0.4706433E-06[ 0.176E-06, 0.765E-06]  d Energy = 0.1677077E-05-0.121E-05
 d Force = 0.1221589E-01[ 0.122E-01, 0.122E-01]  d Ewald  = 0.1221589E-01-0.255E-10


--------------------------------------------------------------------------------------------------------


    POTLOK:  cpu time      0.4523: real time      0.4538


--------------------------------------------------------------------------------------------------------


 stress matrix after NEB project (eV)
     -3.52247     -1.65791      1.35052
     -1.65791     -0.71629     -1.10172
      1.35052     -1.10172     -2.26697
  FORCES: max atom, RMS     0.000969    0.000323
  FORCE total and by dimension    0.002327    0.000962
  Stress total and by dimension    5.443589    3.522473


--------------------------------------------------------------------------------------------------------


  
 reached required accuracy - stopping structural energy minimisation
     LOOP+:  cpu time      9.5768: real time      9.6705
    4ORBIT:  cpu time      0.0000: real time      0.0000

 total amount of memory used by VASP MPI-rank0    48121. kBytes
=======================================================================

   base      :      30000. kBytes
   nonlr-proj:       6506. kBytes
   fftplans  :       1747. kBytes
   grid      :       5278. kBytes
   one-center:         62. kBytes
   wavefun   :       4528. kBytes
 
  
  
 General timing and accounting informations for this job:
 ========================================================
  
                  Total CPU time used (sec):      115.050
                            User time (sec):      113.858
                          System time (sec):        1.192
                         Elapsed time (sec):      118.827
  
                   Maximum memory used (kb):      380872.
                   Average memory used (kb):          N/A
  
                          Minor page faults:        61645
                          Major page faults:          141
                 Voluntary context switches:         4672
