<?xml version="1.0" encoding="ISO-8859-1"?>
<modeling>
 <generator>
  <i name="program" type="string">vasp </i>
  <i name="version" type="string">6.4.1  </i>
  <i name="subversion" type="string">05Apr23 (build Jun 07 2023 15:38:11) complex                          parallel </i>
  <i name="platform" type="string">LinuxIFC </i>
  <i name="date" type="string">2023 10 16 </i>
  <i name="time" type="string">22:22:57 </i>
 </generator>
 <incar>
  <i type="string" name="PREC">Accu</i>
  <i type="string" name="ALGO">F</i>
  <i type="logical" name="LDIAG"> T  </i>
  <i type="int" name="ISPIN">     2</i>
  <i type="int" name="NELM">   100</i>
  <i type="int" name="NELMDL">   -10</i>
  <i type="int" name="IBRION">     2</i>
  <i name="EDIFF">      0.00000100</i>
  <i name="EDIFFG">     -0.00100000</i>
  <i type="int" name="NSW">  1000</i>
  <i type="int" name="ISIF">     2</i>
  <i name="ENCUT">    520.00000000</i>
  <i name="POTIM">      0.20000000</i>
  <i type="string" name="LREAL">Auto</i>
  <i type="logical" name="LPLANE"> T  </i>
  <i type="int" name="ISMEAR">     0</i>
  <i name="SIGMA">      0.03000000</i>
  <i type="int" name="LMAXMIX">     4</i>
  <i type="logical" name="LWAVE"> F  </i>
  <i type="logical" name="LCHARG"> F  </i>
  <i type="logical" name="LASPH"> T  </i>
  <i type="string" name="GGA">PE</i>
  <i type="int" name="IVDW">    12</i>
 </incar>
 <primitive_cell>
  <structure name="primitive_cell" >
   <crystal>
    <varray name="basis" >
     <v>       9.68489897       0.00000000       0.00000000 </v>
     <v>       0.00000000       9.68489897       0.00000000 </v>
     <v>       0.00000000       0.00000000       9.68489897 </v>
    </varray>
    <i name="volume">    908.41706402 </i>
    <varray name="rec_basis" >
     <v>       0.10325353       0.00000000       0.00000000 </v>
     <v>       0.00000000       0.10325353       0.00000000 </v>
     <v>       0.00000000       0.00000000       0.10325353 </v>
    </varray>
   </crystal>
   <varray name="positions" >
    <v>       0.94699585       0.18498792       0.17348903 </v>
    <v>       0.99500966       0.82556352       0.80342822 </v>
    <v>       0.98793508       0.20296336       0.78846692 </v>
    <v>       0.03559454       0.82993381       0.16535760 </v>
    <v>       0.20386312       0.19079712       0.96679169 </v>
    <v>       0.30004569       0.72686467       0.00013913 </v>
    <v>       0.64595822       0.32220804       0.04246382 </v>
    <v>       0.68534884       0.68895521       0.98639886 </v>
    <v>       0.27791790       0.98201719       0.30971792 </v>
    <v>       0.31167725       0.05882570       0.66722302 </v>
    <v>       0.76941345       0.96914550       0.87742869 </v>
    <v>       0.70321736       0.02186098       0.30922459 </v>
    <v>       0.18275664       0.67868212       0.45443132 </v>
    <v>       0.15604291       0.32758694       0.52652943 </v>
    <v>       0.79528814       0.70439713       0.51721742 </v>
    <v>       0.80051178       0.28600421       0.48802738 </v>
    <v>       0.30961030       0.46217693       0.79686176 </v>
    <v>       0.30929401       0.52140860       0.18504510 </v>
    <v>       0.81448477       0.47828806       0.28969603 </v>
    <v>       0.91202389       0.55006886       0.72211368 </v>
    <v>       0.54619391       0.84454356       0.66684502 </v>
    <v>       0.48174676       0.79847489       0.28665376 </v>
    <v>       0.50693906       0.21558659       0.32921766 </v>
    <v>       0.59817530       0.55946488       0.76719721 </v>
    <v>       0.49547852       0.50287265       0.49552986 </v>
    <v>       0.49446358       0.02012382       0.99069850 </v>
    <v>       0.99282421       0.50065079       0.00089452 </v>
    <v>       0.99139650       0.99695563       0.49576612 </v>
    <v>       0.13227052       0.88044148       0.60348711 </v>
    <v>       0.09549309       0.13735507       0.37462428 </v>
    <v>       0.88584311       0.86967407       0.36239485 </v>
    <v>       0.84941256       0.08802403       0.62386038 </v>
    <v>       0.88479362       0.63770682       0.12016752 </v>
    <v>       0.85100239       0.38505195       0.89226826 </v>
    <v>       0.11503015       0.61409675       0.86514894 </v>
    <v>       0.11262386       0.37504926       0.11989467 </v>
    <v>       0.60243726       0.14952620       0.86757033 </v>
    <v>       0.62772943       0.89557091       0.10413934 </v>
    <v>       0.37447672       0.12936398       0.12740038 </v>
    <v>       0.37858709       0.90123124       0.85718847 </v>
    <v>       0.61978768       0.61628973       0.36529057 </v>
    <v>       0.60582319       0.37151051       0.61580056 </v>
    <v>       0.39014804       0.63764652       0.62358266 </v>
    <v>       0.35102356       0.39433366       0.38406677 </v>
    <v>       0.75775183       0.74590887       0.75549083 </v>
    <v>       0.73398335       0.25444075       0.25808446 </v>
    <v>       0.25353905       0.75318679       0.23279269 </v>
    <v>       0.21116801       0.25737053       0.74259565 </v>
    <v>       0.99481861       0.01114032       0.98317495 </v>
    <v>       0.96975829       0.50356186       0.49309058 </v>
    <v>       0.48824245       0.99233554       0.46110596 </v>
    <v>       0.48449280       0.52649900       0.98633081 </v>
   </varray>
  </structure>
  <varray name="primitive_index" >
   <v type="int" >        1 </v>
   <v type="int" >        2 </v>
   <v type="int" >        3 </v>
   <v type="int" >        4 </v>
   <v type="int" >        5 </v>
   <v type="int" >        6 </v>
   <v type="int" >        7 </v>
   <v type="int" >        8 </v>
   <v type="int" >        9 </v>
   <v type="int" >       10 </v>
   <v type="int" >       11 </v>
   <v type="int" >       12 </v>
   <v type="int" >       13 </v>
   <v type="int" >       14 </v>
   <v type="int" >       15 </v>
   <v type="int" >       16 </v>
   <v type="int" >       17 </v>
   <v type="int" >       18 </v>
   <v type="int" >       19 </v>
   <v type="int" >       20 </v>
   <v type="int" >       21 </v>
   <v type="int" >       22 </v>
   <v type="int" >       23 </v>
   <v type="int" >       24 </v>
   <v type="int" >       25 </v>
   <v type="int" >       26 </v>
   <v type="int" >       27 </v>
   <v type="int" >       28 </v>
   <v type="int" >       29 </v>
   <v type="int" >       30 </v>
   <v type="int" >       31 </v>
   <v type="int" >       32 </v>
   <v type="int" >       33 </v>
   <v type="int" >       34 </v>
   <v type="int" >       35 </v>
   <v type="int" >       36 </v>
   <v type="int" >       37 </v>
   <v type="int" >       38 </v>
   <v type="int" >       39 </v>
   <v type="int" >       40 </v>
   <v type="int" >       41 </v>
   <v type="int" >       42 </v>
   <v type="int" >       43 </v>
   <v type="int" >       44 </v>
   <v type="int" >       45 </v>
   <v type="int" >       46 </v>
   <v type="int" >       47 </v>
   <v type="int" >       48 </v>
   <v type="int" >       49 </v>
   <v type="int" >       50 </v>
   <v type="int" >       51 </v>
   <v type="int" >       52 </v>
  </varray>
 </primitive_cell>
 <kpoints>
  <generation param="Monkhorst-Pack">
   <v type="int" name="divisions">       2        2        2 </v>
   <v name="usershift">      0.00000000       0.00000000       0.00000000 </v>
   <v name="genvec1">      0.50000000       0.00000000       0.00000000 </v>
   <v name="genvec2">      0.00000000       0.50000000       0.00000000 </v>
   <v name="genvec3">      0.00000000       0.00000000       0.50000000 </v>
   <v name="shift">      0.50000000       0.50000000       0.50000000 </v>
  </generation>
  <varray name="kpointlist" >
   <v>       0.25000000       0.25000000       0.25000000 </v>
   <v>      -0.25000000       0.25000000       0.25000000 </v>
   <v>      -0.25000000      -0.25000000       0.25000000 </v>
   <v>       0.25000000      -0.25000000       0.25000000 </v>
  </varray>
  <varray name="weights" >
   <v>       0.25000000 </v>
   <v>       0.25000000 </v>
   <v>       0.25000000 </v>
   <v>       0.25000000 </v>
  </varray>
 </kpoints>
 <parameters>
  <separator name="general" >
   <i type="string" name="SYSTEM">unknown system</i>
   <i type="logical" name="LCOMPAT"> F  </i>
  </separator>
  <separator name="electronic" >
   <i type="string" name="PREC">accu</i>
   <i name="ENMAX">    520.00000000</i>
   <i name="ENAUG">   1041.69900000</i>
   <i name="EDIFF">      0.00000100</i>
   <i type="int" name="IALGO">    68</i>
   <i type="int" name="IWAVPR">    11</i>
   <i type="int" name="NBANDS">   176</i>
   <i type="int" name="NBANDSLOW">    -1</i>
   <i type="int" name="NBANDSHIGH">    -1</i>
   <i name="NELECT">    240.00000000</i>
   <i type="int" name="TURBO">     0</i>
   <i type="int" name="IRESTART">     0</i>
   <i type="int" name="NREBOOT">     0</i>
   <i type="int" name="NMIN">     0</i>
   <i name="EREF">      0.00000000</i>
   <separator name="electronic smearing" >
    <i type="int" name="ISMEAR">     0</i>
    <i name="SIGMA">      0.03000000</i>
    <i name="KSPACING">      0.50000000</i>
    <i type="logical" name="KGAMMA"> T  </i>
    <i type="logical" name="KBLOWUP"> T  </i>
   </separator>
   <separator name="electronic projectors" >
    <i type="logical" name="LREAL"> T  </i>
    <v name="ROPT">     -0.00025000     -0.00025000     -0.00025000     -0.00025000</v>
    <i type="int" name="LMAXPAW">  -100</i>
    <i type="int" name="LMAXMIX">     4</i>
    <i type="logical" name="NLSPLINE"> F  </i>
   </separator>
   <separator name="electronic startup" >
    <i type="int" name="ISTART">     0</i>
    <i type="int" name="ICHARG">     2</i>
    <i type="int" name="INIWAV">     1</i>
   </separator>
   <separator name="electronic spin" >
    <i type="int" name="ISPIN">     2</i>
    <i type="logical" name="LNONCOLLINEAR"> F  </i>
    <v name="MAGMOM">      1.00000000      1.00000000      1.00000000      1.00000000      1.00000000      1.00000000      1.00000000      1.00000000      1.00000000      1.00000000      1.00000000      1.00000000      1.00000000      1.00000000      1.00000000      1.00000000      1.00000000      1.00000000      1.00000000      1.00000000
      1.00000000      1.00000000      1.00000000      1.00000000      1.00000000      1.00000000      1.00000000      1.00000000      1.00000000      1.00000000      1.00000000      1.00000000      1.00000000      1.00000000      1.00000000      1.00000000      1.00000000      1.00000000      1.00000000      1.00000000
      1.00000000      1.00000000      1.00000000      1.00000000      1.00000000      1.00000000      1.00000000      1.00000000      1.00000000      1.00000000      1.00000000      1.00000000</v>
    <i name="NUPDOWN">     -1.00000000</i>
    <i type="logical" name="LSORBIT"> F  </i>
    <v name="SAXIS">      0.00000000      0.00000000      1.00000000</v>
    <i type="logical" name="LSPIRAL"> F  </i>
    <v name="QSPIRAL">      0.00000000      0.00000000      0.00000000</v>
    <i type="logical" name="LZEROZ"> F  </i>
   </separator>
   <separator name="electronic exchange-correlation" >
    <i type="logical" name="LASPH"> T  </i>
    <i type="logical" name="LMETAGGA"> F  </i>
   </separator>
   <separator name="electronic convergence" >
    <i type="int" name="NELM">   100</i>
    <i type="int" name="NELMDL">   -10</i>
    <i type="int" name="NELMIN">     2</i>
    <i name="ENINI">    520.00000000</i>
    <separator name="electronic convergence detail" >
     <i type="logical" name="LDIAG"> T  </i>
     <i type="logical" name="LSUBROT"> F  </i>
     <i name="WEIMIN">      0.00100000</i>
     <i name="EBREAK">      0.00000000</i>
     <i name="DEPER">      0.30000000</i>
     <i type="int" name="NRMM">     4</i>
     <i name="TIME">      0.40000000</i>
    </separator>
   </separator>
   <separator name="electronic mixer" >
    <i name="AMIX">      0.40000000</i>
    <i name="BMIX">      1.00000000</i>
    <i name="AMIN">      0.10000000</i>
    <i name="AMIX_MAG">      1.60000000</i>
    <i name="BMIX_MAG">      1.00000000</i>
    <separator name="electronic mixer details" >
     <i type="int" name="IMIX">     4</i>
     <i type="logical" name="MIXFIRST"> F  </i>
     <i type="int" name="MAXMIX">   -45</i>
     <i name="WC">    100.00000000</i>
     <i type="int" name="INIMIX">     1</i>
     <i type="int" name="MIXPRE">     1</i>
     <i type="int" name="MREMOVE">     5</i>
    </separator>
   </separator>
   <separator name="electronic dipolcorrection" >
    <i type="logical" name="LDIPOL"> F  </i>
    <i type="logical" name="LMONO"> F  </i>
    <i type="int" name="IDIPOL">     0</i>
    <i name="EPSILON">      1.00000000</i>
    <v name="DIPOL">   -100.00000000   -100.00000000   -100.00000000</v>
    <i name="EFIELD">      0.00000000</i>
   </separator>
  </separator>
  <separator name="grids" >
   <i type="int" name="NGX">    72</i>
   <i type="int" name="NGY">    72</i>
   <i type="int" name="NGZ">    72</i>
   <i type="int" name="NGXF">   144</i>
   <i type="int" name="NGYF">   144</i>
   <i type="int" name="NGZF">   144</i>
   <i type="logical" name="ADDGRID"> F  </i>
  </separator>
  <separator name="ionic" >
   <i type="int" name="NSW">  1000</i>
   <i type="int" name="IBRION">     2</i>
   <i type="int" name="MDALGO">     0</i>
   <i type="int" name="ISIF">     2</i>
   <i name="PSTRESS">      0.00000000</i>
   <i name="EDIFFG">     -0.00100000</i>
   <i type="int" name="NFREE">     1</i>
   <i name="POTIM">      0.20000000</i>
   <i name="SMASS">     -3.00000000</i>
   <i name="SCALEE">      1.00000000</i>
  </separator>
  <separator name="ionic md" >
   <i name="TEBEG">      0.00010000</i>
   <i name="TEEND">      0.00010000</i>
   <i type="int" name="NBLOCK">     1</i>
   <i type="int" name="KBLOCK">  1000</i>
   <i type="int" name="NPACO">   256</i>
   <i name="APACO">     10.00000000</i>
  </separator>
  <separator name="symmetry" >
   <i type="int" name="ISYM">     2</i>
   <i name="SYMPREC">      0.00001000</i>
  </separator>
  <separator name="dos" >
   <i type="int" name="LORBIT">     0</i>
   <v name="RWIGS">     -1.00000000     -1.00000000     -1.00000000     -1.00000000</v>
   <i type="int" name="NEDOS">   301</i>
   <i name="EMIN">     10.00000000</i>
   <i name="EMAX">    -10.00000000</i>
   <i name="EFERMI">      0.00000000</i>
  </separator>
  <separator name="writing" >
   <i type="int" name="NWRITE">     2</i>
   <i type="logical" name="LWAVE"> F  </i>
   <i type="logical" name="LDOWNSAMPLE"> F  </i>
   <i type="logical" name="LCHARG"> F  </i>
   <i type="logical" name="LPARD"> F  </i>
   <i type="logical" name="LVTOT"> F  </i>
   <i type="logical" name="LVHAR"> F  </i>
   <i type="logical" name="LELF"> F  </i>
   <i type="logical" name="LOPTICS"> F  </i>
   <v name="STM">      0.00000000      0.00000000      0.00000000      0.00000000      0.00000000      0.00000000      0.00000000</v>
  </separator>
  <separator name="performance" >
   <i type="int" name="NPAR">     4</i>
   <i type="int" name="NSIM">     4</i>
   <i type="int" name="NBLK">    -1</i>
   <i type="logical" name="LPLANE"> T  </i>
   <i type="logical" name="LSCALAPACK"> T  </i>
   <i type="logical" name="LSCAAWARE"> F  </i>
   <i type="logical" name="LSCALU"> F  </i>
   <i type="logical" name="LASYNC"> F  </i>
   <i type="logical" name="LORBITALREAL"> F  </i>
  </separator>
  <separator name="miscellaneous" >
   <i type="int" name="IDIOT">     3</i>
   <i type="int" name="PHON_NSTRUCT">    -1</i>
   <i type="logical" name="LMUSIC"> F  </i>
   <v name="POMASS">      7.01000000     30.97400000     32.06600000     35.45300000</v>
   <v name="DARWINR">      0.00000000      0.00000000      0.00000000      0.00000000</v>
   <v name="DARWINV">      1.00000000      1.00000000      1.00000000      1.00000000</v>
   <i type="logical" name="LCORR"> T  </i>
  </separator>
  <i type="logical" name="GGA_COMPAT"> T  </i>
  <i type="logical" name="LBERRY"> F  </i>
  <i type="int" name="ICORELEVEL">     0</i>
  <i type="logical" name="LDAU"> F  </i>
  <i type="int" name="I_CONSTRAINED_M">     0</i>
  <separator name="electronic exchange-correlation" >
   <i type="string" name="GGA">PE</i>
   <i type="int" name="VOSKOWN">     0</i>
   <i type="logical" name="LHFCALC"> F  </i>
   <i type="string" name="PRECFOCK"></i>
   <i type="logical" name="LSYMGRAD"> F  </i>
   <i type="logical" name="LHFONE"> F  </i>
   <i type="logical" name="LRHFCALC"> F  </i>
   <i type="logical" name="LTHOMAS"> F  </i>
   <i type="logical" name="LMODELHF"> F  </i>
   <i type="logical" name="LFOCKACE"> F  </i>
   <i name="ENCUT4O">     -1.00000000</i>
   <i type="int" name="EXXOEP">     0</i>
   <i type="int" name="FOURORBIT">     0</i>
   <i name="AEXX">      0.00000000</i>
   <i name="HFALPHA">      0.00000000</i>
   <i name="MCALPHA">      0.00000000</i>
   <i name="ALDAX">      1.00000000</i>
   <i name="AGGAX">      1.00000000</i>
   <i name="ALDAC">      1.00000000</i>
   <i name="AGGAC">      1.00000000</i>
   <i type="int" name="NKREDX">     1</i>
   <i type="int" name="NKREDY">     1</i>
   <i type="int" name="NKREDZ">     1</i>
   <i type="logical" name="SHIFTRED"> F  </i>
   <i type="logical" name="ODDONLY"> F  </i>
   <i type="logical" name="EVENONLY"> F  </i>
   <i type="int" name="LMAXFOCK">     0</i>
   <i type="int" name="NMAXFOCKAE">     0</i>
   <i type="logical" name="LFOCKAEDFT"> F  </i>
   <i name="HFSCREEN">      0.00000000</i>
   <i name="HFSCREENC">      0.00000000</i>
   <i type="int" name="NBANDSGWLOW">     0</i>
  </separator>
  <separator name="vdW DFT" >
   <i type="logical" name="LUSE_VDW"> F  </i>
   <i type="int" name="IVDW_NL">     1</i>
   <i type="logical" name="LSPIN_VDW"> F  </i>
   <i name="Zab_VDW">     -0.84910000</i>
   <i name="PARAM1">      0.12340000</i>
   <i name="PARAM2">      1.00000000</i>
   <i name="PARAM3">      0.00000000</i>
  </separator>
  <separator name="model GW" >
   <i type="int" name="MODEL_GW">     0</i>
   <i name="MODEL_EPS0">     10.48173535</i>
   <i name="MODEL_ALPHA">      1.00000000</i>
  </separator>
  <separator name="linear response parameters" >
   <i type="logical" name="LEPSILON"> F  </i>
   <i type="logical" name="LRPA"> F  </i>
   <i type="logical" name="LNABLA"> F  </i>
   <i type="logical" name="LVEL"> F  </i>
   <i name="CSHIFT">      0.10000000</i>
   <i name="OMEGAMAX">     -1.00000000</i>
   <i name="DEG_THRESHOLD">      0.00200000</i>
   <i name="RTIME">     -0.10000000</i>
   <i name="WPLASMAI">      0.00000000</i>
   <v name="DFIELD">      0.00000000      0.00000000      0.00000000</v>
   <v name="WPLASMA">      0.00000000      0.00000000      0.00000000      0.00000000      0.00000000      0.00000000      0.00000000      0.00000000      0.00000000</v>
  </separator>
  <separator name="orbital magnetization" >
   <i type="logical" name="NUCIND"> F  </i>
   <v name="MAGPOS">      0.00000000      0.00000000      0.00000000</v>
   <i type="logical" name="LNICSALL"> T  </i>
   <i type="logical" name="ORBITALMAG"> F  </i>
   <i type="logical" name="LMAGBLOCH"> F  </i>
   <i type="logical" name="LCHIMAG"> F  </i>
   <i type="logical" name="LGAUGE"> T  </i>
   <i type="int" name="MAGATOM">     0</i>
   <v name="MAGDIPOL">      0.00000000      0.00000000      0.00000000</v>
   <v name="AVECCONST">      0.00000000      0.00000000      0.00000000</v>
  </separator>
  <separator name="response functions" >
   <i type="logical" name="LALL_IN_ONE"> F  </i>
   <i type="int" name="IALL_IN_ONE">    -1</i>
   <i type="int" name="NBANDS_WAVE">    -1</i>
   <i type="logical" name="LFINITE_TEMPERATURE"> F  </i>
   <i type="logical" name="LADDER"> F  </i>
   <i type="logical" name="LRPAFORCE"> F  </i>
   <i type="logical" name="LFXC"> F  </i>
   <i type="logical" name="LHARTREE"> T  </i>
   <i type="int" name="IBSE">     0</i>
   <v type="int" name="KPOINT">    -1     0     0     0</v>
   <i type="logical" name="LTCTC"> F  </i>
   <i type="logical" name="LTCTE"> F  </i>
   <i type="logical" name="LTETE"> F  </i>
   <i type="logical" name="LTRIPLET"> F  </i>
   <i type="logical" name="LFXCEPS"> F  </i>
   <i type="logical" name="LFXHEG"> F  </i>
   <i type="int" name="NATURALO">     2</i>
   <i type="logical" name="LHOLEGF"> F  </i>
   <i type="logical" name="L2ORDER"> F  </i>
   <i type="logical" name="LDMP1"> F  </i>
   <i type="logical" name="LMP2LT"> F  </i>
   <i type="logical" name="LSMP2LT"> F  </i>
   <i type="logical" name="LGWLF"> F  </i>
   <i name="ENCUTGW">     -1.60000002</i>
   <i name="ENCUTGWSOFT">     -1.60000002</i>
   <i name="ENCUTLF">     -1.00000000</i>
   <i type="logical" name="LESF_SPLINES"> F  </i>
   <i type="int" name="LMAXMP2">    -1</i>
   <i name="SCISSOR">      0.00000000</i>
   <i type="int" name="NOMEGA">     0</i>
   <i type="int" name="NOMEGAR">     0</i>
   <i type="int" name="NBANDSGW">    -1</i>
   <i type="int" name="NBANDSO">    -1</i>
   <i type="int" name="NBANDSV">    -1</i>
   <i type="int" name="NELMGW">     1</i>
   <i type="int" name="NELMHF">     1</i>
   <i type="int" name="DIM">     3</i>
   <i type="int" name="IESPILON">     4</i>
   <i type="int" name="ANTIRES">     0</i>
   <i name="OMEGAMAX">    -30.00000000</i>
   <i name="OMEGAMIN">    -30.00000000</i>
   <i name="OMEGATL">   -200.00000000</i>
   <i type="int" name="OMEGAGRID">     0</i>
   <i name="CSHIFT">     -0.10000000</i>
   <i type="logical" name="LSELFENERGY"> F  </i>
   <i type="logical" name="LSPECTRAL"> F  </i>
   <i type="logical" name="LSPECTRALGW"> F  </i>
   <i type="logical" name="LSINGLES"> F  </i>
   <i type="logical" name="LFERMIGW"> F  </i>
   <i type="logical" name="ODDONLYGW"> F  </i>
   <i type="logical" name="EVENONLYGW"> F  </i>
   <i type="int" name="NKREDLFX">     1</i>
   <i type="int" name="NKREDLFY">     1</i>
   <i type="int" name="NKREDLFZ">     1</i>
   <i type="int" name="MAXMEM">  2800</i>
   <i type="int" name="TELESCOPE">     0</i>
   <i type="int" name="NTAUPAR">    -1</i>
   <i type="int" name="NOMEGAPAR">    -1</i>
   <i name="DAMP_NEWTON">      0.80000001</i>
   <i name="LAMBDA">      1.00000000</i>
  </separator>
  <separator name="External order field" >
   <i name="OFIELD_KAPPA">      0.00000000</i>
   <v name="OFIELD_K">      0.00000000      0.00000000      0.00000000</v>
   <i name="OFIELD_Q6_NEAR">      0.00000000</i>
   <i name="OFIELD_Q6_FAR">      0.00000000</i>
   <i name="OFIELD_A">      0.00000000</i>
  </separator>
  <separator name="optional k-points parameters" >
   <i type="int" name="KPOINTS_OPT_MODE">     1</i>
   <i type="logical" name="LKPOINTS_OPT"> F  </i>
  </separator>
 </parameters>
 <atominfo>
  <atoms>      52 </atoms>
  <types>       4 </types>
  <array name="atoms" >
   <dimension dim="1">ion</dimension>
   <field type="string">element</field>
   <field type="int">atomtype</field>
   <set>
    <rc><c>Li</c><c>   1</c></rc>
    <rc><c>Li</c><c>   1</c></rc>
    <rc><c>Li</c><c>   1</c></rc>
    <rc><c>Li</c><c>   1</c></rc>
    <rc><c>Li</c><c>   1</c></rc>
    <rc><c>Li</c><c>   1</c></rc>
    <rc><c>Li</c><c>   1</c></rc>
    <rc><c>Li</c><c>   1</c></rc>
    <rc><c>Li</c><c>   1</c></rc>
    <rc><c>Li</c><c>   1</c></rc>
    <rc><c>Li</c><c>   1</c></rc>
    <rc><c>Li</c><c>   1</c></rc>
    <rc><c>Li</c><c>   1</c></rc>
    <rc><c>Li</c><c>   1</c></rc>
    <rc><c>Li</c><c>   1</c></rc>
    <rc><c>Li</c><c>   1</c></rc>
    <rc><c>Li</c><c>   1</c></rc>
    <rc><c>Li</c><c>   1</c></rc>
    <rc><c>Li</c><c>   1</c></rc>
    <rc><c>Li</c><c>   1</c></rc>
    <rc><c>Li</c><c>   1</c></rc>
    <rc><c>Li</c><c>   1</c></rc>
    <rc><c>Li</c><c>   1</c></rc>
    <rc><c>Li</c><c>   1</c></rc>
    <rc><c>P </c><c>   2</c></rc>
    <rc><c>P </c><c>   2</c></rc>
    <rc><c>P </c><c>   2</c></rc>
    <rc><c>P </c><c>   2</c></rc>
    <rc><c>S </c><c>   3</c></rc>
    <rc><c>S </c><c>   3</c></rc>
    <rc><c>S </c><c>   3</c></rc>
    <rc><c>S </c><c>   3</c></rc>
    <rc><c>S </c><c>   3</c></rc>
    <rc><c>S </c><c>   3</c></rc>
    <rc><c>S </c><c>   3</c></rc>
    <rc><c>S </c><c>   3</c></rc>
    <rc><c>S </c><c>   3</c></rc>
    <rc><c>S </c><c>   3</c></rc>
    <rc><c>S </c><c>   3</c></rc>
    <rc><c>S </c><c>   3</c></rc>
    <rc><c>S </c><c>   3</c></rc>
    <rc><c>S </c><c>   3</c></rc>
    <rc><c>S </c><c>   3</c></rc>
    <rc><c>S </c><c>   3</c></rc>
    <rc><c>S </c><c>   3</c></rc>
    <rc><c>S </c><c>   3</c></rc>
    <rc><c>S </c><c>   3</c></rc>
    <rc><c>S </c><c>   3</c></rc>
    <rc><c>Cl</c><c>   4</c></rc>
    <rc><c>Cl</c><c>   4</c></rc>
    <rc><c>Cl</c><c>   4</c></rc>
    <rc><c>Cl</c><c>   4</c></rc>
   </set>
  </array>
  <array name="atomtypes" >
   <dimension dim="1">type</dimension>
   <field type="int">atomspertype</field>
   <field type="string">element</field>
   <field>mass</field>
   <field>valence</field>
   <field type="string">pseudopotential</field>
   <set>
    <rc><c>  24</c><c>Li</c><c>      7.01000000</c><c>      3.00000000</c><c>  PAW_PBE Li_sv_GW 25Mar2010            </c></rc>
    <rc><c>   4</c><c>P </c><c>     30.97400000</c><c>      5.00000000</c><c>  PAW_PBE P_GW 19Mar2012                </c></rc>
    <rc><c>  20</c><c>S </c><c>     32.06600000</c><c>      6.00000000</c><c>  PAW_PBE S_GW 19Mar2012                </c></rc>
    <rc><c>   4</c><c>Cl</c><c>     35.45300000</c><c>      7.00000000</c><c>  PAW_PBE Cl_GW 19Mar2012               </c></rc>
   </set>
  </array>
 </atominfo>
 <structure name="initialpos" >
  <crystal>
   <varray name="basis" >
    <v>       9.68489897       0.00000000       0.00000000 </v>
    <v>       0.00000000       9.68489897       0.00000000 </v>
    <v>       0.00000000       0.00000000       9.68489897 </v>
   </varray>
   <i name="volume">    908.41706402 </i>
   <varray name="rec_basis" >
    <v>       0.10325353       0.00000000       0.00000000 </v>
    <v>       0.00000000       0.10325353       0.00000000 </v>
    <v>       0.00000000       0.00000000       0.10325353 </v>
   </varray>
  </crystal>
  <varray name="positions" >
   <v>       0.94699585       0.18498792       0.17348903 </v>
   <v>       0.99500966       0.82556352       0.80342822 </v>
   <v>       0.98793508       0.20296336       0.78846692 </v>
   <v>       0.03559454       0.82993381       0.16535760 </v>
   <v>       0.20386312       0.19079712       0.96679169 </v>
   <v>       0.30004569       0.72686467       0.00013913 </v>
   <v>       0.64595822       0.32220804       0.04246382 </v>
   <v>       0.68534884       0.68895521       0.98639886 </v>
   <v>       0.27791790       0.98201719       0.30971792 </v>
   <v>       0.31167725       0.05882570       0.66722302 </v>
   <v>       0.76941345       0.96914550       0.87742869 </v>
   <v>       0.70321736       0.02186098       0.30922459 </v>
   <v>       0.18275664       0.67868212       0.45443132 </v>
   <v>       0.15604291       0.32758694       0.52652943 </v>
   <v>       0.79528814       0.70439713       0.51721742 </v>
   <v>       0.80051178       0.28600421       0.48802738 </v>
   <v>       0.30961030       0.46217693       0.79686176 </v>
   <v>       0.30929401       0.52140860       0.18504510 </v>
   <v>       0.81448477       0.47828806       0.28969603 </v>
   <v>       0.91202389       0.55006886       0.72211368 </v>
   <v>       0.54619391       0.84454356       0.66684502 </v>
   <v>       0.48174676       0.79847489       0.28665376 </v>
   <v>       0.50693906       0.21558659       0.32921766 </v>
   <v>       0.59817530       0.55946488       0.76719721 </v>
   <v>       0.49547852       0.50287265       0.49552986 </v>
   <v>       0.49446358       0.02012382       0.99069850 </v>
   <v>       0.99282421       0.50065079       0.00089452 </v>
   <v>       0.99139650       0.99695563       0.49576612 </v>
   <v>       0.13227052       0.88044148       0.60348711 </v>
   <v>       0.09549309       0.13735507       0.37462428 </v>
   <v>       0.88584311       0.86967407       0.36239485 </v>
   <v>       0.84941256       0.08802403       0.62386038 </v>
   <v>       0.88479362       0.63770682       0.12016752 </v>
   <v>       0.85100239       0.38505195       0.89226826 </v>
   <v>       0.11503015       0.61409675       0.86514894 </v>
   <v>       0.11262386       0.37504926       0.11989467 </v>
   <v>       0.60243726       0.14952620       0.86757033 </v>
   <v>       0.62772943       0.89557091       0.10413934 </v>
   <v>       0.37447672       0.12936398       0.12740038 </v>
   <v>       0.37858709       0.90123124       0.85718847 </v>
   <v>       0.61978768       0.61628973       0.36529057 </v>
   <v>       0.60582319       0.37151051       0.61580056 </v>
   <v>       0.39014804       0.63764652       0.62358266 </v>
   <v>       0.35102356       0.39433366       0.38406677 </v>
   <v>       0.75775183       0.74590887       0.75549083 </v>
   <v>       0.73398335       0.25444075       0.25808446 </v>
   <v>       0.25353905       0.75318679       0.23279269 </v>
   <v>       0.21116801       0.25737053       0.74259565 </v>
   <v>       0.99481861       0.01114032       0.98317495 </v>
   <v>       0.96975829       0.50356186       0.49309058 </v>
   <v>       0.48824245       0.99233554       0.46110596 </v>
   <v>       0.48449280       0.52649900       0.98633081 </v>
  </varray>
 </structure>
 <calculation>
  <scstep>
   <time name="dav">    2.24    2.40</time>
   <time name="total">    2.71    2.89</time>
   <energy>
    <i name="alphaZ">    298.82475179 </i>
    <i name="ewald">  -8790.00657200 </i>
    <i name="hartreedc">  -2124.21579079 </i>
    <i name="XCdc">    533.78995775 </i>
    <i name="pawpsdc">   8141.38806575 </i>
    <i name="pawaedc">  -8271.61346273 </i>
    <i name="eentropy">     -0.00840268 </i>
    <i name="bandstr">   -901.64420202 </i>
    <i name="atom">  12703.13999606 </i>
    <i name="e_fr_energy">   1589.65434113 </i>
    <i name="e_wo_entrp">   1589.66274381 </i>
    <i name="e_0_energy">   1589.65854247 </i>
   </energy>
  </scstep>
  <scstep>
   <time name="dav">    2.59    2.62</time>
   <time name="total">    2.59    2.62</time>
   <energy>
    <i name="e_fr_energy">    -55.02578812 </i>
    <i name="e_wo_entrp">    -55.02578812 </i>
    <i name="e_0_energy">    -55.02578812 </i>
   </energy>
  </scstep>
  <scstep>
   <time name="dav">    2.60    2.62</time>
   <time name="total">    2.60    2.62</time>
   <energy>
    <i name="e_fr_energy">   -227.96398772 </i>
    <i name="e_wo_entrp">   -227.96398772 </i>
    <i name="e_0_energy">   -227.96398772 </i>
   </energy>
  </scstep>
  <scstep>
   <time name="dav">    3.21    3.24</time>
   <time name="total">    3.21    3.24</time>
   <energy>
    <i name="e_fr_energy">   -241.38226291 </i>
    <i name="e_wo_entrp">   -241.38226291 </i>
    <i name="e_0_energy">   -241.38226291 </i>
   </energy>
  </scstep>
  <scstep>
   <time name="dav">    2.94    2.97</time>
   <time name="total">    2.94    2.97</time>
   <energy>
    <i name="e_fr_energy">   -241.63856634 </i>
    <i name="e_wo_entrp">   -241.63856634 </i>
    <i name="e_0_energy">   -241.63856634 </i>
   </energy>
  </scstep>
  <scstep>
   <time name="dav">    3.03    3.05</time>
   <time name="total">    3.03    3.05</time>
   <energy>
    <i name="e_fr_energy">   -241.64902745 </i>
    <i name="e_wo_entrp">   -241.64902745 </i>
    <i name="e_0_energy">   -241.64902745 </i>
   </energy>
  </scstep>
  <scstep>
   <time name="dav">    2.96    2.98</time>
   <time name="total">    2.96    2.99</time>
   <energy>
    <i name="e_fr_energy">   -241.64940684 </i>
    <i name="e_wo_entrp">   -241.64940684 </i>
    <i name="e_0_energy">   -241.64940684 </i>
   </energy>
  </scstep>
  <scstep>
   <time name="dav">    3.00    3.03</time>
   <time name="total">    3.00    3.04</time>
   <energy>
    <i name="e_fr_energy">   -241.64942909 </i>
    <i name="e_wo_entrp">   -241.64942909 </i>
    <i name="e_0_energy">   -241.64942909 </i>
   </energy>
  </scstep>
  <scstep>
   <time name="dav">    2.93    2.95</time>
   <time name="total">    2.93    2.95</time>
   <energy>
    <i name="e_fr_energy">   -241.64943052 </i>
    <i name="e_wo_entrp">   -241.64943052 </i>
    <i name="e_0_energy">   -241.64943052 </i>
   </energy>
  </scstep>
  <scstep>
   <time name="dav">    1.97    1.98</time>
   <time name="total">    2.04    2.06</time>
   <energy>
    <i name="e_fr_energy">   -241.64943058 </i>
    <i name="e_wo_entrp">   -241.64943058 </i>
    <i name="e_0_energy">   -241.64943058 </i>
   </energy>
  </scstep>
  <scstep>
   <time name="diag">    0.36    0.37</time>
   <time name="diis">    1.17    1.18</time>
   <time name="orth">    0.07    0.07</time>
   <time name="total">    2.12    2.14</time>
   <energy>
    <i name="e_fr_energy">   -235.39071421 </i>
    <i name="e_wo_entrp">   -235.39071421 </i>
    <i name="e_0_energy">   -235.39071421 </i>
   </energy>
  </scstep>
  <scstep>
   <time name="diag">    0.35    0.36</time>
   <time name="diis">    1.22    1.23</time>
   <time name="orth">    0.07    0.07</time>
   <time name="total">    2.16    2.18</time>
   <energy>
    <i name="e_fr_energy">   -255.82159116 </i>
    <i name="e_wo_entrp">   -255.82159116 </i>
    <i name="e_0_energy">   -255.82159116 </i>
   </energy>
  </scstep>
  <scstep>
   <time name="diag">    0.36    0.36</time>
   <time name="diis">    1.19    1.20</time>
   <time name="orth">    0.07    0.07</time>
   <time name="total">    2.13    2.15</time>
   <energy>
    <i name="e_fr_energy">   -258.33192512 </i>
    <i name="e_wo_entrp">   -258.33192512 </i>
    <i name="e_0_energy">   -258.33192512 </i>
   </energy>
  </scstep>
  <scstep>
   <time name="diag">    0.35    0.36</time>
   <time name="diis">    1.55    1.57</time>
   <time name="orth">    0.07    0.07</time>
   <time name="total">    2.50    2.52</time>
   <energy>
    <i name="e_fr_energy">   -258.53326802 </i>
    <i name="e_wo_entrp">   -258.53326802 </i>
    <i name="e_0_energy">   -258.53326802 </i>
   </energy>
  </scstep>
  <scstep>
   <time name="diag">    0.35    0.36</time>
   <time name="diis">    1.28    1.29</time>
   <time name="orth">    0.07    0.07</time>
   <time name="total">    2.22    2.24</time>
   <energy>
    <i name="e_fr_energy">   -258.49655760 </i>
    <i name="e_wo_entrp">   -258.49655760 </i>
    <i name="e_0_energy">   -258.49655760 </i>
   </energy>
  </scstep>
  <scstep>
   <time name="diag">    0.35    0.36</time>
   <time name="diis">    1.29    1.30</time>
   <time name="orth">    0.06    0.07</time>
   <time name="total">    2.23    2.25</time>
   <energy>
    <i name="e_fr_energy">   -258.51694397 </i>
    <i name="e_wo_entrp">   -258.51694397 </i>
    <i name="e_0_energy">   -258.51694397 </i>
   </energy>
  </scstep>
  <scstep>
   <time name="diag">    0.35    0.36</time>
   <time name="diis">    1.46    1.47</time>
   <time name="orth">    0.07    0.07</time>
   <time name="total">    2.40    2.42</time>
   <energy>
    <i name="e_fr_energy">   -258.52259667 </i>
    <i name="e_wo_entrp">   -258.52259667 </i>
    <i name="e_0_energy">   -258.52259667 </i>
   </energy>
  </scstep>
  <scstep>
   <time name="diag">    0.35    0.36</time>
   <time name="diis">    1.43    1.44</time>
   <time name="orth">    0.06    0.07</time>
   <time name="total">    2.37    2.39</time>
   <energy>
    <i name="e_fr_energy">   -258.52378657 </i>
    <i name="e_wo_entrp">   -258.52378657 </i>
    <i name="e_0_energy">   -258.52378657 </i>
   </energy>
  </scstep>
  <scstep>
   <time name="diag">    0.35    0.36</time>
   <time name="diis">    1.61    1.63</time>
   <time name="orth">    0.07    0.07</time>
   <time name="total">    2.55    2.58</time>
   <energy>
    <i name="e_fr_energy">   -258.52426183 </i>
    <i name="e_wo_entrp">   -258.52426183 </i>
    <i name="e_0_energy">   -258.52426183 </i>
   </energy>
  </scstep>
  <scstep>
   <time name="diag">    0.36    0.36</time>
   <time name="diis">    1.58    1.59</time>
   <time name="orth">    0.07    0.07</time>
   <time name="total">    2.52    2.54</time>
   <energy>
    <i name="e_fr_energy">   -258.52435441 </i>
    <i name="e_wo_entrp">   -258.52435441 </i>
    <i name="e_0_energy">   -258.52435441 </i>
   </energy>
  </scstep>
  <scstep>
   <time name="diag">    0.35    0.36</time>
   <time name="diis">    1.36    1.38</time>
   <time name="orth">    0.07    0.07</time>
   <time name="total">    2.30    2.32</time>
   <energy>
    <i name="e_fr_energy">   -258.52437024 </i>
    <i name="e_wo_entrp">   -258.52437024 </i>
    <i name="e_0_energy">   -258.52437024 </i>
   </energy>
  </scstep>
  <scstep>
   <time name="diag">    0.35    0.36</time>
   <time name="diis">    1.60    1.62</time>
   <time name="orth">    0.07    0.07</time>
   <time name="total">    2.55    2.56</time>
   <energy>
    <i name="e_fr_energy">   -258.52437805 </i>
    <i name="e_wo_entrp">   -258.52437805 </i>
    <i name="e_0_energy">   -258.52437805 </i>
   </energy>
  </scstep>
  <scstep>
   <time name="diag">    0.36    0.36</time>
   <time name="diis">    1.36    1.37</time>
   <time name="orth">    0.07    0.07</time>
   <time name="total">    2.30    2.32</time>
   <energy>
    <i name="e_fr_energy">   -258.52437762 </i>
    <i name="e_wo_entrp">   -258.52437762 </i>
    <i name="e_0_energy">   -258.52437762 </i>
   </energy>
  </scstep>
  <scstep>
   <time name="diag">    0.36    0.36</time>
   <time name="diis">    1.03    1.04</time>
   <time name="orth">    0.07    0.07</time>
   <time name="total">    1.91    1.92</time>
   <energy>
    <i name="alphaZ">    298.82475179 </i>
    <i name="ewald">  -8790.00657200 </i>
    <i name="hartreedc">  -2222.73571995 </i>
    <i name="XCdc">    537.32599769 </i>
    <i name="pawpsdc">   9782.38624724 </i>
    <i name="pawaedc">  -9926.19920209 </i>
    <i name="eentropy">     -0.00000000 </i>
    <i name="bandstr">  -2641.25987546 </i>
    <i name="atom">  12703.13999606 </i>
    <i name="e_fr_energy">   -258.52437671 </i>
    <i name="e_wo_entrp">   -258.52437671 </i>
    <i name="e_0_energy">   -258.52437671 </i>
   </energy>
  </scstep>
  <structure>
   <crystal>
    <varray name="basis" >
     <v>       9.68489897       0.00000000       0.00000000 </v>
     <v>       0.00000000       9.68489897       0.00000000 </v>
     <v>       0.00000000       0.00000000       9.68489897 </v>
    </varray>
    <i name="volume">    908.41706402 </i>
    <varray name="rec_basis" >
     <v>       0.10325353       0.00000000       0.00000000 </v>
     <v>       0.00000000       0.10325353       0.00000000 </v>
     <v>       0.00000000       0.00000000       0.10325353 </v>
    </varray>
   </crystal>
   <varray name="positions" >
    <v>       0.94699585       0.18498792       0.17348903 </v>
    <v>       0.99500966       0.82556352       0.80342822 </v>
    <v>       0.98793508       0.20296336       0.78846692 </v>
    <v>       0.03559454       0.82993381       0.16535760 </v>
    <v>       0.20386312       0.19079712       0.96679169 </v>
    <v>       0.30004569       0.72686467       0.00013913 </v>
    <v>       0.64595822       0.32220804       0.04246382 </v>
    <v>       0.68534884       0.68895521       0.98639886 </v>
    <v>       0.27791790       0.98201719       0.30971792 </v>
    <v>       0.31167725       0.05882570       0.66722302 </v>
    <v>       0.76941345       0.96914550       0.87742869 </v>
    <v>       0.70321736       0.02186098       0.30922459 </v>
    <v>       0.18275664       0.67868212       0.45443132 </v>
    <v>       0.15604291       0.32758694       0.52652943 </v>
    <v>       0.79528814       0.70439713       0.51721742 </v>
    <v>       0.80051178       0.28600421       0.48802738 </v>
    <v>       0.30961030       0.46217693       0.79686176 </v>
    <v>       0.30929401       0.52140860       0.18504510 </v>
    <v>       0.81448477       0.47828806       0.28969603 </v>
    <v>       0.91202389       0.55006886       0.72211368 </v>
    <v>       0.54619391       0.84454356       0.66684502 </v>
    <v>       0.48174676       0.79847489       0.28665376 </v>
    <v>       0.50693906       0.21558659       0.32921766 </v>
    <v>       0.59817530       0.55946488       0.76719721 </v>
    <v>       0.49547852       0.50287265       0.49552986 </v>
    <v>       0.49446358       0.02012382       0.99069850 </v>
    <v>       0.99282421       0.50065079       0.00089452 </v>
    <v>       0.99139650       0.99695563       0.49576612 </v>
    <v>       0.13227052       0.88044148       0.60348711 </v>
    <v>       0.09549309       0.13735507       0.37462428 </v>
    <v>       0.88584311       0.86967407       0.36239485 </v>
    <v>       0.84941256       0.08802403       0.62386038 </v>
    <v>       0.88479362       0.63770682       0.12016752 </v>
    <v>       0.85100239       0.38505195       0.89226826 </v>
    <v>       0.11503015       0.61409675       0.86514894 </v>
    <v>       0.11262386       0.37504926       0.11989467 </v>
    <v>       0.60243726       0.14952620       0.86757033 </v>
    <v>       0.62772943       0.89557091       0.10413934 </v>
    <v>       0.37447672       0.12936398       0.12740038 </v>
    <v>       0.37858709       0.90123124       0.85718847 </v>
    <v>       0.61978768       0.61628973       0.36529057 </v>
    <v>       0.60582319       0.37151051       0.61580056 </v>
    <v>       0.39014804       0.63764652       0.62358266 </v>
    <v>       0.35102356       0.39433366       0.38406677 </v>
    <v>       0.75775183       0.74590887       0.75549083 </v>
    <v>       0.73398335       0.25444075       0.25808446 </v>
    <v>       0.25353905       0.75318679       0.23279269 </v>
    <v>       0.21116801       0.25737053       0.74259565 </v>
    <v>       0.99481861       0.01114032       0.98317495 </v>
    <v>       0.96975829       0.50356186       0.49309058 </v>
    <v>       0.48824245       0.99233554       0.46110596 </v>
    <v>       0.48449280       0.52649900       0.98633081 </v>
   </varray>
  </structure>
  <varray name="forces" >
   <v>      -0.00024134      -0.00052211       0.00024862 </v>
   <v>      -0.00016594      -0.00023195       0.00059120 </v>
   <v>      -0.00024442       0.00044397      -0.00027543 </v>
   <v>      -0.00014466      -0.00007482      -0.00002709 </v>
   <v>      -0.00041713      -0.00100040      -0.00033788 </v>
   <v>       0.00075102       0.00043452      -0.00000995 </v>
   <v>       0.00020556       0.00020719       0.00032801 </v>
   <v>       0.00000735       0.00067375      -0.00019030 </v>
   <v>      -0.00002250       0.00004637      -0.00011759 </v>
   <v>       0.00008797       0.00015914      -0.00016885 </v>
   <v>      -0.00020717       0.00042501      -0.00235167 </v>
   <v>      -0.00017957       0.00005206       0.00023834 </v>
   <v>       0.00092262      -0.00000682       0.00028468 </v>
   <v>       0.00010798       0.00016917       0.00020768 </v>
   <v>       0.00036668      -0.00018333      -0.00009730 </v>
   <v>       0.00021139       0.00031796       0.00014035 </v>
   <v>       0.00029490      -0.00055443       0.00084312 </v>
   <v>      -0.00114944       0.00000703      -0.00046249 </v>
   <v>      -0.00038608       0.00004949      -0.00008389 </v>
   <v>       0.00110621       0.00022003      -0.00018822 </v>
   <v>      -0.00028203      -0.00103419      -0.00031330 </v>
   <v>       0.00014647       0.00019289      -0.00070498 </v>
   <v>       0.00002148       0.00041288       0.00074169 </v>
   <v>       0.00107505      -0.00157984       0.00021457 </v>
   <v>       0.00099772      -0.00263922       0.00180866 </v>
   <v>      -0.00006194      -0.00067734      -0.00016849 </v>
   <v>      -0.00113811      -0.00014930      -0.00044091 </v>
   <v>      -0.00080390       0.00080497       0.00101261 </v>
   <v>      -0.00024670      -0.00046625       0.00021281 </v>
   <v>       0.00041597      -0.00010627      -0.00024915 </v>
   <v>       0.00000142       0.00008791      -0.00010129 </v>
   <v>       0.00002915      -0.00041060      -0.00057620 </v>
   <v>       0.00004654       0.00015387      -0.00013722 </v>
   <v>      -0.00000130       0.00054730      -0.00016457 </v>
   <v>       0.00055240       0.00026517       0.00065882 </v>
   <v>      -0.00005307      -0.00059286       0.00023316 </v>
   <v>      -0.00017911       0.00115734      -0.00023507 </v>
   <v>       0.00056077       0.00055177       0.00010920 </v>
   <v>       0.00031014       0.00046592      -0.00013560 </v>
   <v>       0.00052081       0.00110227       0.00005847 </v>
   <v>       0.00025272       0.00054179      -0.00017168 </v>
   <v>      -0.00172044       0.00063604      -0.00193213 </v>
   <v>      -0.00065351      -0.00008963       0.00086036 </v>
   <v>      -0.00106399       0.00021042      -0.00048561 </v>
   <v>       0.00041414       0.00000026      -0.00026971 </v>
   <v>      -0.00016433       0.00019422      -0.00033105 </v>
   <v>      -0.00018834       0.00008800       0.00064186 </v>
   <v>       0.00011647      -0.00006931       0.00006780 </v>
   <v>      -0.00018377      -0.00002440       0.00032259 </v>
   <v>       0.00051151      -0.00001083      -0.00062484 </v>
   <v>      -0.00036814      -0.00009069       0.00062524 </v>
   <v>       0.00023251      -0.00010408       0.00090260 </v>
  </varray>
  <varray name="stress" >
   <v>      -6.19411222      -2.92256013       2.37864606 </v>
   <v>      -2.92256030      -1.24744502      -1.94452971 </v>
   <v>       2.37864702      -1.94453005      -3.98167909 </v>
  </varray>
  <energy>
   <i name="e_fr_energy">   -271.99150270 </i>
   <i name="e_wo_entrp">   -271.99150270 </i>
   <i name="e_0_energy">   -271.99150270 </i>
  </energy>
  <time name="totalsc">   63.33   64.07</time>
 </calculation>
 <calculation>
  <scstep>
   <time name="dav">    2.25    2.28</time>
   <time name="total">    2.78    2.80</time>
   <energy>
    <i name="alphaZ">    298.82475179 </i>
    <i name="ewald">  -8790.00932243 </i>
    <i name="hartreedc">  -2222.73768107 </i>
    <i name="XCdc">    537.32599247 </i>
    <i name="pawpsdc">   9782.36785870 </i>
    <i name="pawaedc">  -9926.18066336 </i>
    <i name="eentropy">     -0.00000000 </i>
    <i name="bandstr">  -2641.25531069 </i>
    <i name="atom">  12703.13999606 </i>
    <i name="e_fr_energy">   -258.52437852 </i>
    <i name="e_wo_entrp">   -258.52437852 </i>
    <i name="e_0_energy">   -258.52437852 </i>
   </energy>
  </scstep>
  <scstep>
   <time name="diag">    0.36    0.37</time>
   <time name="diis">    0.85    0.86</time>
   <time name="orth">    0.07    0.07</time>
   <time name="total">    1.73    1.75</time>
   <energy>
    <i name="alphaZ">    298.82475179 </i>
    <i name="ewald">  -8790.00932243 </i>
    <i name="hartreedc">  -2222.73993029 </i>
    <i name="XCdc">    537.32587365 </i>
    <i name="pawpsdc">   9782.35060545 </i>
    <i name="pawaedc">  -9926.16299987 </i>
    <i name="eentropy">     -0.00000000 </i>
    <i name="bandstr">  -2641.25335318 </i>
    <i name="atom">  12703.13999606 </i>
    <i name="e_fr_energy">   -258.52437880 </i>
    <i name="e_wo_entrp">   -258.52437880 </i>
    <i name="e_0_energy">   -258.52437880 </i>
   </energy>
  </scstep>
  <structure>
   <crystal>
    <varray name="basis" >
     <v>       9.68489897       0.00000000       0.00000000 </v>
     <v>       0.00000000       9.68489897       0.00000000 </v>
     <v>       0.00000000       0.00000000       9.68489897 </v>
    </varray>
    <i name="volume">    908.41706402 </i>
    <varray name="rec_basis" >
     <v>       0.10325353       0.00000000       0.00000000 </v>
     <v>       0.00000000       0.10325353       0.00000000 </v>
     <v>       0.00000000       0.00000000       0.10325353 </v>
    </varray>
   </crystal>
   <varray name="positions" >
    <v>       0.94699537       0.18498688       0.17348953 </v>
    <v>       0.99500933       0.82556306       0.80342940 </v>
    <v>       0.98793460       0.20296425       0.78846637 </v>
    <v>       0.03559425       0.82993366       0.16535755 </v>
    <v>       0.20386229       0.19079513       0.96679102 </v>
    <v>       0.30004718       0.72686554       0.00013911 </v>
    <v>       0.64595863       0.32220845       0.04246447 </v>
    <v>       0.68534885       0.68895655       0.98639848 </v>
    <v>       0.27791786       0.98201729       0.30971769 </v>
    <v>       0.31167743       0.05882601       0.66722268 </v>
    <v>       0.76941303       0.96914634       0.87742401 </v>
    <v>       0.70321700       0.02186109       0.30922506 </v>
    <v>       0.18275848       0.67868211       0.45443189 </v>
    <v>       0.15604313       0.32758728       0.52652984 </v>
    <v>       0.79528887       0.70439676       0.51721722 </v>
    <v>       0.80051220       0.28600485       0.48802766 </v>
    <v>       0.30961088       0.46217583       0.79686344 </v>
    <v>       0.30929172       0.52140862       0.18504418 </v>
    <v>       0.81448400       0.47828816       0.28969586 </v>
    <v>       0.91202609       0.55006930       0.72211330 </v>
    <v>       0.54619335       0.84454150       0.66684439 </v>
    <v>       0.48174705       0.79847527       0.28665236 </v>
    <v>       0.50693911       0.21558741       0.32921914 </v>
    <v>       0.59817744       0.55946173       0.76719764 </v>
    <v>       0.49548051       0.50286740       0.49553346 </v>
    <v>       0.49446346       0.02012247       0.99069816 </v>
    <v>       0.99282194       0.50065049       0.00089364 </v>
    <v>       0.99139490       0.99695723       0.49576814 </v>
    <v>       0.13227003       0.88044055       0.60348754 </v>
    <v>       0.09549392       0.13735486       0.37462379 </v>
    <v>       0.88584311       0.86967424       0.36239465 </v>
    <v>       0.84941262       0.08802321       0.62385924 </v>
    <v>       0.88479371       0.63770713       0.12016725 </v>
    <v>       0.85100238       0.38505304       0.89226793 </v>
    <v>       0.11503125       0.61409728       0.86515026 </v>
    <v>       0.11262375       0.37504808       0.11989513 </v>
    <v>       0.60243691       0.14952850       0.86756986 </v>
    <v>       0.62773055       0.89557201       0.10413956 </v>
    <v>       0.37447733       0.12936491       0.12740011 </v>
    <v>       0.37858813       0.90123344       0.85718859 </v>
    <v>       0.61978818       0.61629081       0.36529023 </v>
    <v>       0.60581976       0.37151178       0.61579671 </v>
    <v>       0.39014674       0.63764635       0.62358437 </v>
    <v>       0.35102144       0.39433408       0.38406580 </v>
    <v>       0.75775266       0.74590887       0.75549029 </v>
    <v>       0.73398302       0.25444114       0.25808380 </v>
    <v>       0.25353867       0.75318696       0.23279397 </v>
    <v>       0.21116824       0.25737039       0.74259579 </v>
    <v>       0.99481824       0.01114027       0.98317559 </v>
    <v>       0.96975931       0.50356184       0.49308933 </v>
    <v>       0.48824172       0.99233536       0.46110721 </v>
    <v>       0.48449326       0.52649879       0.98633261 </v>
   </varray>
  </structure>
  <varray name="forces" >
   <v>      -0.00011908      -0.00031378       0.00017150 </v>
   <v>      -0.00005042      -0.00013894       0.00037093 </v>
   <v>      -0.00006801       0.00022378      -0.00010855 </v>
   <v>      -0.00007330      -0.00003970       0.00001429 </v>
   <v>      -0.00020919      -0.00058605      -0.00012280 </v>
   <v>       0.00049373       0.00027550       0.00004898 </v>
   <v>       0.00006981       0.00011208       0.00022041 </v>
   <v>      -0.00001292       0.00040413      -0.00006510 </v>
   <v>       0.00000893       0.00006117      -0.00005250 </v>
   <v>       0.00009697       0.00013452      -0.00016397 </v>
   <v>      -0.00014372       0.00032192      -0.00137471 </v>
   <v>      -0.00010125       0.00001615       0.00017640 </v>
   <v>       0.00059127      -0.00001858       0.00017642 </v>
   <v>       0.00008468       0.00008138       0.00006225 </v>
   <v>       0.00020856      -0.00009001      -0.00010045 </v>
   <v>       0.00023870       0.00023075      -0.00003775 </v>
   <v>       0.00018790      -0.00028608       0.00055496 </v>
   <v>      -0.00064015       0.00000058      -0.00022962 </v>
   <v>      -0.00024000       0.00008910      -0.00004151 </v>
   <v>       0.00078240       0.00018713      -0.00016762 </v>
   <v>      -0.00016025      -0.00062735      -0.00021676 </v>
   <v>       0.00013436       0.00003348      -0.00033152 </v>
   <v>      -0.00004014       0.00022750       0.00041788 </v>
   <v>       0.00058941      -0.00081613       0.00021761 </v>
   <v>      -0.00012317      -0.00051954       0.00027396 </v>
   <v>       0.00033335      -0.00004973      -0.00000129 </v>
   <v>      -0.00038482      -0.00009629      -0.00009663 </v>
   <v>      -0.00007623       0.00032625       0.00032836 </v>
   <v>      -0.00021080      -0.00014608       0.00014021 </v>
   <v>       0.00020018      -0.00014200      -0.00000406 </v>
   <v>      -0.00001726       0.00016085       0.00006000 </v>
   <v>      -0.00038047       0.00018603       0.00014210 </v>
   <v>      -0.00014406       0.00014555      -0.00002954 </v>
   <v>      -0.00023522       0.00003985      -0.00039321 </v>
   <v>       0.00025753       0.00007596       0.00033978 </v>
   <v>      -0.00018825      -0.00023460      -0.00008446 </v>
   <v>      -0.00002542       0.00043741       0.00005310 </v>
   <v>       0.00034704       0.00025686       0.00006511 </v>
   <v>       0.00020490       0.00019412      -0.00002307 </v>
   <v>       0.00012067       0.00025263      -0.00007555 </v>
   <v>      -0.00014505       0.00006244       0.00037258 </v>
   <v>      -0.00004499      -0.00063797      -0.00019224 </v>
   <v>      -0.00006427      -0.00031187       0.00035139 </v>
   <v>      -0.00039327       0.00011738      -0.00020513 </v>
   <v>       0.00019571      -0.00011541      -0.00011806 </v>
   <v>      -0.00006509       0.00007717      -0.00006723 </v>
   <v>       0.00009589       0.00014534       0.00025761 </v>
   <v>      -0.00007329      -0.00004610       0.00011500 </v>
   <v>      -0.00025033       0.00016987      -0.00030999 </v>
   <v>      -0.00048004      -0.00010508       0.00036440 </v>
   <v>      -0.00023131      -0.00017497      -0.00056116 </v>
   <v>       0.00014978       0.00044942      -0.00012072 </v>
  </varray>
  <varray name="stress" >
   <v>      -6.20317712      -2.92479710       2.38119814 </v>
   <v>      -2.92479712      -1.25612376      -1.94441945 </v>
   <v>       2.38119888      -1.94441956      -3.99035998 </v>
  </varray>
  <energy>
   <i name="e_fr_energy">   -271.99150406 </i>
   <i name="e_wo_entrp">   -271.99150406 </i>
   <i name="e_0_energy">   -271.99150406 </i>
  </energy>
  <time name="totalsc">    7.56    7.66</time>
 </calculation>
 <calculation>
  <scstep>
   <time name="dav">    2.18    2.20</time>
   <time name="total">    2.70    2.72</time>
   <energy>
    <i name="alphaZ">    298.82475179 </i>
    <i name="ewald">  -8790.01058300 </i>
    <i name="hartreedc">  -2222.73977612 </i>
    <i name="XCdc">    537.32574359 </i>
    <i name="pawpsdc">   9782.33616844 </i>
    <i name="pawaedc">  -9926.14816092 </i>
    <i name="eentropy">     -0.00000000 </i>
    <i name="bandstr">  -2641.25251927 </i>
    <i name="atom">  12703.13999606 </i>
    <i name="e_fr_energy">   -258.52437944 </i>
    <i name="e_wo_entrp">   -258.52437944 </i>
    <i name="e_0_energy">   -258.52437944 </i>
   </energy>
  </scstep>
  <scstep>
   <time name="diag">    0.36    0.37</time>
   <time name="diis">    0.81    0.81</time>
   <time name="orth">    0.07    0.07</time>
   <time name="total">    1.69    1.70</time>
   <energy>
    <i name="alphaZ">    298.82475179 </i>
    <i name="ewald">  -8790.01058300 </i>
    <i name="hartreedc">  -2222.73977039 </i>
    <i name="XCdc">    537.32564753 </i>
    <i name="pawpsdc">   9782.32583797 </i>
    <i name="pawaedc">  -9926.13765361 </i>
    <i name="eentropy">     -0.00000000 </i>
    <i name="bandstr">  -2641.25260581 </i>
    <i name="atom">  12703.13999606 </i>
    <i name="e_fr_energy">   -258.52437948 </i>
    <i name="e_wo_entrp">   -258.52437948 </i>
    <i name="e_0_energy">   -258.52437948 </i>
   </energy>
  </scstep>
  <structure>
   <crystal>
    <varray name="basis" >
     <v>       9.68489897       0.00000000       0.00000000 </v>
     <v>       0.00000000       9.68489897       0.00000000 </v>
     <v>       0.00000000       0.00000000       9.68489897 </v>
    </varray>
    <i name="volume">    908.41706402 </i>
    <varray name="rec_basis" >
     <v>       0.10325353       0.00000000       0.00000000 </v>
     <v>       0.00000000       0.10325353       0.00000000 </v>
     <v>       0.00000000       0.00000000       0.10325353 </v>
    </varray>
   </crystal>
   <varray name="positions" >
    <v>       0.94699515       0.18498640       0.17348976 </v>
    <v>       0.99500918       0.82556285       0.80342994 </v>
    <v>       0.98793437       0.20296465       0.78846612 </v>
    <v>       0.03559412       0.82993360       0.16535752 </v>
    <v>       0.20386191       0.19079422       0.96679071 </v>
    <v>       0.30004787       0.72686593       0.00013910 </v>
    <v>       0.64595882       0.32220864       0.04246477 </v>
    <v>       0.68534886       0.68895717       0.98639830 </v>
    <v>       0.27791784       0.98201733       0.30971758 </v>
    <v>       0.31167751       0.05882616       0.66722253 </v>
    <v>       0.76941284       0.96914673       0.87742186 </v>
    <v>       0.70321684       0.02186113       0.30922528 </v>
    <v>       0.18275932       0.67868210       0.45443215 </v>
    <v>       0.15604323       0.32758743       0.52653003 </v>
    <v>       0.79528920       0.70439660       0.51721714 </v>
    <v>       0.80051239       0.28600514       0.48802779 </v>
    <v>       0.30961115       0.46217532       0.79686421 </v>
    <v>       0.30929067       0.52140862       0.18504376 </v>
    <v>       0.81448365       0.47828821       0.28969579 </v>
    <v>       0.91202710       0.55006950       0.72211313 </v>
    <v>       0.54619309       0.84454055       0.66684410 </v>
    <v>       0.48174718       0.79847545       0.28665171 </v>
    <v>       0.50693913       0.21558779       0.32921982 </v>
    <v>       0.59817843       0.55946029       0.76719783 </v>
    <v>       0.49548142       0.50286498       0.49553511 </v>
    <v>       0.49446340       0.02012185       0.99069801 </v>
    <v>       0.99282090       0.50065036       0.00089323 </v>
    <v>       0.99139416       0.99695796       0.49576906 </v>
    <v>       0.13226980       0.88044013       0.60348773 </v>
    <v>       0.09549430       0.13735476       0.37462356 </v>
    <v>       0.88584311       0.86967432       0.36239456 </v>
    <v>       0.84941264       0.08802283       0.62385871 </v>
    <v>       0.88479375       0.63770727       0.12016712 </v>
    <v>       0.85100238       0.38505354       0.89226778 </v>
    <v>       0.11503176       0.61409752       0.86515086 </v>
    <v>       0.11262370       0.37504754       0.11989534 </v>
    <v>       0.60243674       0.14952956       0.86756964 </v>
    <v>       0.62773106       0.89557251       0.10413966 </v>
    <v>       0.37447762       0.12936533       0.12739998 </v>
    <v>       0.37858860       0.90123444       0.85718864 </v>
    <v>       0.61978841       0.61629131       0.36529007 </v>
    <v>       0.60581819       0.37151236       0.61579495 </v>
    <v>       0.39014614       0.63764626       0.62358516 </v>
    <v>       0.35102047       0.39433427       0.38406536 </v>
    <v>       0.75775304       0.74590887       0.75549004 </v>
    <v>       0.73398287       0.25444131       0.25808350 </v>
    <v>       0.25353850       0.75318704       0.23279456 </v>
    <v>       0.21116835       0.25737033       0.74259585 </v>
    <v>       0.99481808       0.01114025       0.98317589 </v>
    <v>       0.96975977       0.50356183       0.49308876 </v>
    <v>       0.48824139       0.99233527       0.46110778 </v>
    <v>       0.48449348       0.52649869       0.98633344 </v>
   </varray>
  </structure>
  <varray name="forces" >
   <v>      -0.00014898      -0.00041261       0.00022481 </v>
   <v>      -0.00005839      -0.00018471       0.00046870 </v>
   <v>      -0.00011558       0.00030558      -0.00015317 </v>
   <v>      -0.00007276      -0.00003913       0.00002368 </v>
   <v>      -0.00032219      -0.00087274      -0.00017664 </v>
   <v>       0.00061678       0.00034428       0.00007894 </v>
   <v>       0.00006329       0.00014984       0.00028649 </v>
   <v>      -0.00001498       0.00051656      -0.00007122 </v>
   <v>      -0.00001115       0.00007159      -0.00006189 </v>
   <v>       0.00012623       0.00014565      -0.00019786 </v>
   <v>      -0.00020354       0.00044877      -0.00200152 </v>
   <v>      -0.00013049       0.00001943       0.00022665 </v>
   <v>       0.00081672      -0.00004745       0.00026013 </v>
   <v>       0.00011590       0.00013997       0.00011326 </v>
   <v>       0.00026436      -0.00011335      -0.00013057 </v>
   <v>       0.00027361       0.00026189      -0.00004731 </v>
   <v>       0.00025360      -0.00041358       0.00077996 </v>
   <v>      -0.00093473       0.00000500      -0.00033851 </v>
   <v>      -0.00031207       0.00011527      -0.00005774 </v>
   <v>       0.00108461       0.00025527      -0.00020075 </v>
   <v>      -0.00024812      -0.00089909      -0.00031192 </v>
   <v>       0.00015948       0.00004968      -0.00045309 </v>
   <v>      -0.00006565       0.00029949       0.00054524 </v>
   <v>       0.00085932      -0.00120099       0.00031573 </v>
   <v>      -0.00059641       0.00023357      -0.00033931 </v>
   <v>       0.00040024       0.00024347       0.00006003 </v>
   <v>      -0.00005281      -0.00004565       0.00008417 </v>
   <v>       0.00017471       0.00009023       0.00003195 </v>
   <v>      -0.00033295      -0.00018199       0.00020690 </v>
   <v>       0.00021015      -0.00018677       0.00004683 </v>
   <v>      -0.00003400       0.00023426       0.00012388 </v>
   <v>      -0.00054614       0.00018962       0.00014475 </v>
   <v>      -0.00017518       0.00012754      -0.00005334 </v>
   <v>      -0.00035233       0.00007789      -0.00046211 </v>
   <v>       0.00029989       0.00009099       0.00047691 </v>
   <v>      -0.00033574      -0.00025963      -0.00012563 </v>
   <v>      -0.00013572       0.00056147       0.00003805 </v>
   <v>       0.00043193       0.00036230       0.00005706 </v>
   <v>       0.00027382       0.00025660      -0.00009972 </v>
   <v>       0.00014388       0.00037502      -0.00013077 </v>
   <v>      -0.00020932      -0.00000756       0.00049963 </v>
   <v>      -0.00007428      -0.00104961      -0.00013666 </v>
   <v>      -0.00010647      -0.00049778       0.00044963 </v>
   <v>      -0.00044159       0.00016528      -0.00016115 </v>
   <v>       0.00025996      -0.00010698      -0.00017518 </v>
   <v>      -0.00013342       0.00012312      -0.00011920 </v>
   <v>       0.00001655       0.00013770       0.00037661 </v>
   <v>       0.00001693      -0.00007867       0.00012052 </v>
   <v>      -0.00032231       0.00014762      -0.00016767 </v>
   <v>      -0.00025885      -0.00013194       0.00011509 </v>
   <v>      -0.00035272      -0.00017215      -0.00022019 </v>
   <v>       0.00023687       0.00035743       0.00023751 </v>
  </varray>
  <varray name="stress" >
   <v>      -6.20703753      -2.92539337       2.38184071 </v>
   <v>      -2.92539324      -1.25969869      -1.94409847 </v>
   <v>       2.38184143      -1.94409843      -3.99417945 </v>
  </varray>
  <energy>
   <i name="e_fr_energy">   -271.99150441 </i>
   <i name="e_wo_entrp">   -271.99150441 </i>
   <i name="e_0_energy">   -271.99150441 </i>
  </energy>
  <time name="totalsc">    7.44    7.53</time>
 </calculation>
 <calculation>
  <scstep>
   <time name="dav">    2.38    2.40</time>
   <time name="total">    2.90    2.92</time>
   <energy>
    <i name="alphaZ">    298.82475179 </i>
    <i name="ewald">  -8790.01310295 </i>
    <i name="hartreedc">  -2222.73745140 </i>
    <i name="XCdc">    537.32556945 </i>
    <i name="pawpsdc">   9782.31882930 </i>
    <i name="pawaedc">  -9926.13055903 </i>
    <i name="eentropy">     -0.00000000 </i>
    <i name="bandstr">  -2641.25241351 </i>
    <i name="atom">  12703.13999606 </i>
    <i name="e_fr_energy">   -258.52438028 </i>
    <i name="e_wo_entrp">   -258.52438028 </i>
    <i name="e_0_energy">   -258.52438028 </i>
   </energy>
  </scstep>
  <scstep>
   <time name="diag">    0.36    0.36</time>
   <time name="diis">    0.81    0.81</time>
   <time name="orth">    0.07    0.07</time>
   <time name="total">    1.68    1.70</time>
   <energy>
    <i name="alphaZ">    298.82475179 </i>
    <i name="ewald">  -8790.01310295 </i>
    <i name="hartreedc">  -2222.73744656 </i>
    <i name="XCdc">    537.32554225 </i>
    <i name="pawpsdc">   9782.31533140 </i>
    <i name="pawaedc">  -9926.12702204 </i>
    <i name="eentropy">     -0.00000000 </i>
    <i name="bandstr">  -2641.25243036 </i>
    <i name="atom">  12703.13999606 </i>
    <i name="e_fr_energy">   -258.52438040 </i>
    <i name="e_wo_entrp">   -258.52438040 </i>
    <i name="e_0_energy">   -258.52438040 </i>
   </energy>
  </scstep>
  <structure>
   <crystal>
    <varray name="basis" >
     <v>       9.68489897       0.00000000       0.00000000 </v>
     <v>       0.00000000       9.68489897       0.00000000 </v>
     <v>       0.00000000       0.00000000       9.68489897 </v>
    </varray>
    <i name="volume">    908.41706402 </i>
    <varray name="rec_basis" >
     <v>       0.10325353       0.00000000       0.00000000 </v>
     <v>       0.00000000       0.10325353       0.00000000 </v>
     <v>       0.00000000       0.00000000       0.10325353 </v>
    </varray>
   </crystal>
   <varray name="positions" >
    <v>       0.94699471       0.18498545       0.17349021 </v>
    <v>       0.99500888       0.82556242       0.80343102 </v>
    <v>       0.98793393       0.20296546       0.78846562 </v>
    <v>       0.03559385       0.82993346       0.16535747 </v>
    <v>       0.20386115       0.19079239       0.96679009 </v>
    <v>       0.30004924       0.72686673       0.00013908 </v>
    <v>       0.64595920       0.32220902       0.04246537 </v>
    <v>       0.68534887       0.68895840       0.98639796 </v>
    <v>       0.27791780       0.98201741       0.30971737 </v>
    <v>       0.31167767       0.05882645       0.66722222 </v>
    <v>       0.76941246       0.96914751       0.87741756 </v>
    <v>       0.70321651       0.02186123       0.30922571 </v>
    <v>       0.18276101       0.67868209       0.45443267 </v>
    <v>       0.15604342       0.32758774       0.52653041 </v>
    <v>       0.79528987       0.70439626       0.51721696 </v>
    <v>       0.80051278       0.28600572       0.48802804 </v>
    <v>       0.30961169       0.46217431       0.79686575 </v>
    <v>       0.30928857       0.52140863       0.18504291 </v>
    <v>       0.81448294       0.47828830       0.28969563 </v>
    <v>       0.91202912       0.55006990       0.72211279 </v>
    <v>       0.54619258       0.84453866       0.66684353 </v>
    <v>       0.48174745       0.79847580       0.28665043 </v>
    <v>       0.50693916       0.21558854       0.32922118 </v>
    <v>       0.59818039       0.55945740       0.76719822 </v>
    <v>       0.49548324       0.50286016       0.49553842 </v>
    <v>       0.49446329       0.02012061       0.99069770 </v>
    <v>       0.99281882       0.50065009       0.00089243 </v>
    <v>       0.99139270       0.99695944       0.49577091 </v>
    <v>       0.13226935       0.88043927       0.60348812 </v>
    <v>       0.09549506       0.13735457       0.37462310 </v>
    <v>       0.88584311       0.86967448       0.36239437 </v>
    <v>       0.84941270       0.08802208       0.62385766 </v>
    <v>       0.88479384       0.63770755       0.12016687 </v>
    <v>       0.85100238       0.38505454       0.89226748 </v>
    <v>       0.11503276       0.61409800       0.86515206 </v>
    <v>       0.11262361       0.37504646       0.11989577 </v>
    <v>       0.60243642       0.14953168       0.86756921 </v>
    <v>       0.62773209       0.89557352       0.10413986 </v>
    <v>       0.37447818       0.12936618       0.12739973 </v>
    <v>       0.37858955       0.90123646       0.85718875 </v>
    <v>       0.61978887       0.61629230       0.36528976 </v>
    <v>       0.60581505       0.37151352       0.61579142 </v>
    <v>       0.39014495       0.63764610       0.62358673 </v>
    <v>       0.35101853       0.39433465       0.38406447 </v>
    <v>       0.75775379       0.74590887       0.75548955 </v>
    <v>       0.73398257       0.25444167       0.25808289 </v>
    <v>       0.25353816       0.75318720       0.23279573 </v>
    <v>       0.21116856       0.25737020       0.74259597 </v>
    <v>       0.99481774       0.01114020       0.98317648 </v>
    <v>       0.96976071       0.50356181       0.49308762 </v>
    <v>       0.48824071       0.99233511       0.46110892 </v>
    <v>       0.48449390       0.52649850       0.98633508 </v>
   </varray>
  </structure>
  <varray name="forces" >
   <v>      -0.00008213      -0.00032565       0.00019705 </v>
   <v>       0.00000618      -0.00016832       0.00038792 </v>
   <v>      -0.00004416       0.00023735      -0.00010518 </v>
   <v>      -0.00000542      -0.00000888       0.00004712 </v>
   <v>      -0.00021478      -0.00064833      -0.00005571 </v>
   <v>       0.00046674       0.00026721       0.00012428 </v>
   <v>      -0.00000404       0.00011132       0.00023147 </v>
   <v>      -0.00001828       0.00040507      -0.00002165 </v>
   <v>       0.00000079       0.00006868      -0.00003692 </v>
   <v>       0.00010172       0.00010851      -0.00020734 </v>
   <v>      -0.00017111       0.00038907      -0.00145184 </v>
   <v>      -0.00009957       0.00001214       0.00019580 </v>
   <v>       0.00062860      -0.00005405       0.00020870 </v>
   <v>       0.00011454       0.00010085       0.00003813 </v>
   <v>       0.00020964      -0.00007374      -0.00018240 </v>
   <v>       0.00029642       0.00021935      -0.00017167 </v>
   <v>       0.00016323      -0.00022937       0.00058554 </v>
   <v>      -0.00067028       0.00001105      -0.00021994 </v>
   <v>      -0.00026365       0.00015279      -0.00005863 </v>
   <v>       0.00090776       0.00025812      -0.00019883 </v>
   <v>      -0.00019171      -0.00069701      -0.00027597 </v>
   <v>       0.00013987      -0.00001594      -0.00033582 </v>
   <v>      -0.00010537       0.00023021       0.00039011 </v>
   <v>       0.00057939      -0.00072704       0.00032522 </v>
   <v>      -0.00170221       0.00208266      -0.00181134 </v>
   <v>       0.00067153       0.00083628       0.00018358 </v>
   <v>       0.00063810       0.00001981       0.00045078 </v>
   <v>       0.00080579      -0.00037999      -0.00063575 </v>
   <v>      -0.00040237       0.00004191       0.00012272 </v>
   <v>       0.00000687      -0.00024294       0.00025932 </v>
   <v>       0.00002015       0.00033223       0.00027651 </v>
   <v>      -0.00094564       0.00056090       0.00064496 </v>
   <v>      -0.00024394       0.00009422       0.00000845 </v>
   <v>      -0.00060501      -0.00024981      -0.00062418 </v>
   <v>       0.00011454      -0.00004037       0.00038154 </v>
   <v>      -0.00058102       0.00005195      -0.00041753 </v>
   <v>      -0.00018942       0.00014227       0.00021789 </v>
   <v>       0.00032122       0.00021936      -0.00000801 </v>
   <v>       0.00026605       0.00007888      -0.00013163 </v>
   <v>      -0.00014187      -0.00008198      -0.00030610 </v>
   <v>      -0.00058841      -0.00046570       0.00095105 </v>
   <v>       0.00111008      -0.00233445       0.00116273 </v>
   <v>       0.00028271      -0.00080146       0.00006122 </v>
   <v>       0.00001457       0.00021244       0.00010282 </v>
   <v>       0.00017271      -0.00012591      -0.00014164 </v>
   <v>      -0.00008582       0.00007692      -0.00000218 </v>
   <v>       0.00007401       0.00013294       0.00017615 </v>
   <v>      -0.00002878      -0.00006243       0.00008195 </v>
   <v>      -0.00024789       0.00016197      -0.00030898 </v>
   <v>      -0.00042548      -0.00013771       0.00033275 </v>
   <v>      -0.00023643      -0.00012595      -0.00040797 </v>
   <v>       0.00018161       0.00038060      -0.00002859 </v>
  </varray>
  <varray name="stress" >
   <v>      -6.20741057      -2.92755539       2.38423879 </v>
   <v>      -2.92755511      -1.25978864      -1.94400555 </v>
   <v>       2.38423948      -1.94400567      -3.99429548 </v>
  </varray>
  <energy>
   <i name="e_fr_energy">   -271.99150466 </i>
   <i name="e_wo_entrp">   -271.99150466 </i>
   <i name="e_0_energy">   -271.99150466 </i>
  </energy>
  <time name="totalsc">    7.64    7.72</time>
 </calculation>
 <calculation>
  <scstep>
   <time name="dav">    2.29    2.31</time>
   <time name="total">    2.81    2.83</time>
   <energy>
    <i name="alphaZ">    298.82475179 </i>
    <i name="ewald">  -8790.01946681 </i>
    <i name="hartreedc">  -2222.73210860 </i>
    <i name="XCdc">    537.32543288 </i>
    <i name="pawpsdc">   9782.31246399 </i>
    <i name="pawaedc">  -9926.12412004 </i>
    <i name="eentropy">     -0.00000000 </i>
    <i name="bandstr">  -2641.25133112 </i>
    <i name="atom">  12703.13999606 </i>
    <i name="e_fr_energy">   -258.52438184 </i>
    <i name="e_wo_entrp">   -258.52438184 </i>
    <i name="e_0_energy">   -258.52438184 </i>
   </energy>
  </scstep>
  <scstep>
   <time name="diag">    0.36    0.37</time>
   <time name="diis">    0.81    0.82</time>
   <time name="orth">    0.07    0.07</time>
   <time name="total">    1.69    1.71</time>
   <energy>
    <i name="alphaZ">    298.82475179 </i>
    <i name="ewald">  -8790.01946681 </i>
    <i name="hartreedc">  -2222.73180520 </i>
    <i name="XCdc">    537.32541644 </i>
    <i name="pawpsdc">   9782.30782919 </i>
    <i name="pawaedc">  -9926.11946415 </i>
    <i name="eentropy">     -0.00000000 </i>
    <i name="bandstr">  -2641.25163941 </i>
    <i name="atom">  12703.13999606 </i>
    <i name="e_fr_energy">   -258.52438210 </i>
    <i name="e_wo_entrp">   -258.52438210 </i>
    <i name="e_0_energy">   -258.52438210 </i>
   </energy>
  </scstep>
  <structure>
   <crystal>
    <varray name="basis" >
     <v>       9.68489897       0.00000000       0.00000000 </v>
     <v>       0.00000000       9.68489897       0.00000000 </v>
     <v>       0.00000000       0.00000000       9.68489897 </v>
    </varray>
    <i name="volume">    908.41706402 </i>
    <varray name="rec_basis" >
     <v>       0.10325353       0.00000000       0.00000000 </v>
     <v>       0.00000000       0.10325353       0.00000000 </v>
     <v>       0.00000000       0.00000000       0.10325353 </v>
    </varray>
   </crystal>
   <varray name="positions" >
    <v>       0.94699406       0.18498371       0.17349114 </v>
    <v>       0.99500858       0.82556159       0.80343303 </v>
    <v>       0.98793337       0.20296685       0.78846485 </v>
    <v>       0.03559357       0.82993330       0.16535753 </v>
    <v>       0.20385986       0.19078899       0.96678933 </v>
    <v>       0.30005174       0.72686817       0.00013936 </v>
    <v>       0.64595957       0.32220967       0.04246653 </v>
    <v>       0.68534884       0.68896061       0.98639755 </v>
    <v>       0.27791776       0.98201766       0.30971706 </v>
    <v>       0.31167807       0.05882700       0.66722142 </v>
    <v>       0.76941167       0.96914922       0.87740975 </v>
    <v>       0.70321594       0.02186136       0.30922662 </v>
    <v>       0.18276421       0.67868195       0.45443369 </v>
    <v>       0.15604390       0.32758829       0.52653089 </v>
    <v>       0.79529105       0.70439574       0.51721635 </v>
    <v>       0.80051387       0.28600683       0.48802790 </v>
    <v>       0.30961263       0.46217274       0.79686870 </v>
    <v>       0.30928484       0.52140867       0.18504153 </v>
    <v>       0.81448160       0.47828875       0.28969534 </v>
    <v>       0.91203333       0.55007092       0.72211197 </v>
    <v>       0.54619160       0.84453509       0.66684230 </v>
    <v>       0.48174805       0.79847612       0.28664832 </v>
    <v>       0.50693896       0.21558986       0.32922348 </v>
    <v>       0.59818376       0.55945275       0.76719939 </v>
    <v>       0.49548107       0.50286017       0.49553750 </v>
    <v>       0.49446476       0.02012133       0.99069782 </v>
    <v>       0.99281821       0.50064985       0.00089267 </v>
    <v>       0.99139310       0.99696004       0.49577130 </v>
    <v>       0.13226794       0.88043851       0.60348881 </v>
    <v>       0.09549585       0.13735380       0.37462325 </v>
    <v>       0.88584316       0.86967543       0.36239484 </v>
    <v>       0.84941052       0.08802264       0.62385811 </v>
    <v>       0.88479335       0.63770806       0.12016664 </v>
    <v>       0.85100095       0.38505497       0.89226570 </v>
    <v>       0.11503406       0.61409840       0.86515419 </v>
    <v>       0.11262213       0.37504548       0.11989522 </v>
    <v>       0.60243563       0.14953417       0.86756929 </v>
    <v>       0.62773389       0.89557506       0.10414004 </v>
    <v>       0.37447939       0.12936724       0.12739917 </v>
    <v>       0.37859019       0.90123832       0.85718813 </v>
    <v>       0.61978795       0.61629220       0.36529169 </v>
    <v>       0.60581447       0.37150919       0.61579057 </v>
    <v>       0.39014440       0.63764404       0.62358848 </v>
    <v>       0.35101658       0.39433555       0.38406381 </v>
    <v>       0.75775497       0.74590857       0.75548871 </v>
    <v>       0.73398206       0.25444221       0.25808227 </v>
    <v>       0.25353798       0.75318768       0.23279734 </v>
    <v>       0.21116871       0.25736993       0.74259629 </v>
    <v>       0.99481681       0.01114054       0.98317635 </v>
    <v>       0.96976065       0.50356147       0.49308724 </v>
    <v>       0.48823947       0.99233464       0.46110912 </v>
    <v>       0.48449476       0.52649921       0.98633670 </v>
   </varray>
  </structure>
  <varray name="forces" >
   <v>      -0.00007546      -0.00018014       0.00010679 </v>
   <v>       0.00000334      -0.00008656       0.00021616 </v>
   <v>      -0.00007144       0.00010261      -0.00005221 </v>
   <v>       0.00000038      -0.00000713       0.00003959 </v>
   <v>      -0.00012728      -0.00042976      -0.00000516 </v>
   <v>       0.00023796       0.00016397       0.00012474 </v>
   <v>      -0.00002955       0.00006780       0.00009070 </v>
   <v>      -0.00000768       0.00019559      -0.00001251 </v>
   <v>       0.00002518       0.00002465      -0.00003237 </v>
   <v>       0.00005584       0.00003140      -0.00010398 </v>
   <v>      -0.00009669       0.00024993      -0.00083470 </v>
   <v>      -0.00006831       0.00003781       0.00013751 </v>
   <v>       0.00030232      -0.00002982       0.00013632 </v>
   <v>       0.00002546       0.00002936       0.00004879 </v>
   <v>       0.00011056      -0.00003709      -0.00004540 </v>
   <v>       0.00008738       0.00010321      -0.00005021 </v>
   <v>       0.00008712      -0.00013984       0.00034222 </v>
   <v>      -0.00039988       0.00001842      -0.00011179 </v>
   <v>      -0.00012667       0.00005165      -0.00002526 </v>
   <v>       0.00047901       0.00010988      -0.00008592 </v>
[...]
       <r>     7.8718    11.7564   144.3926 </r>
       <r>     8.0652    13.4304   146.9896 </r>
       <r>     8.2585    10.7429   149.0691 </r>
       <r>     8.4519    13.9874   151.7746 </r>
       <r>     8.6452    14.5630   154.5920 </r>
       <r>     8.8386    16.1814   157.7234 </r>
       <r>     9.0319    19.9377   161.5798 </r>
       <r>     9.2253    17.7113   165.0064 </r>
       <r>     9.4186    18.2310   168.5317 </r>
       <r>     9.6120    15.8583   171.5990 </r>
       <r>     9.8053    18.1149   175.1064 </r>
       <r>     9.9987     4.6133   176.0000 </r>
       <r>    10.1920     0.0000   176.0000 </r>
       <r>    10.3854     0.0000   176.0000 </r>
       <r>    10.5787     0.0000   176.0000 </r>
       <r>    10.7721     0.0000   176.0000 </r>
       <r>    10.9654     0.0000   176.0000 </r>
       <r>    11.1588     0.0000   176.0000 </r>
       <r>    11.3521     0.0000   176.0000 </r>
       <r>    11.5455     0.0000   176.0000 </r>
       <r>    11.7388     0.0000   176.0000 </r>
       <r>    11.9322     0.0000   176.0000 </r>
       <r>    12.1255     0.0000   176.0000 </r>
       <r>    12.3189     0.0000   176.0000 </r>
       <r>    12.5122     0.0000   176.0000 </r>
      </set>
      <set comment="spin 2">
       <r>   -45.4928     0.0000     0.0000 </r>
       <r>   -45.2994     0.0000     0.0000 </r>
       <r>   -45.1061     0.0000     0.0000 </r>
       <r>   -44.9127     0.0000     0.0000 </r>
       <r>   -44.7194     0.0000     0.0000 </r>
       <r>   -44.5260     0.0000     0.0000 </r>
       <r>   -44.3327     0.0000     0.0000 </r>
       <r>   -44.1393     0.0000     0.0000 </r>
       <r>   -43.9460     0.0000     0.0000 </r>
       <r>   -43.7526     0.0000     0.0000 </r>
       <r>   -43.5593     0.0000     0.0000 </r>
       <r>   -43.3659     0.0000     0.0000 </r>
       <r>   -43.1726     0.0000     0.0000 </r>
       <r>   -42.9792     0.0000     0.0000 </r>
       <r>   -42.7859    10.9993     2.1267 </r>
       <r>   -42.5925    22.9531     6.5651 </r>
       <r>   -42.3992    50.8925    16.4052 </r>
       <r>   -42.2058    24.5552    21.1667 </r>
       <r>   -42.0125    14.6456    23.9984 </r>
       <r>   -41.8191     0.0000    24.0000 </r>
       <r>   -41.6258     0.0000    24.0000 </r>
       <r>   -41.4324     0.0000    24.0000 </r>
       <r>   -41.2391     0.0000    24.0000 </r>
       <r>   -41.0457     0.0000    24.0000 </r>
       <r>   -40.8524     0.0000    24.0000 </r>
       <r>   -40.6590     0.0000    24.0000 </r>
       <r>   -40.4657     0.0000    24.0000 </r>
       <r>   -40.2723     0.0000    24.0000 </r>
       <r>   -40.0790     0.0000    24.0000 </r>
       <r>   -39.8856     0.0000    24.0000 </r>
       <r>   -39.6923     0.0000    24.0000 </r>
       <r>   -39.4989     0.0000    24.0000 </r>
       <r>   -39.3056     0.0000    24.0000 </r>
       <r>   -39.1122     0.0000    24.0000 </r>
       <r>   -38.9189     0.0000    24.0000 </r>
       <r>   -38.7255     0.0000    24.0000 </r>
       <r>   -38.5322     0.0000    24.0000 </r>
       <r>   -38.3388     0.0000    24.0000 </r>
       <r>   -38.1455     0.0000    24.0000 </r>
       <r>   -37.9521     0.0000    24.0000 </r>
       <r>   -37.7588     0.0000    24.0000 </r>
       <r>   -37.5654     0.0000    24.0000 </r>
       <r>   -37.3721     0.0000    24.0000 </r>
       <r>   -37.1787     0.0000    24.0000 </r>
       <r>   -36.9854     0.0000    24.0000 </r>
       <r>   -36.7920     0.0000    24.0000 </r>
       <r>   -36.5987     0.0000    24.0000 </r>
       <r>   -36.4053     0.0000    24.0000 </r>
       <r>   -36.2120     0.0000    24.0000 </r>
       <r>   -36.0186     0.0000    24.0000 </r>
       <r>   -35.8253     0.0000    24.0000 </r>
       <r>   -35.6319     0.0000    24.0000 </r>
       <r>   -35.4386     0.0000    24.0000 </r>
       <r>   -35.2452     0.0000    24.0000 </r>
       <r>   -35.0519     0.0000    24.0000 </r>
       <r>   -34.8585     0.0000    24.0000 </r>
       <r>   -34.6652     0.0000    24.0000 </r>
       <r>   -34.4718     0.0000    24.0000 </r>
       <r>   -34.2785     0.0000    24.0000 </r>
       <r>   -34.0851     0.0000    24.0000 </r>
       <r>   -33.8918     0.0000    24.0000 </r>
       <r>   -33.6984     0.0000    24.0000 </r>
       <r>   -33.5051     0.0000    24.0000 </r>
       <r>   -33.3117     0.0000    24.0000 </r>
       <r>   -33.1184     0.0000    24.0000 </r>
       <r>   -32.9250     0.0000    24.0000 </r>
       <r>   -32.7317     0.0000    24.0000 </r>
       <r>   -32.5383     0.0000    24.0000 </r>
       <r>   -32.3450     0.0000    24.0000 </r>
       <r>   -32.1516     0.0000    24.0000 </r>
       <r>   -31.9583     0.0000    24.0000 </r>
       <r>   -31.7649     0.0000    24.0000 </r>
       <r>   -31.5716     0.0000    24.0000 </r>
       <r>   -31.3782     0.0000    24.0000 </r>
       <r>   -31.1849     0.0000    24.0000 </r>
       <r>   -30.9915     0.0000    24.0000 </r>
       <r>   -30.7982     0.0000    24.0000 </r>
       <r>   -30.6048     0.0000    24.0000 </r>
       <r>   -30.4115     0.0000    24.0000 </r>
       <r>   -30.2181     0.0000    24.0000 </r>
       <r>   -30.0248     0.0000    24.0000 </r>
       <r>   -29.8314     0.0000    24.0000 </r>
       <r>   -29.6381     0.0000    24.0000 </r>
       <r>   -29.4447     0.0000    24.0000 </r>
       <r>   -29.2514     0.0000    24.0000 </r>
       <r>   -29.0580     0.0000    24.0000 </r>
       <r>   -28.8647     0.0000    24.0000 </r>
       <r>   -28.6713     0.0000    24.0000 </r>
       <r>   -28.4780     0.0000    24.0000 </r>
       <r>   -28.2846     0.0000    24.0000 </r>
       <r>   -28.0913     0.0000    24.0000 </r>
       <r>   -27.8979     0.0000    24.0000 </r>
       <r>   -27.7046     0.0000    24.0000 </r>
       <r>   -27.5112     0.0000    24.0000 </r>
       <r>   -27.3179     0.0000    24.0000 </r>
       <r>   -27.1245     0.0000    24.0000 </r>
       <r>   -26.9312     0.0000    24.0000 </r>
       <r>   -26.7378     0.0000    24.0000 </r>
       <r>   -26.5445     0.0000    24.0000 </r>
       <r>   -26.3511     0.0000    24.0000 </r>
       <r>   -26.1578     0.0000    24.0000 </r>
       <r>   -25.9644     0.0000    24.0000 </r>
       <r>   -25.7711     0.0000    24.0000 </r>
       <r>   -25.5777     0.0000    24.0000 </r>
       <r>   -25.3844     0.0000    24.0000 </r>
       <r>   -25.1910     0.0000    24.0000 </r>
       <r>   -24.9977     0.0000    24.0000 </r>
       <r>   -24.8043     0.0000    24.0000 </r>
       <r>   -24.6110     0.0000    24.0000 </r>
       <r>   -24.4176     0.0000    24.0000 </r>
       <r>   -24.2243     0.0000    24.0000 </r>
       <r>   -24.0309     0.0000    24.0000 </r>
       <r>   -23.8376     0.0000    24.0000 </r>
       <r>   -23.6442     0.0000    24.0000 </r>
       <r>   -23.4509     0.0000    24.0000 </r>
       <r>   -23.2575     0.0000    24.0000 </r>
       <r>   -23.0642     0.0000    24.0000 </r>
       <r>   -22.8708     0.0000    24.0000 </r>
       <r>   -22.6775     0.0000    24.0000 </r>
       <r>   -22.4841     0.0000    24.0000 </r>
       <r>   -22.2908     0.0000    24.0000 </r>
       <r>   -22.0974     0.0000    24.0000 </r>
       <r>   -21.9041     0.0000    24.0000 </r>
       <r>   -21.7107     0.0000    24.0000 </r>
       <r>   -21.5174     0.0000    24.0000 </r>
       <r>   -21.3240     0.0000    24.0000 </r>
       <r>   -21.1307     0.0000    24.0000 </r>
       <r>   -20.9373     0.0000    24.0000 </r>
       <r>   -20.7440     0.0000    24.0000 </r>
       <r>   -20.5506     0.0000    24.0000 </r>
       <r>   -20.3573     0.0000    24.0000 </r>
       <r>   -20.1639     0.0000    24.0000 </r>
       <r>   -19.9706     0.0000    24.0000 </r>
       <r>   -19.7772     0.0000    24.0000 </r>
       <r>   -19.5839     0.0000    24.0000 </r>
       <r>   -19.3905     0.0000    24.0000 </r>
       <r>   -19.1972     0.0000    24.0000 </r>
       <r>   -19.0038     0.0000    24.0000 </r>
       <r>   -18.8105     0.0000    24.0000 </r>
       <r>   -18.6171     0.0000    24.0000 </r>
       <r>   -18.4238     0.0000    24.0000 </r>
       <r>   -18.2304     0.0000    24.0000 </r>
       <r>   -18.0371     0.0000    24.0000 </r>
       <r>   -17.8437     0.0000    24.0000 </r>
       <r>   -17.6504     0.0000    24.0000 </r>
       <r>   -17.4570     0.0000    24.0000 </r>
       <r>   -17.2637     0.0000    24.0000 </r>
       <r>   -17.0703     0.0000    24.0000 </r>
       <r>   -16.8770     0.0000    24.0000 </r>
       <r>   -16.6836     0.0000    24.0000 </r>
       <r>   -16.4903     0.0000    24.0000 </r>
       <r>   -16.2969     0.0000    24.0000 </r>
       <r>   -16.1036     0.0000    24.0000 </r>
       <r>   -15.9102     0.0000    24.0000 </r>
       <r>   -15.7169     0.0000    24.0000 </r>
       <r>   -15.5235     0.0000    24.0000 </r>
       <r>   -15.3302     0.0000    24.0000 </r>
       <r>   -15.1368     0.0000    24.0000 </r>
       <r>   -14.9435     0.0000    24.0000 </r>
       <r>   -14.7501     0.0000    24.0000 </r>
       <r>   -14.5568     0.0000    24.0000 </r>
       <r>   -14.3634     0.0000    24.0000 </r>
       <r>   -14.1701     0.0000    24.0000 </r>
       <r>   -13.9767     0.0000    24.0000 </r>
       <r>   -13.7834     0.0000    24.0000 </r>
       <r>   -13.5900     0.0000    24.0000 </r>
       <r>   -13.3967     0.0000    24.0000 </r>
       <r>   -13.2033     0.0000    24.0000 </r>
       <r>   -13.0100     8.0903    25.5643 </r>
       <r>   -12.8166    18.5893    29.1585 </r>
       <r>   -12.6233    14.6807    31.9970 </r>
       <r>   -12.4299     0.0000    32.0000 </r>
       <r>   -12.2366     0.0000    32.0000 </r>
       <r>   -12.0432     0.0000    32.0000 </r>
       <r>   -11.8499     0.0000    32.0000 </r>
       <r>   -11.6565     0.0000    32.0000 </r>
       <r>   -11.4632     0.0000    32.0000 </r>
       <r>   -11.2698     0.0000    32.0000 </r>
       <r>   -11.0765     0.0000    32.0000 </r>
       <r>   -10.8831     0.0000    32.0000 </r>
       <r>   -10.6898     0.0000    32.0000 </r>
       <r>   -10.4964     0.0000    32.0000 </r>
       <r>   -10.3031     4.0653    32.7860 </r>
       <r>   -10.1097    16.0603    35.8913 </r>
       <r>    -9.9164    34.6301    42.5870 </r>
       <r>    -9.7230     7.2720    43.9969 </r>
       <r>    -9.5297     0.0000    44.0000 </r>
       <r>    -9.3363     0.0000    44.0000 </r>
       <r>    -9.1430     0.0000    44.0000 </r>
       <r>    -8.9496     0.0000    44.0000 </r>
       <r>    -8.7563     0.0197    44.0038 </r>
       <r>    -8.5629     5.1523    45.0000 </r>
       <r>    -8.3696     3.4978    45.6763 </r>
       <r>    -8.1762     6.8461    47.0000 </r>
       <r>    -7.9829     0.0000    47.0000 </r>
       <r>    -7.7895     1.9091    47.3691 </r>
       <r>    -7.5962     3.2629    48.0000 </r>
       <r>    -7.4028     0.0000    48.0000 </r>
       <r>    -7.2095     0.0000    48.0000 </r>
       <r>    -7.0161     0.0000    48.0000 </r>
       <r>    -6.8228     0.0000    48.0000 </r>
       <r>    -6.6294     0.0000    48.0000 </r>
       <r>    -6.4361     0.0000    48.0000 </r>
       <r>    -6.2427     0.0000    48.0000 </r>
       <r>    -6.0494     5.1703    48.9997 </r>
       <r>    -5.8560     0.0000    49.0000 </r>
       <r>    -5.6627     6.2840    50.2150 </r>
       <r>    -5.4693     9.2286    52.0000 </r>
       <r>    -5.2760     0.0000    52.0000 </r>
       <r>    -5.0826     0.0000    52.0000 </r>
       <r>    -4.8893     0.0000    52.0000 </r>
       <r>    -4.6959     0.0000    52.0000 </r>
       <r>    -4.5026     0.0000    52.0000 </r>
       <r>    -4.3092     0.0000    52.0000 </r>
       <r>    -4.1159     0.0000    52.0000 </r>
       <r>    -3.9225     0.0000    52.0000 </r>
       <r>    -3.7292     0.0000    52.0000 </r>
       <r>    -3.5358     0.0000    52.0000 </r>
       <r>    -3.3425     0.0000    52.0000 </r>
       <r>    -3.1491    12.6917    54.4539 </r>
       <r>    -2.9558     2.8193    55.0000 </r>
       <r>    -2.7624     5.9303    56.1466 </r>
       <r>    -2.5691    10.9992    58.2733 </r>
       <r>    -2.3757    20.0952    62.1587 </r>
       <r>    -2.1824     8.9191    63.8849 </r>
       <r>    -1.9890     0.5780    64.0000 </r>
       <r>    -1.7957     0.0052    64.0010 </r>
       <r>    -1.6023    14.0512    66.7178 </r>
       <r>    -1.4090    20.6841    70.7188 </r>
       <r>    -1.2156    18.6493    74.3251 </r>
       <r>    -1.0223     8.6495    76.0000 </r>
       <r>    -0.8289     0.0000    76.0000 </r>
       <r>    -0.6356     1.1531    76.2230 </r>
       <r>    -0.4422    14.4436    79.0156 </r>
       <r>    -0.2489    11.7144    81.2807 </r>
       <r>    -0.0555    22.6085    85.6521 </r>
       <r>     0.1378    26.3207    90.7480 </r>
       <r>     0.3312    17.5757    94.1474 </r>
       <r>     0.5245     9.5630    96.0000 </r>
       <r>     0.7179     6.6987    97.2952 </r>
       <r>     0.9112    18.0881   100.7925 </r>
       <r>     1.1046    19.8962   104.6413 </r>
       <r>     1.2979    23.0557   109.0991 </r>
       <r>     1.4913    23.9195   113.7291 </r>
       <r>     1.6846    15.9514   116.8181 </r>
       <r>     1.8780    11.1972   118.9839 </r>
       <r>     2.0713     5.2422   120.0000 </r>
       <r>     2.2647     0.0000   120.0000 </r>
       <r>     2.4580     0.0000   120.0000 </r>
       <r>     2.6514     0.0000   120.0000 </r>
       <r>     2.8447     0.0000   120.0000 </r>
       <r>     3.0381     0.0000   120.0000 </r>
       <r>     3.2314     0.0000   120.0000 </r>
       <r>     3.4248     0.0000   120.0000 </r>
       <r>     3.6181     0.0000   120.0000 </r>
       <r>     3.8115     0.0000   120.0000 </r>
       <r>     4.0048     0.0000   120.0000 </r>
       <r>     4.1982     0.0000   120.0000 </r>
       <r>     4.3915     1.2260   120.2370 </r>
       <r>     4.5849     3.9460   121.0000 </r>
       <r>     4.7782     0.0000   121.0000 </r>
       <r>     4.9716     0.0000   121.0000 </r>
       <r>     5.1649     1.0282   121.1988 </r>
       <r>     5.3583    12.6168   123.6383 </r>
       <r>     5.5516     1.8599   124.0000 </r>
       <r>     5.7450     0.0000   124.0000 </r>
       <r>     5.9383     8.3782   125.6199 </r>
       <r>     6.1317    14.1528   128.3568 </r>
       <r>     6.3250     8.4901   130.0000 </r>
       <r>     6.5184     5.1108   130.9882 </r>
       <r>     6.7117    10.4921   133.0168 </r>
       <r>     6.9051    15.0070   135.9184 </r>
       <r>     7.0984     5.5765   136.9973 </r>
       <r>     7.2918     3.8430   137.7430 </r>
       <r>     7.4851     9.0219   139.4893 </r>
       <r>     7.6785    13.6031   142.1194 </r>
       <r>     7.8718    11.7564   144.3926 </r>
       <r>     8.0652    13.4304   146.9896 </r>
       <r>     8.2585    10.7429   149.0691 </r>
       <r>     8.4519    13.9874   151.7746 </r>
       <r>     8.6452    14.5630   154.5920 </r>
       <r>     8.8386    16.1814   157.7234 </r>
       <r>     9.0319    19.9377   161.5798 </r>
       <r>     9.2253    17.7109   165.0063 </r>
       <r>     9.4186    18.2375   168.5329 </r>
       <r>     9.6120    15.7112   171.5718 </r>
       <r>     9.8053    18.3222   175.1192 </r>
       <r>     9.9987     4.5487   176.0000 </r>
       <r>    10.1920     0.0000   176.0000 </r>
       <r>    10.3854     0.0000   176.0000 </r>
       <r>    10.5787     0.0000   176.0000 </r>
       <r>    10.7721     0.0000   176.0000 </r>
       <r>    10.9654     0.0000   176.0000 </r>
       <r>    11.1588     0.0000   176.0000 </r>
       <r>    11.3521     0.0000   176.0000 </r>
       <r>    11.5455     0.0000   176.0000 </r>
       <r>    11.7388     0.0000   176.0000 </r>
       <r>    11.9322     0.0000   176.0000 </r>
       <r>    12.1255     0.0000   176.0000 </r>
       <r>    12.3189     0.0000   176.0000 </r>
       <r>    12.5122     0.0000   176.0000 </r>
      </set>
     </set>
    </array>
   </total>
  </dos>
 </calculation>
 <structure name="finalpos" >
  <crystal>
   <varray name="basis" >
    <v>       9.68489897       0.00000000       0.00000000 </v>
    <v>       0.00000000       9.68489897       0.00000000 </v>
    <v>       0.00000000       0.00000000       9.68489897 </v>
   </varray>
   <i name="volume">    908.41706402 </i>
   <varray name="rec_basis" >
    <v>       0.10325353       0.00000000       0.00000000 </v>
    <v>       0.00000000       0.10325353       0.00000000 </v>
    <v>       0.00000000       0.00000000       0.10325353 </v>
   </varray>
  </crystal>
  <varray name="positions" >
   <v>       0.94699221       0.18497869       0.17349381 </v>
   <v>       0.99500774       0.82555920       0.80343884 </v>
   <v>       0.98793176       0.20297084       0.78846266 </v>
   <v>       0.03559276       0.82993284       0.16535771 </v>
   <v>       0.20385617       0.19077922       0.96678714 </v>
   <v>       0.30005895       0.72687231       0.00014015 </v>
   <v>       0.64596064       0.32221153       0.04246986 </v>
   <v>       0.68534876       0.68896698       0.98639638 </v>
   <v>       0.27791764       0.98201838       0.30971618 </v>
   <v>       0.31167924       0.05882859       0.66721910 </v>
   <v>       0.76940940       0.96915414       0.87738727 </v>
   <v>       0.70321430       0.02186172       0.30922923 </v>
   <v>       0.18277343       0.67868154       0.45443664 </v>
   <v>       0.15604525       0.32758988       0.52653226 </v>
   <v>       0.79529444       0.70439426       0.51721458 </v>
   <v>       0.80051703       0.28601003       0.48802748 </v>
   <v>       0.30961532       0.46216820       0.79687720 </v>
   <v>       0.30927412       0.52140879       0.18503756 </v>
   <v>       0.81447774       0.47829006       0.28969449 </v>
   <v>       0.91204543       0.55007386       0.72210960 </v>
   <v>       0.54618879       0.84452480       0.66683874 </v>
   <v>       0.48174979       0.79847705       0.28664226 </v>
   <v>       0.50693835       0.21559364       0.32923011 </v>
   <v>       0.59819346       0.55943933       0.76720276 </v>
   <v>       0.49547483       0.50286021       0.49553486 </v>
   <v>       0.49446900       0.02012339       0.99069817 </v>
   <v>       0.99281646       0.50064919       0.00089338 </v>
   <v>       0.99139428       0.99696176       0.49577239 </v>
   <v>       0.13226388       0.88043629       0.60349078 </v>
   <v>       0.09549812       0.13735158       0.37462368 </v>
   <v>       0.88584331       0.86967817       0.36239618 </v>
   <v>       0.84940424       0.08802426       0.62385941 </v>
   <v>       0.88479194       0.63770953       0.12016596 </v>
   <v>       0.85099682       0.38505620       0.89226057 </v>
   <v>       0.11503780       0.61409955       0.86516032 </v>
   <v>       0.11261789       0.37504265       0.11989362 </v>
   <v>       0.60243339       0.14954134       0.86756951 </v>
   <v>       0.62773908       0.89557951       0.10414057 </v>
   <v>       0.37448286       0.12937027       0.12739755 </v>
   <v>       0.37859201       0.90124366       0.85718636 </v>
   <v>       0.61978530       0.61629194       0.36529724 </v>
   <v>       0.60581281       0.37149670       0.61578813 </v>
   <v>       0.39014282       0.63763810       0.62359350 </v>
   <v>       0.35101098       0.39433812       0.38406191 </v>
   <v>       0.75775837       0.74590772       0.75548630 </v>
   <v>       0.73398060       0.25444378       0.25808048 </v>
   <v>       0.25353748       0.75318906       0.23280198 </v>
   <v>       0.21116914       0.25736913       0.74259721 </v>
   <v>       0.99481414       0.01114151       0.98317597 </v>
   <v>       0.96976050       0.50356047       0.49308616 </v>
   <v>       0.48823589       0.99233330       0.46110969 </v>
   <v>       0.48449725       0.52650124       0.98634134 </v>
  </varray>
 </structure>
</modeling>
