unknown system                          
           1
     9.684899    0.000000    0.000000
     0.000000    9.684899    0.000000
     0.000000    0.000000    9.684899
   Li   P    S    Cl
    24     4    20     4
Direct configuration=     1
   0.94699585  0.18498792  0.17348903
   0.99500966  0.82556352  0.80342822
   0.98793508  0.20296336  0.78846692
   0.03559454  0.82993381  0.16535760
   0.20386312  0.19079712  0.96679169
   0.30004569  0.72686467  0.00013913
   0.64595822  0.32220804  0.04246382
   0.68534884  0.68895521  0.98639886
   0.27791790  0.98201719  0.30971792
   0.31167725  0.05882570  0.66722302
   0.76941345  0.96914550  0.87742869
   0.70321736  0.02186098  0.30922459
   0.18275664  0.67868212  0.45443132
   0.15604291  0.32758694  0.52652943
   0.79528814  0.70439713  0.51721742
   0.80051178  0.28600421  0.48802738
   0.30961030  0.46217693  0.79686176
   0.30929401  0.52140860  0.18504510
   0.81448477  0.47828806  0.28969603
   0.91202389  0.55006886  0.72211368
   0.54619391  0.84454356  0.66684502
   0.48174676  0.79847489  0.28665376
   0.50693906  0.21558659  0.32921766
   0.59817530  0.55946488  0.76719721
   0.49547852  0.50287265  0.49552986
   0.49446358  0.02012382  0.99069850
   0.99282421  0.50065079  0.00089452
   0.99139650  0.99695563  0.49576612
   0.13227052  0.88044148  0.60348711
   0.09549309  0.13735507  0.37462428
   0.88584311  0.86967407  0.36239485
   0.84941256  0.08802403  0.62386038
   0.88479362  0.63770682  0.12016752
   0.85100239  0.38505195  0.89226826
   0.11503015  0.61409675  0.86514894
   0.11262386  0.37504926  0.11989467
   0.60243726  0.14952620  0.86757033
   0.62772943  0.89557091  0.10413934
   0.37447672  0.12936398  0.12740038
   0.37858709  0.90123124  0.85718847
   0.61978768  0.61628973  0.36529057
   0.60582319  0.37151051  0.61580056
   0.39014804  0.63764652  0.62358266
   0.35102356  0.39433366  0.38406677
   0.75775183  0.74590887  0.75549083
   0.73398335  0.25444075  0.25808446
   0.25353905  0.75318679  0.23279269
   0.21116801  0.25737053  0.74259565
   0.99481861  0.01114032  0.98317495
   0.96975829  0.50356186  0.49309058
   0.48824245  0.99233554  0.46110596
   0.48449280  0.52649900  0.98633081
Direct configuration=     2
   0.94699537  0.18498688  0.17348953
   0.99500933  0.82556306  0.80342940
   0.98793460  0.20296425  0.78846637
   0.03559425  0.82993366  0.16535755
   0.20386229  0.19079513  0.96679102
   0.30004718  0.72686554  0.00013911
   0.64595863  0.32220845  0.04246447
   0.68534885  0.68895655  0.98639848
   0.27791786  0.98201729  0.30971769
   0.31167743  0.05882601  0.66722268
   0.76941303  0.96914634  0.87742401
   0.70321700  0.02186109  0.30922506
   0.18275848  0.67868211  0.45443189
   0.15604313  0.32758728  0.52652984
   0.79528887  0.70439676  0.51721722
   0.80051220  0.28600485  0.48802766
   0.30961088  0.46217583  0.79686344
   0.30929172  0.52140862  0.18504418
   0.81448400  0.47828816  0.28969586
   0.91202609  0.55006930  0.72211330
   0.54619335  0.84454150  0.66684439
   0.48174705  0.79847527  0.28665236
   0.50693911  0.21558741  0.32921914
   0.59817744  0.55946173  0.76719764
   0.49548051  0.50286740  0.49553346
   0.49446346  0.02012247  0.99069816
   0.99282194  0.50065049  0.00089364
   0.99139490  0.99695723  0.49576814
   0.13227003  0.88044055  0.60348754
   0.09549392  0.13735486  0.37462379
   0.88584311  0.86967424  0.36239465
   0.84941262  0.08802321  0.62385924
   0.88479371  0.63770713  0.12016725
   0.85100238  0.38505304  0.89226793
   0.11503125  0.61409728  0.86515026
   0.11262375  0.37504808  0.11989513
   0.60243691  0.14952850  0.86756986
   0.62773055  0.89557201  0.10413956
   0.37447733  0.12936491  0.12740011
   0.37858813  0.90123344  0.85718859
   0.61978818  0.61629081  0.36529023
   0.60581976  0.37151178  0.61579671
   0.39014674  0.63764635  0.62358437
   0.35102144  0.39433408  0.38406580
   0.75775266  0.74590887  0.75549029
   0.73398302  0.25444114  0.25808380
   0.25353867  0.75318696  0.23279397
   0.21116824  0.25737039  0.74259579
   0.99481824  0.01114027  0.98317559
   0.96975931  0.50356184  0.49308933
   0.48824172  0.99233536  0.46110721
   0.48449326  0.52649879  0.98633261
Direct configuration=     3
   0.94699515  0.18498640  0.17348976
   0.99500918  0.82556285  0.80342994
   0.98793437  0.20296465  0.78846612
   0.03559412  0.82993360  0.16535752
   0.20386191  0.19079422  0.96679071
   0.30004787  0.72686593  0.00013910
   0.64595882  0.32220864  0.04246477
   0.68534886  0.68895717  0.98639830
   0.27791784  0.98201733  0.30971758
   0.31167751  0.05882616  0.66722253
   0.76941284  0.96914673  0.87742186
   0.70321684  0.02186113  0.30922528
   0.18275932  0.67868210  0.45443215
   0.15604323  0.32758743  0.52653003
   0.79528920  0.70439660  0.51721714
   0.80051239  0.28600514  0.48802779
   0.30961115  0.46217532  0.79686421
   0.30929067  0.52140862  0.18504376
   0.81448365  0.47828821  0.28969579
   0.91202710  0.55006950  0.72211313
   0.54619309  0.84454055  0.66684410
   0.48174718  0.79847545  0.28665171
   0.50693913  0.21558779  0.32921982
   0.59817843  0.55946029  0.76719783
   0.49548142  0.50286498  0.49553511
   0.49446340  0.02012185  0.99069801
   0.99282090  0.50065036  0.00089323
   0.99139416  0.99695796  0.49576906
   0.13226980  0.88044013  0.60348773
   0.09549430  0.13735476  0.37462356
   0.88584311  0.86967432  0.36239456
   0.84941264  0.08802283  0.62385871
   0.88479375  0.63770727  0.12016712
   0.85100238  0.38505354  0.89226778
   0.11503176  0.61409752  0.86515086
   0.11262370  0.37504754  0.11989534
   0.60243674  0.14952956  0.86756964
   0.62773106  0.89557251  0.10413966
   0.37447762  0.12936533  0.12739998
   0.37858860  0.90123444  0.85718864
   0.61978841  0.61629131  0.36529007
   0.60581819  0.37151236  0.61579495
   0.39014614  0.63764626  0.62358516
   0.35102047  0.39433427  0.38406536
   0.75775304  0.74590887  0.75549004
   0.73398287  0.25444131  0.25808350
   0.25353850  0.75318704  0.23279456
   0.21116835  0.25737033  0.74259585
   0.99481808  0.01114025  0.98317589
   0.96975977  0.50356183  0.49308876
   0.48824139  0.99233527  0.46110778
   0.48449348  0.52649869  0.98633344
Direct configuration=     4
   0.94699471  0.18498545  0.17349021
   0.99500888  0.82556242  0.80343102
   0.98793393  0.20296546  0.78846562
   0.03559385  0.82993346  0.16535747
   0.20386115  0.19079239  0.96679009
   0.30004924  0.72686673  0.00013908
   0.64595920  0.32220902  0.04246537
   0.68534887  0.68895840  0.98639796
   0.27791780  0.98201741  0.30971737
   0.31167767  0.05882645  0.66722222
   0.76941246  0.96914751  0.87741756
   0.70321651  0.02186123  0.30922571
   0.18276101  0.67868209  0.45443267
   0.15604342  0.32758774  0.52653041
   0.79528987  0.70439626  0.51721696
   0.80051278  0.28600572  0.48802804
   0.30961169  0.46217431  0.79686575
   0.30928857  0.52140863  0.18504291
   0.81448294  0.47828830  0.28969563
   0.91202912  0.55006990  0.72211279
   0.54619258  0.84453866  0.66684353
   0.48174745  0.79847580  0.28665043
   0.50693916  0.21558854  0.32922118
   0.59818039  0.55945740  0.76719822
   0.49548324  0.50286016  0.49553842
   0.49446329  0.02012061  0.99069770
   0.99281882  0.50065009  0.00089243
   0.99139270  0.99695944  0.49577091
   0.13226935  0.88043927  0.60348812
   0.09549506  0.13735457  0.37462310
   0.88584311  0.86967448  0.36239437
   0.84941270  0.08802208  0.62385766
   0.88479384  0.63770755  0.12016687
   0.85100238  0.38505454  0.89226748
   0.11503276  0.61409800  0.86515206
   0.11262361  0.37504646  0.11989577
   0.60243642  0.14953168  0.86756921
   0.62773209  0.89557352  0.10413986
   0.37447818  0.12936618  0.12739973
   0.37858955  0.90123646  0.85718875
   0.61978887  0.61629230  0.36528976
   0.60581505  0.37151352  0.61579142
   0.39014495  0.63764610  0.62358673
   0.35101853  0.39433465  0.38406447
   0.75775379  0.74590887  0.75548955
   0.73398257  0.25444167  0.25808289
   0.25353816  0.75318720  0.23279573
   0.21116856  0.25737020  0.74259597
   0.99481774  0.01114020  0.98317648
   0.96976071  0.50356181  0.49308762
   0.48824071  0.99233511  0.46110892
   0.48449390  0.52649850  0.98633508
Direct configuration=     5
   0.94699406  0.18498371  0.17349114
   0.99500858  0.82556159  0.80343303
   0.98793337  0.20296685  0.78846485
   0.03559357  0.82993330  0.16535753
   0.20385986  0.19078899  0.96678933
   0.30005174  0.72686817  0.00013936
   0.64595957  0.32220967  0.04246653
   0.68534884  0.68896061  0.98639755
   0.27791776  0.98201766  0.30971706
   0.31167807  0.05882700  0.66722142
   0.76941167  0.96914922  0.87740975
   0.70321594  0.02186136  0.30922662
   0.18276421  0.67868195  0.45443369
   0.15604390  0.32758829  0.52653089
   0.79529105  0.70439574  0.51721635
   0.80051387  0.28600683  0.48802790
   0.30961263  0.46217274  0.79686870
   0.30928484  0.52140867  0.18504153
   0.81448160  0.47828875  0.28969534
   0.91203333  0.55007092  0.72211197
   0.54619160  0.84453509  0.66684230
   0.48174805  0.79847612  0.28664832
   0.50693896  0.21558986  0.32922348
   0.59818376  0.55945275  0.76719939
   0.49548107  0.50286017  0.49553750
   0.49446476  0.02012133  0.99069782
   0.99281821  0.50064985  0.00089267
   0.99139310  0.99696004  0.49577130
   0.13226794  0.88043851  0.60348881
   0.09549585  0.13735380  0.37462325
   0.88584316  0.86967543  0.36239484
   0.84941052  0.08802264  0.62385811
   0.88479335  0.63770806  0.12016664
   0.85100095  0.38505497  0.89226570
   0.11503406  0.61409840  0.86515419
   0.11262213  0.37504548  0.11989522
   0.60243563  0.14953417  0.86756929
   0.62773389  0.89557506  0.10414004
   0.37447939  0.12936724  0.12739917
   0.37859019  0.90123832  0.85718813
   0.61978795  0.61629220  0.36529169
   0.60581447  0.37150919  0.61579057
   0.39014440  0.63764404  0.62358848
   0.35101658  0.39433555  0.38406381
   0.75775497  0.74590857  0.75548871
   0.73398206  0.25444221  0.25808227
   0.25353798  0.75318768  0.23279734
   0.21116871  0.25736993  0.74259629
   0.99481681  0.01114054  0.98317635
   0.96976065  0.50356147  0.49308724
   0.48823947  0.99233464  0.46110912
   0.48449476  0.52649921  0.98633670
Direct configuration=     6
   0.94699344  0.18498204  0.17349203
   0.99500830  0.82556080  0.80343497
   0.98793283  0.20296818  0.78846412
   0.03559330  0.82993315  0.16535759
   0.20385863  0.19078574  0.96678860
   0.30005414  0.72686955  0.00013962
   0.64595993  0.32221029  0.04246764
   0.68534881  0.68896273  0.98639716
   0.27791772  0.98201790  0.30971677
   0.31167846  0.05882753  0.66722064
   0.76941092  0.96915086  0.87740226
   0.70321539  0.02186148  0.30922749
   0.18276728  0.67868181  0.45443468
   0.15604435  0.32758882  0.52653135
   0.79529218  0.70439525  0.51721576
   0.80051492  0.28600789  0.48802776
   0.30961352  0.46217123  0.79687154
   0.30928127  0.52140871  0.18504021
   0.81448031  0.47828919  0.28969506
   0.91203736  0.55007190  0.72211118
   0.54619066  0.84453166  0.66684111
   0.48174863  0.79847643  0.28664630
   0.50693876  0.21559112  0.32922569
   0.59818699  0.55944827  0.76720051
   0.49547899  0.50286019  0.49553662
   0.49446617  0.02012202  0.99069794
   0.99281763  0.50064963  0.00089291
   0.99139350  0.99696061  0.49577166
   0.13226659  0.88043777  0.60348947
   0.09549661  0.13735306  0.37462340
   0.88584321  0.86967634  0.36239529
   0.84940842  0.08802318  0.62385854
   0.88479288  0.63770855  0.12016641
   0.85099957  0.38505538  0.89226399
   0.11503531  0.61409878  0.86515623
   0.11262072  0.37504454  0.11989468
   0.60243488  0.14953656  0.86756937
   0.62773562  0.89557655  0.10414022
   0.37448055  0.12936825  0.12739863
   0.37859080  0.90124010  0.85718754
   0.61978707  0.61629211  0.36529354
   0.60581391  0.37150502  0.61578976
   0.39014387  0.63764206  0.62359015
   0.35101471  0.39433640  0.38406318
   0.75775610  0.74590829  0.75548791
   0.73398158  0.25444273  0.25808168
   0.25353781  0.75318814  0.23279889
   0.21116885  0.25736966  0.74259660
   0.99481592  0.01114087  0.98317622
   0.96976060  0.50356113  0.49308688
   0.48823827  0.99233419  0.46110931
   0.48449559  0.52649989  0.98633824
Direct configuration=     7
   0.94699221  0.18497869  0.17349381
   0.99500774  0.82555920  0.80343884
   0.98793176  0.20297084  0.78846266
   0.03559276  0.82993284  0.16535771
   0.20385617  0.19077922  0.96678714
   0.30005895  0.72687231  0.00014015
   0.64596064  0.32221153  0.04246986
   0.68534876  0.68896698  0.98639638
   0.27791764  0.98201838  0.30971618
   0.31167924  0.05882859  0.66721910
   0.76940940  0.96915414  0.87738727
   0.70321430  0.02186172  0.30922923
   0.18277343  0.67868154  0.45443664
   0.15604525  0.32758988  0.52653226
   0.79529444  0.70439426  0.51721458
   0.80051703  0.28601003  0.48802748
   0.30961532  0.46216820  0.79687720
   0.30927412  0.52140879  0.18503756
   0.81447774  0.47829006  0.28969449
   0.91204543  0.55007386  0.72210960
   0.54618879  0.84452480  0.66683874
   0.48174979  0.79847705  0.28664226
   0.50693835  0.21559364  0.32923011
   0.59819346  0.55943933  0.76720276
   0.49547483  0.50286021  0.49553486
   0.49446900  0.02012339  0.99069817
   0.99281646  0.50064919  0.00089338
   0.99139428  0.99696176  0.49577239
   0.13226388  0.88043629  0.60349078
   0.09549812  0.13735158  0.37462368
   0.88584331  0.86967817  0.36239618
   0.84940424  0.08802426  0.62385941
   0.88479194  0.63770953  0.12016596
   0.85099682  0.38505620  0.89226057
   0.11503780  0.61409955  0.86516032
   0.11261789  0.37504265  0.11989362
   0.60243339  0.14954134  0.86756951
   0.62773908  0.89557951  0.10414057
   0.37448286  0.12937027  0.12739755
   0.37859201  0.90124366  0.85718636
   0.61978530  0.61629194  0.36529724
   0.60581281  0.37149670  0.61578813
   0.39014282  0.63763810  0.62359350
   0.35101098  0.39433812  0.38406191
   0.75775837  0.74590772  0.75548630
   0.73398060  0.25444378  0.25808048
   0.25353748  0.75318906  0.23280198
   0.21116914  0.25736913  0.74259721
   0.99481414  0.01114151  0.98317597
   0.96976050  0.50356047  0.49308616
   0.48823589  0.99233330  0.46110969
   0.48449725  0.52650124  0.98634134
