  52  52   0  16
  0.1733586E+02  0.9660129E-09  0.9660129E-09  0.9660129E-09  0.2000000E-15
  1.000000000000000E-004
  CAR 
 unknown system                          
     12.61172319    -45.09255867  301      1.88834414      1.00000000
    -45.093  0.0000E+00  0.0000E+00  0.0000E+00  0.0000E+00
    -44.900  0.0000E+00  0.0000E+00  0.0000E+00  0.0000E+00
    -44.708  0.0000E+00  0.0000E+00  0.0000E+00  0.0000E+00
    -44.516  0.0000E+00  0.0000E+00  0.0000E+00  0.0000E+00
    -44.323  0.0000E+00  0.0000E+00  0.0000E+00  0.0000E+00
    -44.131  0.0000E+00  0.0000E+00  0.0000E+00  0.0000E+00
    -43.938  0.0000E+00  0.0000E+00  0.0000E+00  0.0000E+00
    -43.746  0.0000E+00  0.0000E+00  0.0000E+00  0.0000E+00
    -43.554  0.0000E+00  0.0000E+00  0.0000E+00  0.0000E+00
    -43.361  0.0000E+00  0.0000E+00  0.0000E+00  0.0000E+00
    -43.169  0.0000E+00  0.0000E+00  0.0000E+00  0.0000E+00
    -42.977  0.0000E+00  0.0000E+00  0.0000E+00  0.0000E+00
    -42.784  0.0000E+00  0.0000E+00  0.0000E+00  0.0000E+00
    -42.592  0.6279E-10  0.6279E-10  0.1208E-10  0.1208E-10
    -42.400  0.3459E-01  0.3459E-01  0.6653E-02  0.6653E-02
    -42.207  0.9017E-01  0.9017E-01  0.2400E-01  0.2400E-01
    -42.015  0.0000E+00  0.0000E+00  0.2400E-01  0.2400E-01
    -41.823  0.0000E+00  0.0000E+00  0.2400E-01  0.2400E-01
    -41.630  0.0000E+00  0.0000E+00  0.2400E-01  0.2400E-01
    -41.438  0.0000E+00  0.0000E+00  0.2400E-01  0.2400E-01
    -41.246  0.0000E+00  0.0000E+00  0.2400E-01  0.2400E-01
    -41.053  0.0000E+00  0.0000E+00  0.2400E-01  0.2400E-01
    -40.861  0.0000E+00  0.0000E+00  0.2400E-01  0.2400E-01
    -40.669  0.0000E+00  0.0000E+00  0.2400E-01  0.2400E-01
    -40.476  0.0000E+00  0.0000E+00  0.2400E-01  0.2400E-01
    -40.284  0.0000E+00  0.0000E+00  0.2400E-01  0.2400E-01
    -40.092  0.0000E+00  0.0000E+00  0.2400E-01  0.2400E-01
    -39.899  0.0000E+00  0.0000E+00  0.2400E-01  0.2400E-01
    -39.707  0.0000E+00  0.0000E+00  0.2400E-01  0.2400E-01
    -39.514  0.0000E+00  0.0000E+00  0.2400E-01  0.2400E-01
    -39.322  0.0000E+00  0.0000E+00  0.2400E-01  0.2400E-01
    -39.130  0.0000E+00  0.0000E+00  0.2400E-01  0.2400E-01
    -38.937  0.0000E+00  0.0000E+00  0.2400E-01  0.2400E-01
    -38.745  0.0000E+00  0.0000E+00  0.2400E-01  0.2400E-01
    -38.553  0.0000E+00  0.0000E+00  0.2400E-01  0.2400E-01
    -38.360  0.0000E+00  0.0000E+00  0.2400E-01  0.2400E-01
    -38.168  0.0000E+00  0.0000E+00  0.2400E-01  0.2400E-01
    -37.976  0.0000E+00  0.0000E+00  0.2400E-01  0.2400E-01
    -37.783  0.0000E+00  0.0000E+00  0.2400E-01  0.2400E-01
    -37.591  0.0000E+00  0.0000E+00  0.2400E-01  0.2400E-01
    -37.399  0.0000E+00  0.0000E+00  0.2400E-01  0.2400E-01
    -37.206  0.0000E+00  0.0000E+00  0.2400E-01  0.2400E-01
    -37.014  0.0000E+00  0.0000E+00  0.2400E-01  0.2400E-01
    -36.822  0.0000E+00  0.0000E+00  0.2400E-01  0.2400E-01
    -36.629  0.0000E+00  0.0000E+00  0.2400E-01  0.2400E-01
    -36.437  0.0000E+00  0.0000E+00  0.2400E-01  0.2400E-01
    -36.245  0.0000E+00  0.0000E+00  0.2400E-01  0.2400E-01
    -36.052  0.0000E+00  0.0000E+00  0.2400E-01  0.2400E-01
    -35.860  0.0000E+00  0.0000E+00  0.2400E-01  0.2400E-01
    -35.668  0.0000E+00  0.0000E+00  0.2400E-01  0.2400E-01
    -35.475  0.0000E+00  0.0000E+00  0.2400E-01  0.2400E-01
    -35.283  0.0000E+00  0.0000E+00  0.2400E-01  0.2400E-01
    -35.090  0.0000E+00  0.0000E+00  0.2400E-01  0.2400E-01
    -34.898  0.0000E+00  0.0000E+00  0.2400E-01  0.2400E-01
    -34.706  0.0000E+00  0.0000E+00  0.2400E-01  0.2400E-01
    -34.513  0.0000E+00  0.0000E+00  0.2400E-01  0.2400E-01
    -34.321  0.0000E+00  0.0000E+00  0.2400E-01  0.2400E-01
    -34.129  0.0000E+00  0.0000E+00  0.2400E-01  0.2400E-01
    -33.936  0.0000E+00  0.0000E+00  0.2400E-01  0.2400E-01
    -33.744  0.0000E+00  0.0000E+00  0.2400E-01  0.2400E-01
    -33.552  0.0000E+00  0.0000E+00  0.2400E-01  0.2400E-01
    -33.359  0.0000E+00  0.0000E+00  0.2400E-01  0.2400E-01
    -33.167  0.0000E+00  0.0000E+00  0.2400E-01  0.2400E-01
    -32.975  0.0000E+00  0.0000E+00  0.2400E-01  0.2400E-01
    -32.782  0.0000E+00  0.0000E+00  0.2400E-01  0.2400E-01
    -32.590  0.0000E+00  0.0000E+00  0.2400E-01  0.2400E-01
    -32.398  0.0000E+00  0.0000E+00  0.2400E-01  0.2400E-01
    -32.205  0.0000E+00  0.0000E+00  0.2400E-01  0.2400E-01
    -32.013  0.0000E+00  0.0000E+00  0.2400E-01  0.2400E-01
    -31.821  0.0000E+00  0.0000E+00  0.2400E-01  0.2400E-01
    -31.628  0.0000E+00  0.0000E+00  0.2400E-01  0.2400E-01
    -31.436  0.0000E+00  0.0000E+00  0.2400E-01  0.2400E-01
    -31.244  0.0000E+00  0.0000E+00  0.2400E-01  0.2400E-01
    -31.051  0.0000E+00  0.0000E+00  0.2400E-01  0.2400E-01
    -30.859  0.0000E+00  0.0000E+00  0.2400E-01  0.2400E-01
    -30.666  0.0000E+00  0.0000E+00  0.2400E-01  0.2400E-01
    -30.474  0.0000E+00  0.0000E+00  0.2400E-01  0.2400E-01
    -30.282  0.0000E+00  0.0000E+00  0.2400E-01  0.2400E-01
    -30.089  0.0000E+00  0.0000E+00  0.2400E-01  0.2400E-01
    -29.897  0.0000E+00  0.0000E+00  0.2400E-01  0.2400E-01
    -29.705  0.0000E+00  0.0000E+00  0.2400E-01  0.2400E-01
    -29.512  0.0000E+00  0.0000E+00  0.2400E-01  0.2400E-01
    -29.320  0.0000E+00  0.0000E+00  0.2400E-01  0.2400E-01
    -29.128  0.0000E+00  0.0000E+00  0.2400E-01  0.2400E-01
    -28.935  0.0000E+00  0.0000E+00  0.2400E-01  0.2400E-01
    -28.743  0.0000E+00  0.0000E+00  0.2400E-01  0.2400E-01
    -28.551  0.0000E+00  0.0000E+00  0.2400E-01  0.2400E-01
    -28.358  0.0000E+00  0.0000E+00  0.2400E-01  0.2400E-01
    -28.166  0.0000E+00  0.0000E+00  0.2400E-01  0.2400E-01
    -27.974  0.0000E+00  0.0000E+00  0.2400E-01  0.2400E-01
    -27.781  0.0000E+00  0.0000E+00  0.2400E-01  0.2400E-01
    -27.589  0.0000E+00  0.0000E+00  0.2400E-01  0.2400E-01
    -27.397  0.0000E+00  0.0000E+00  0.2400E-01  0.2400E-01
    -27.204  0.0000E+00  0.0000E+00  0.2400E-01  0.2400E-01
    -27.012  0.0000E+00  0.0000E+00  0.2400E-01  0.2400E-01
    -26.820  0.0000E+00  0.0000E+00  0.2400E-01  0.2400E-01
    -26.627  0.0000E+00  0.0000E+00  0.2400E-01  0.2400E-01
    -26.435  0.0000E+00  0.0000E+00  0.2400E-01  0.2400E-01
    -26.242  0.0000E+00  0.0000E+00  0.2400E-01  0.2400E-01
    -26.050  0.0000E+00  0.0000E+00  0.2400E-01  0.2400E-01
    -25.858  0.0000E+00  0.0000E+00  0.2400E-01  0.2400E-01
    -25.665  0.0000E+00  0.0000E+00  0.2400E-01  0.2400E-01
    -25.473  0.0000E+00  0.0000E+00  0.2400E-01  0.2400E-01
    -25.281  0.0000E+00  0.0000E+00  0.2400E-01  0.2400E-01
    -25.088  0.0000E+00  0.0000E+00  0.2400E-01  0.2400E-01
    -24.896  0.0000E+00  0.0000E+00  0.2400E-01  0.2400E-01
    -24.704  0.0000E+00  0.0000E+00  0.2400E-01  0.2400E-01
    -24.511  0.0000E+00  0.0000E+00  0.2400E-01  0.2400E-01
    -24.319  0.0000E+00  0.0000E+00  0.2400E-01  0.2400E-01
    -24.127  0.0000E+00  0.0000E+00  0.2400E-01  0.2400E-01
    -23.934  0.0000E+00  0.0000E+00  0.2400E-01  0.2400E-01
    -23.742  0.0000E+00  0.0000E+00  0.2400E-01  0.2400E-01
    -23.550  0.0000E+00  0.0000E+00  0.2400E-01  0.2400E-01
    -23.357  0.0000E+00  0.0000E+00  0.2400E-01  0.2400E-01
    -23.165  0.0000E+00  0.0000E+00  0.2400E-01  0.2400E-01
    -22.973  0.0000E+00  0.0000E+00  0.2400E-01  0.2400E-01
    -22.780  0.0000E+00  0.0000E+00  0.2400E-01  0.2400E-01
    -22.588  0.0000E+00  0.0000E+00  0.2400E-01  0.2400E-01
    -22.396  0.0000E+00  0.0000E+00  0.2400E-01  0.2400E-01
    -22.203  0.0000E+00  0.0000E+00  0.2400E-01  0.2400E-01
    -22.011  0.0000E+00  0.0000E+00  0.2400E-01  0.2400E-01
    -21.818  0.0000E+00  0.0000E+00  0.2400E-01  0.2400E-01
    -21.626  0.0000E+00  0.0000E+00  0.2400E-01  0.2400E-01
    -21.434  0.0000E+00  0.0000E+00  0.2400E-01  0.2400E-01
    -21.241  0.0000E+00  0.0000E+00  0.2400E-01  0.2400E-01
    -21.049  0.0000E+00  0.0000E+00  0.2400E-01  0.2400E-01
    -20.857  0.0000E+00  0.0000E+00  0.2400E-01  0.2400E-01
    -20.664  0.0000E+00  0.0000E+00  0.2400E-01  0.2400E-01
    -20.472  0.0000E+00  0.0000E+00  0.2400E-01  0.2400E-01
    -20.280  0.0000E+00  0.0000E+00  0.2400E-01  0.2400E-01
    -20.087  0.0000E+00  0.0000E+00  0.2400E-01  0.2400E-01
    -19.895  0.0000E+00  0.0000E+00  0.2400E-01  0.2400E-01
    -19.703  0.0000E+00  0.0000E+00  0.2400E-01  0.2400E-01
    -19.510  0.0000E+00  0.0000E+00  0.2400E-01  0.2400E-01
    -19.318  0.0000E+00  0.0000E+00  0.2400E-01  0.2400E-01
    -19.126  0.0000E+00  0.0000E+00  0.2400E-01  0.2400E-01
    -18.933  0.0000E+00  0.0000E+00  0.2400E-01  0.2400E-01
    -18.741  0.0000E+00  0.0000E+00  0.2400E-01  0.2400E-01
    -18.549  0.0000E+00  0.0000E+00  0.2400E-01  0.2400E-01
    -18.356  0.0000E+00  0.0000E+00  0.2400E-01  0.2400E-01
    -18.164  0.0000E+00  0.0000E+00  0.2400E-01  0.2400E-01
    -17.972  0.0000E+00  0.0000E+00  0.2400E-01  0.2400E-01
    -17.779  0.0000E+00  0.0000E+00  0.2400E-01  0.2400E-01
    -17.587  0.0000E+00  0.0000E+00  0.2400E-01  0.2400E-01
    -17.395  0.0000E+00  0.0000E+00  0.2400E-01  0.2400E-01
    -17.202  0.0000E+00  0.0000E+00  0.2400E-01  0.2400E-01
    -17.010  0.0000E+00  0.0000E+00  0.2400E-01  0.2400E-01
    -16.817  0.0000E+00  0.0000E+00  0.2400E-01  0.2400E-01
    -16.625  0.0000E+00  0.0000E+00  0.2400E-01  0.2400E-01
    -16.433  0.0000E+00  0.0000E+00  0.2400E-01  0.2400E-01
    -16.240  0.0000E+00  0.0000E+00  0.2400E-01  0.2400E-01
    -16.048  0.0000E+00  0.0000E+00  0.2400E-01  0.2400E-01
    -15.856  0.0000E+00  0.0000E+00  0.2400E-01  0.2400E-01
    -15.663  0.0000E+00  0.0000E+00  0.2400E-01  0.2400E-01
    -15.471  0.0000E+00  0.0000E+00  0.2400E-01  0.2400E-01
    -15.279  0.0000E+00  0.0000E+00  0.2400E-01  0.2400E-01
    -15.086  0.0000E+00  0.0000E+00  0.2400E-01  0.2400E-01
    -14.894  0.0000E+00  0.0000E+00  0.2400E-01  0.2400E-01
    -14.702  0.0000E+00  0.0000E+00  0.2400E-01  0.2400E-01
    -14.509  0.0000E+00  0.0000E+00  0.2400E-01  0.2400E-01
    -14.317  0.0000E+00  0.0000E+00  0.2400E-01  0.2400E-01
    -14.125  0.0000E+00  0.0000E+00  0.2400E-01  0.2400E-01
    -13.932  0.0000E+00  0.0000E+00  0.2400E-01  0.2400E-01
    -13.740  0.0000E+00  0.0000E+00  0.2400E-01  0.2400E-01
    -13.548  0.0000E+00  0.0000E+00  0.2400E-01  0.2400E-01
    -13.355  0.0000E+00  0.0000E+00  0.2400E-01  0.2400E-01
    -13.163  0.1150E-13  0.1150E-13  0.2400E-01  0.2400E-01
    -12.971  0.1335E-01  0.1335E-01  0.2657E-01  0.2657E-01
    -12.778  0.7450E-02  0.7450E-02  0.2800E-01  0.2800E-01
    -12.586  0.2077E-01  0.2077E-01  0.3199E-01  0.3199E-01
    -12.393  0.0000E+00  0.0000E+00  0.3200E-01  0.3200E-01
    -12.201  0.0000E+00  0.0000E+00  0.3200E-01  0.3200E-01
    -12.009  0.0000E+00  0.0000E+00  0.3200E-01  0.3200E-01
    -11.816  0.0000E+00  0.0000E+00  0.3200E-01  0.3200E-01
    -11.624  0.0000E+00  0.0000E+00  0.3200E-01  0.3200E-01
    -11.432  0.0000E+00  0.0000E+00  0.3200E-01  0.3200E-01
    -11.239  0.0000E+00  0.0000E+00  0.3200E-01  0.3200E-01
    -11.047  0.0000E+00  0.0000E+00  0.3200E-01  0.3200E-01
    -10.855  0.0000E+00  0.0000E+00  0.3200E-01  0.3200E-01
    -10.662  0.0000E+00  0.0000E+00  0.3200E-01  0.3200E-01
    -10.470  0.0000E+00  0.0000E+00  0.3200E-01  0.3200E-01
    -10.278  0.1382E-02  0.1382E-02  0.3227E-01  0.3227E-01
    -10.085  0.1818E-01  0.1818E-01  0.3576E-01  0.3576E-01
     -9.893  0.3881E-01  0.3881E-01  0.4323E-01  0.4323E-01
     -9.701  0.3998E-02  0.3998E-02  0.4400E-01  0.4400E-01
     -9.508  0.0000E+00  0.0000E+00  0.4400E-01  0.4400E-01
     -9.316  0.0000E+00  0.0000E+00  0.4400E-01  0.4400E-01
     -9.124  0.0000E+00  0.0000E+00  0.4400E-01  0.4400E-01
     -8.931  0.0000E+00  0.0000E+00  0.4400E-01  0.4400E-01
     -8.739  0.0000E+00  0.0000E+00  0.4400E-01  0.4400E-01
     -8.547  0.0000E+00  0.0000E+00  0.4400E-01  0.4400E-01
     -8.354  0.3087E-03  0.3087E-03  0.4406E-01  0.4406E-01
     -8.162  0.2049E-01  0.2049E-01  0.4800E-01  0.4800E-01
     -7.969  0.0000E+00  0.0000E+00  0.4800E-01  0.4800E-01
     -7.777  0.0000E+00  0.0000E+00  0.4800E-01  0.4800E-01
     -7.585  0.0000E+00  0.0000E+00  0.4800E-01  0.4800E-01
     -7.392  0.0000E+00  0.0000E+00  0.4800E-01  0.4800E-01
     -7.200  0.0000E+00  0.0000E+00  0.4800E-01  0.4800E-01
     -7.008  0.0000E+00  0.0000E+00  0.4800E-01  0.4800E-01
     -6.815  0.0000E+00  0.0000E+00  0.4800E-01  0.4800E-01
     -6.623  0.0000E+00  0.0000E+00  0.4800E-01  0.4800E-01
     -6.431  0.0000E+00  0.0000E+00  0.4800E-01  0.4800E-01
     -6.238  0.2801E-11  0.2801E-11  0.4800E-01  0.4800E-01
     -6.046  0.5188E-02  0.5188E-02  0.4900E-01  0.4900E-01
     -5.854  0.1269E-11  0.1269E-11  0.4900E-01  0.4900E-01
     -5.661  0.6069E-02  0.6069E-02  0.5017E-01  0.5017E-01
     -5.469  0.9524E-02  0.9524E-02  0.5200E-01  0.5200E-01
     -5.277  0.0000E+00  0.0000E+00  0.5200E-01  0.5200E-01
     -5.084  0.0000E+00  0.0000E+00  0.5200E-01  0.5200E-01
     -4.892  0.0000E+00  0.0000E+00  0.5200E-01  0.5200E-01
     -4.700  0.0000E+00  0.0000E+00  0.5200E-01  0.5200E-01
     -4.507  0.0000E+00  0.0000E+00  0.5200E-01  0.5200E-01
     -4.315  0.0000E+00  0.0000E+00  0.5200E-01  0.5200E-01
     -4.123  0.0000E+00  0.0000E+00  0.5200E-01  0.5200E-01
     -3.930  0.0000E+00  0.0000E+00  0.5200E-01  0.5200E-01
     -3.738  0.0000E+00  0.0000E+00  0.5200E-01  0.5200E-01
     -3.545  0.0000E+00  0.0000E+00  0.5200E-01  0.5200E-01
     -3.353  0.4671E-13  0.4672E-13  0.5200E-01  0.5200E-01
     -3.161  0.1091E-01  0.1091E-01  0.5410E-01  0.5410E-01
     -2.968  0.4636E-02  0.4636E-02  0.5500E-01  0.5500E-01
     -2.776  0.5188E-02  0.5188E-02  0.5600E-01  0.5600E-01
     -2.584  0.1077E-01  0.1077E-01  0.5807E-01  0.5807E-01
     -2.391  0.1387E-01  0.1387E-01  0.6074E-01  0.6074E-01
     -2.199  0.1693E-01  0.1693E-01  0.6400E-01  0.6400E-01
     -2.007  0.0000E+00  0.0000E+00  0.6400E-01  0.6400E-01
     -1.814  0.0000E+00  0.0000E+00  0.6400E-01  0.6400E-01
     -1.622  0.1606E-12  0.1606E-12  0.6400E-01  0.6400E-01
     -1.430  0.1648E-01  0.1648E-01  0.6717E-01  0.6717E-01
     -1.237  0.3089E-01  0.3089E-01  0.7312E-01  0.7312E-01
     -1.045  0.1499E-01  0.1499E-01  0.7600E-01  0.7600E-01
     -0.853  0.0000E+00  0.0000E+00  0.7600E-01  0.7600E-01
     -0.660  0.3350E-09  0.3350E-09  0.7600E-01  0.7600E-01
     -0.468  0.1139E-01  0.1139E-01  0.7819E-01  0.7819E-01
     -0.276  0.9953E-02  0.9953E-02  0.8011E-01  0.8011E-01
     -0.083  0.1553E-01  0.1553E-01  0.8309E-01  0.8309E-01
      0.109  0.3080E-01  0.3080E-01  0.8902E-01  0.8902E-01
      0.301  0.2302E-01  0.2302E-01  0.9345E-01  0.9345E-01
      0.494  0.1325E-01  0.1325E-01  0.9600E-01  0.9600E-01
      0.686  0.1198E-05  0.1198E-05  0.9600E-01  0.9600E-01
      0.879  0.1492E-01  0.1492E-01  0.9887E-01  0.9887E-01
      1.071  0.2463E-01  0.2463E-01  0.1036E+00  0.1036E+00
      1.263  0.2232E-01  0.2232E-01  0.1079E+00  0.1079E+00
      1.456  0.2235E-01  0.2235E-01  0.1122E+00  0.1122E+00
      1.648  0.3005E-01  0.3005E-01  0.1180E+00  0.1180E+00
      1.840  0.1047E-01  0.1047E-01  0.1200E+00  0.1200E+00
      2.033  0.0000E+00  0.0000E+00  0.1200E+00  0.1200E+00
      2.225  0.0000E+00  0.0000E+00  0.1200E+00  0.1200E+00
      2.417  0.0000E+00  0.0000E+00  0.1200E+00  0.1200E+00
      2.610  0.0000E+00  0.0000E+00  0.1200E+00  0.1200E+00
      2.802  0.0000E+00  0.0000E+00  0.1200E+00  0.1200E+00
      2.994  0.0000E+00  0.0000E+00  0.1200E+00  0.1200E+00
      3.187  0.0000E+00  0.0000E+00  0.1200E+00  0.1200E+00
      3.379  0.0000E+00  0.0000E+00  0.1200E+00  0.1200E+00
      3.571  0.0000E+00  0.0000E+00  0.1200E+00  0.1200E+00
      3.764  0.0000E+00  0.0000E+00  0.1200E+00  0.1200E+00
      3.956  0.0000E+00  0.0000E+00  0.1200E+00  0.1200E+00
      4.148  0.0000E+00  0.0000E+00  0.1200E+00  0.1200E+00
      4.341  0.1197E-08  0.1197E-08  0.1200E+00  0.1200E+00
      4.533  0.5198E-02  0.5198E-02  0.1210E+00  0.1210E+00
      4.725  0.0000E+00  0.0000E+00  0.1210E+00  0.1210E+00
      4.918  0.0000E+00  0.0000E+00  0.1210E+00  0.1210E+00
      5.110  0.1655E-12  0.1655E-12  0.1210E+00  0.1210E+00
      5.303  0.6033E-02  0.6033E-02  0.1222E+00  0.1222E+00
      5.495  0.9552E-02  0.9552E-02  0.1240E+00  0.1240E+00
      5.687  0.0000E+00  0.0000E+00  0.1240E+00  0.1240E+00
      5.880  0.3438E-03  0.3438E-03  0.1241E+00  0.1241E+00
      6.072  0.1509E-01  0.1509E-01  0.1270E+00  0.1270E+00
      6.264  0.1253E-01  0.1253E-01  0.1294E+00  0.1294E+00
      6.457  0.3217E-02  0.3217E-02  0.1300E+00  0.1300E+00
      6.649  0.1490E-01  0.1490E-01  0.1329E+00  0.1329E+00
      6.841  0.7719E-02  0.7719E-02  0.1344E+00  0.1344E+00
      7.034  0.8543E-02  0.8543E-02  0.1360E+00  0.1360E+00
      7.226  0.5199E-02  0.5199E-02  0.1370E+00  0.1370E+00
      7.418  0.1164E-03  0.1164E-03  0.1370E+00  0.1370E+00
      7.611  0.1347E-01  0.1347E-01  0.1396E+00  0.1396E+00
      7.803  0.1422E-01  0.1422E-01  0.1423E+00  0.1423E+00
      7.995  0.7479E-02  0.7479E-02  0.1438E+00  0.1438E+00
      8.188  0.1263E-01  0.1263E-01  0.1462E+00  0.1462E+00
      8.380  0.1807E-01  0.1807E-01  0.1497E+00  0.1497E+00
      8.572  0.1800E-01  0.1800E-01  0.1532E+00  0.1532E+00
      8.765  0.1779E-01  0.1779E-01  0.1566E+00  0.1566E+00
      8.957  0.1301E-01  0.1301E-01  0.1591E+00  0.1591E+00
      9.149  0.1479E-01  0.1479E-01  0.1619E+00  0.1619E+00
      9.342  0.1690E-01  0.1690E-01  0.1652E+00  0.1652E+00
      9.534  0.1693E-01  0.1695E-01  0.1684E+00  0.1685E+00
      9.727  0.1991E-01  0.2021E-01  0.1723E+00  0.1723E+00
      9.919  0.1425E-01  0.1367E-01  0.1750E+00  0.1750E+00
     10.111  0.5068E-02  0.5334E-02  0.1760E+00  0.1760E+00
     10.304  0.0000E+00  0.0000E+00  0.1760E+00  0.1760E+00
     10.496  0.0000E+00  0.0000E+00  0.1760E+00  0.1760E+00
     10.688  0.0000E+00  0.0000E+00  0.1760E+00  0.1760E+00
     10.881  0.0000E+00  0.0000E+00  0.1760E+00  0.1760E+00
     11.073  0.0000E+00  0.0000E+00  0.1760E+00  0.1760E+00
     11.265  0.0000E+00  0.0000E+00  0.1760E+00  0.1760E+00
     11.458  0.0000E+00  0.0000E+00  0.1760E+00  0.1760E+00
     11.650  0.0000E+00  0.0000E+00  0.1760E+00  0.1760E+00
     11.842  0.0000E+00  0.0000E+00  0.1760E+00  0.1760E+00
     12.035  0.0000E+00  0.0000E+00  0.1760E+00  0.1760E+00
     12.227  0.0000E+00  0.0000E+00  0.1760E+00  0.1760E+00
     12.419  0.0000E+00  0.0000E+00  0.1760E+00  0.1760E+00
     12.612  0.0000E+00  0.0000E+00  0.1760E+00  0.1760E+00
