 vasp.6.4.1 05Apr23 (build Jun 07 2023 15:38:11) complex                        
  
 executed on             LinuxIFC date 2023.10.19  14:53:57
 running  128 mpi-ranks, with    1 threads/rank, on    1 nodes
 distrk:  each k-point on  128 cores,    1 groups
 distr:  one band on NCORE=  32 cores,    4 groups


--------------------------------------------------------------------------------------------------------


 INCAR:
   GGA = PE
   PREC = Accu
   EDIFF = 1.e-6
   EDIFFG = -1.e-3
   ENCUT = 520.
   NELM = 100
   NELMDL = -10
   LASPH = .TRUE.
   LREAL = Auto
   LMAXMIX = 4
   ISPIN = 2
   LDIAG = .TRUE.
   LPLANE = .TRUE.
   IVDW = 12
   SIGMA = 0.03
   ISMEAR = 0
   NSW = 1000    number of steps for IOM
   IBRION = 2    ionic relax: 0-MD 1-quasi-New 2-CG
   ISIF = 2    ionic relaxation + stress tensor calcn.
   LCHARG = .FALSE.
   LWAVE = .FALSE.
   ALGO = F
   KPAR = 1
   NPAR = 4
   POTIM = 0.2

 POTCAR:    PAW_PBE Li_sv_GW 25Mar2010            
 POTCAR:    PAW_PBE P_GW 19Mar2012                
 POTCAR:    PAW_PBE S_GW 19Mar2012                
 POTCAR:    PAW_PBE Cl_GW 19Mar2012               
 -----------------------------------------------------------------------------
|                                                                             |
|           W    W    AA    RRRRR   N    N  II  N    N   GGGG   !!!           |
|           W    W   A  A   R    R  NN   N  II  NN   N  G    G  !!!           |
|           W    W  A    A  R    R  N N  N  II  N N  N  G       !!!           |
|           W WW W  AAAAAA  RRRRR   N  N N  II  N  N N  G  GGG   !            |
|           WW  WW  A    A  R   R   N   NN  II  N   NN  G    G                |
|           W    W  A    A  R    R  N    N  II  N    N   GGGG   !!!           |
|                                                                             |
|     You use a magnetic or noncollinear calculation, but did not specify     |
|     the initial magnetic moment with the MAGMOM tag. Note that a            |
|     default of 1 will be used for all atoms. This ferromagnetic setup       |
|     may break the symmetry of the crystal, in particular it may rule        |
|     out finding an antiferromagnetic solution. Thence, we recommend         |
|     setting the initial magnetic moment manually or verifying carefully     |
|     that this magnetic setup is desired.                                    |
|                                                                             |
 -----------------------------------------------------------------------------

 POTCAR:    PAW_PBE Li_sv_GW 25Mar2010            
   SHA256 =  24a6ace15a582615486b36ce4dc781b048409f4015b7684ed1273ae395fa2fdc Li_sv_GW/POTCAR       
   COPYR  = (c) Copyright 25Mar2010 Georg Kresse                                                    
   COPYR  = This file is part of the software VASP. Any use, copying, and all other rights are regul
   COPYR  = If you do not have a valid VASP license, you may not use, copy or distribute this file. 
   VRHFIN =Li: 1s2s                                                                                 
   LEXCH  = PE                                                                                      
   EATOM  =   200.9989 eV,   14.7730 Ry                                                             
                                                                                                    
   TITEL  = PAW_PBE Li_sv_GW 25Mar2010                                                              
   LULTRA =        F    use ultrasoft PP ?                                                          
   IUNSCR =        0    unscreen: 0-lin 1-nonlin 2-no                                               
   RPACOR =    0.000    partial core radius                                                         
   POMASS =    7.010; ZVAL   =    3.000    mass and valenz                                          
   RCORE  =    1.500    outmost cutoff radius                                                       
   RWIGS  =    1.600; RWIGS  =    0.847    wigner-seitz radius (au A)                               
   ENMAX  =  433.699; ENMIN  =  325.274 eV                                                          
   RCLOC  =    1.003    cutoff for local pot                                                        
   LCOR   =        T    correct aug charges                                                         
   LPAW   =        T    paw PP                                                                      
   EAUG   = 1041.699                                                                                
   RMAX   =    1.536    core radius for proj-oper                                                   
   RAUG   =    1.300    factor for augmentation sphere                                              
   RDEP   =    1.520    radius for radial grids                                                     
   RDEPT  =    1.300    core radius for aug-charge                                                  
                                                                                                    
   Atomic configuration                                                                             
    4 entries                                                                                       
     n  l   j            E        occ.                                                              
     1  0  0.50       -53.3604   2.0000                                                             
     1  0  0.50       -52.0001   0.0000                                                             
     2  1  0.50        -1.5636   1.0000                                                             
     3  2  1.50        -1.3606   0.0000                                                             
   Description                                                                                      
     l       E           TYP  RCUT    TYP  RCUT                                                     
     0    -53.3603633     23  1.200                                                                 
     0    -52.0001064     23  1.200                                                                 
     0    176.8757380     23  1.300                                                                 
     1     -1.5635925     23  1.500                                                                 
     1    108.8466080     23  1.500                                                                 
     2     81.6349560     23  1.500                                                                 
  local pseudopotential read in
  kinetic energy density of atom read in
  atomic valenz-charges read in
  non local Contribution for L=           0  read in
    real space projection operators read in
  non local Contribution for L=           0  read in
    real space projection operators read in
  non local Contribution for L=           0  read in
    real space projection operators read in
  non local Contribution for L=           1  read in
    real space projection operators read in
  non local Contribution for L=           1  read in
    real space projection operators read in
  non local Contribution for L=           2  read in
    real space projection operators read in
    PAW grid and wavefunctions read in
 
   number of l-projection  operators is LMAX  =           6
   number of lm-projection operators is LMMAX =          14
 
 POTCAR:    PAW_PBE P_GW 19Mar2012                
   SHA256 =  715c28f2291d37b61637ce89646c59f66f71c8b8d8bfba631e5feb9f7b42defe P_GW/POTCAR           
   COPYR  = (c) Copyright 19Mar2012 Georg Kresse                                                    
   COPYR  = This file is part of the software VASP. Any use, copying, and all other rights are regul
   COPYR  = If you do not have a valid VASP license, you may not use, copy or distribute this file. 
   VRHFIN =P : s2p3                                                                                 
   LEXCH  = PE                                                                                      
   EATOM  =   176.0430 eV,   12.9388 Ry                                                             
                                                                                                    
   TITEL  = PAW_PBE P_GW 19Mar2012                                                                  
   LULTRA =        F    use ultrasoft PP ?                                                          
   IUNSCR =        1    unscreen: 0-lin 1-nonlin 2-no                                               
   RPACOR =    1.400    partial core radius                                                         
   POMASS =   30.974; ZVAL   =    5.000    mass and valenz                                          
   RCORE  =    2.000    outmost cutoff radius                                                       
   RWIGS  =    1.900; RWIGS  =    1.005    wigner-seitz radius (au A)                               
   ENMAX  =  255.040; ENMIN  =  191.280 eV                                                          
   ICORE  =        3    local potential                                                             
   LCOR   =        T    correct aug charges                                                         
   LPAW   =        T    paw PP                                                                      
   EAUG   =  499.732                                                                                
   DEXC   =    0.000                                                                                
   RMAX   =    2.047    core radius for proj-oper                                                   
   RAUG   =    1.300    factor for augmentation sphere                                              
   RDEP   =    2.059    radius for radial grids                                                     
   RDEPT  =    1.900    core radius for aug-charge                                                  
                                                                                                    
   Atomic configuration                                                                             
    7 entries                                                                                       
     n  l   j            E        occ.                                                              
     1  0  0.50     -2084.0982   2.0000                                                             
     2  0  0.50      -173.9859   2.0000                                                             
     2  1  1.50      -124.4865   6.0000                                                             
     3  0  0.50       -13.9692   2.0000                                                             
     3  1  0.50        -5.5067   3.0000                                                             
     3  2  1.50        -6.8029   0.0000                                                             
     4  3  2.50        -1.3606   0.0000                                                             
   Description                                                                                      
     l       E           TYP  RCUT    TYP  RCUT                                                     
     0    -13.9691528     23  1.900                                                                 
     0    102.0436950     23  1.900                                                                 
     1     -5.5066939     23  1.900                                                                 
     1    102.0436950     23  1.900                                                                 
     2     -8.1634956     23  2.000                                                                 
     2     81.6349560     23  2.000                                                                 
     3     27.2116520     23  2.000                                                                 
  local pseudopotential read in
  partial core-charges read in
  partial kinetic energy density read in
  kinetic energy density of atom read in
  atomic valenz-charges read in
  non local Contribution for L=           0  read in
    real space projection operators read in
  non local Contribution for L=           0  read in
    real space projection operators read in
  non local Contribution for L=           1  read in
    real space projection operators read in
  non local Contribution for L=           1  read in
    real space projection operators read in
  non local Contribution for L=           2  read in
    real space projection operators read in
  non local Contribution for L=           2  read in
    real space projection operators read in
    PAW grid and wavefunctions read in
 
   number of l-projection  operators is LMAX  =           6
   number of lm-projection operators is LMMAX =          18
 
 POTCAR:    PAW_PBE S_GW 19Mar2012                
   SHA256 =  357db9cfb0783579b2eebe03197c2d807131fea8ea663b1fcfb6ce2fa75af011 S_GW/POTCAR           
   COPYR  = (c) Copyright 19Mar2012 Georg Kresse                                                    
   COPYR  = This file is part of the software VASP. Any use, copying, and all other rights are regul
   COPYR  = If you do not have a valid VASP license, you may not use, copy or distribute this file. 
   VRHFIN =S : s2p4                                                                                 
   LEXCH  = PE                                                                                      
   EATOM  =   276.8230 eV,   20.3459 Ry                                                             
                                                                                                    
   TITEL  = PAW_PBE S_GW 19Mar2012                                                                  
   LULTRA =        F    use ultrasoft PP ?                                                          
   IUNSCR =        1    unscreen: 0-lin 1-nonlin 2-no                                               
   RPACOR =    1.400    partial core radius                                                         
   POMASS =   32.066; ZVAL   =    6.000    mass and valenz                                          
   RCORE  =    1.900    outmost cutoff radius                                                       
   RWIGS  =    1.900; RWIGS  =    1.005    wigner-seitz radius (au A)                               
   ENMAX  =  258.689; ENMIN  =  194.016 eV                                                          
   ICORE  =        3    local potential                                                             
   LCOR   =        T    correct aug charges                                                         
   LPAW   =        T    paw PP                                                                      
   EAUG   =  488.319                                                                                
   DEXC   =    0.000                                                                                
   RMAX   =    1.942    core radius for proj-oper                                                   
   RAUG   =    1.300    factor for augmentation sphere                                              
   RDEP   =    1.954    radius for radial grids                                                     
   RDEPT  =    1.900    core radius for aug-charge                                                  
                                                                                                    
   Atomic configuration                                                                             
    7 entries                                                                                       
     n  l   j            E        occ.                                                              
     1  0  0.50     -2405.8406   2.0000                                                             
     2  0  0.50      -211.7007   2.0000                                                             
     2  1  1.50      -156.4958   6.0000                                                             
     3  0  0.50       -17.2562   2.0000                                                             
     3  1  0.50        -7.0085   4.0000                                                             
     3  2  1.50        -8.1635   0.0000                                                             
     4  3  2.50        -1.3606   0.0000                                                             
   Description                                                                                      
     l       E           TYP  RCUT    TYP  RCUT                                                     
     0    -17.2561639     23  1.700                                                                 
     0     88.4378690     23  1.900                                                                 
     1     -7.0085399     23  1.900                                                                 
     1     88.4378690     23  1.900                                                                 
     2    -10.8846608     23  1.900                                                                 
     2     54.4233040     23  1.900                                                                 
     3     27.2116520     23  1.800                                                                 
  local pseudopotential read in
  partial core-charges read in
  partial kinetic energy density read in
  kinetic energy density of atom read in
  atomic valenz-charges read in
  non local Contribution for L=           0  read in
    real space projection operators read in
  non local Contribution for L=           0  read in
    real space projection operators read in
  non local Contribution for L=           1  read in
    real space projection operators read in
  non local Contribution for L=           1  read in
    real space projection operators read in
  non local Contribution for L=           2  read in
    real space projection operators read in
  non local Contribution for L=           2  read in
    real space projection operators read in
    PAW grid and wavefunctions read in
 
   number of l-projection  operators is LMAX  =           6
   number of lm-projection operators is LMMAX =          18
 
 POTCAR:    PAW_PBE Cl_GW 19Mar2012               
   SHA256 =  3ef3b3169d6a9a89979f58b4cf17d927a58518fc660d8883d88cacaee8175441 Cl_GW/POTCAR          
   COPYR  = (c) Copyright 19Mar2012 Georg Kresse                                                    
   COPYR  = This file is part of the software VASP. Any use, copying, and all other rights are regul
   COPYR  = If you do not have a valid VASP license, you may not use, copy or distribute this file. 
   VRHFIN =Cl: s2p5                                                                                 
   LEXCH  = PE                                                                                      
   EATOM  =   409.7259 eV,   30.1140 Ry                                                             
                                                                                                    
   TITEL  = PAW_PBE Cl_GW 19Mar2012                                                                 
   LULTRA =        F    use ultrasoft PP ?                                                          
   IUNSCR =        1    unscreen: 0-lin 1-nonlin 2-no                                               
   RPACOR =    1.400    partial core radius                                                         
   POMASS =   35.453; ZVAL   =    7.000    mass and valenz                                          
   RCORE  =    1.900    outmost cutoff radius                                                       
   RWIGS  =    1.900; RWIGS  =    1.005    wigner-seitz radius (au A)                               
   ENMAX  =  262.472; ENMIN  =  196.854 eV                                                          
   ICORE  =        3    local potential                                                             
   LCOR   =        T    correct aug charges                                                         
   LPAW   =        T    paw PP                                                                      
   EAUG   =  456.703                                                                                
   DEXC   =    0.000                                                                                
   RMAX   =    1.945    core radius for proj-oper                                                   
   RAUG   =    1.300    factor for augmentation sphere                                              
   RDEP   =    2.020    radius for radial grids                                                     
   RDEPT  =    1.900    core radius for aug-charge                                                  
                                                                                                    
   Atomic configuration                                                                             
    7 entries                                                                                       
     n  l   j            E        occ.                                                              
     1  0  0.50     -2751.1850   2.0000                                                             
     2  0  0.50      -252.6861   2.0000                                                             
     2  1  1.50      -191.6157   6.0000                                                             
     3  0  0.50       -20.6916   2.0000                                                             
     3  1  0.50        -8.5949   5.0000                                                             
     3  2  1.50        -9.5241   0.0000                                                             
     4  3  2.50        -9.5241   0.0000                                                             
   Description                                                                                      
     l       E           TYP  RCUT    TYP  RCUT                                                     
     0    -20.6915657     23  1.700                                                                 
     0     95.2407820     23  1.800                                                                 
     1     -8.5948577     23  1.900                                                                 
     1     95.2407820     23  1.900                                                                 
     2    -10.8846608     23  1.900                                                                 
     2     54.4233040     23  1.900                                                                 
     3     27.2116520     23  1.900                                                                 
  local pseudopotential read in
  partial core-charges read in
  partial kinetic energy density read in
  kinetic energy density of atom read in
  atomic valenz-charges read in
  non local Contribution for L=           0  read in
    real space projection operators read in
  non local Contribution for L=           0  read in
    real space projection operators read in
  non local Contribution for L=           1  read in
    real space projection operators read in
  non local Contribution for L=           1  read in
    real space projection operators read in
  non local Contribution for L=           2  read in
    real space projection operators read in
  non local Contribution for L=           2  read in
    real space projection operators read in
    PAW grid and wavefunctions read in
 
   number of l-projection  operators is LMAX  =           6
   number of lm-projection operators is LMMAX =          18
 
 Optimization of the real space projectors (new method)

 maximal supplied QI-value         = 25.13
 optimisation between [QCUT,QGAM] = [ 11.56, 23.12] = [ 37.43,149.72] Ry 
 Optimized for a Real-space Cutoff    1.28 Angstroem

   l    n(q)    QCUT    max X(q) W(low)/X(q) W(high)/X(q)  e(spline) 
   0      9    11.561    87.733    0.11E-03    0.32E-04    0.56E-06
   0      9    11.561    82.800    0.11E-03    0.35E-04    0.56E-06
   0      9    11.561     2.509    0.22E-03    0.42E-04    0.79E-06
   1      8    11.561    12.580    0.94E-04    0.26E-03    0.21E-06
   1      8    11.561     1.319    0.33E-04    0.15E-03    0.19E-06
   2      8    11.561     1.993    0.36E-04    0.89E-04    0.26E-06
 Optimization of the real space projectors (new method)

 maximal supplied QI-value         = 18.90
 optimisation between [QCUT,QGAM] = [ 11.53, 23.24] = [ 37.21,151.29] Ry 
 Optimized for a Real-space Cutoff    1.21 Angstroem

   l    n(q)    QCUT    max X(q) W(low)/X(q) W(high)/X(q)  e(spline) 
   0      8    11.527     8.355    0.73E-04    0.70E-04    0.26E-07
   0      8    11.527     1.401    0.17E-03    0.17E-03    0.63E-07
   1      8    11.527     4.747    0.13E-03    0.17E-03    0.11E-06
   1      8    11.527     2.025    0.16E-03    0.18E-03    0.12E-06
   2      7    11.527     3.169    0.51E-04    0.25E-03    0.60E-07
   2      7    11.527     3.441    0.82E-04    0.22E-03    0.14E-06
 Optimization of the real space projectors (new method)

 maximal supplied QI-value         = 19.84
 optimisation between [QCUT,QGAM] = [ 11.51, 23.22] = [ 37.09,150.92] Ry 
 Optimized for a Real-space Cutoff    1.49 Angstroem

   l    n(q)    QCUT    max X(q) W(low)/X(q) W(high)/X(q)  e(spline) 
   0     10    11.508     7.541    0.34E-04    0.13E-04    0.69E-07
   0     10    11.508     1.809    0.49E-04    0.27E-04    0.14E-06
   1     10    11.508     4.107    0.27E-05    0.41E-05    0.14E-06
   1     10    11.508     2.196    0.26E-05    0.25E-05    0.22E-06
   2      9    11.508     4.265    0.18E-03    0.11E-03    0.81E-06
   2      9    11.508     1.925    0.97E-04    0.76E-04    0.47E-06
 Optimization of the real space projectors (new method)

 maximal supplied QI-value         = 19.84
 optimisation between [QCUT,QGAM] = [ 11.51, 23.22] = [ 37.09,150.92] Ry 
 Optimized for a Real-space Cutoff    1.21 Angstroem

   l    n(q)    QCUT    max X(q) W(low)/X(q) W(high)/X(q)  e(spline) 
   0      8    11.508     6.761    0.57E-04    0.57E-04    0.35E-07
   0      8    11.508     1.642    0.14E-03    0.14E-03    0.91E-07
   1      8    11.508     3.519    0.20E-04    0.72E-04    0.47E-07
   1      8    11.508     2.150    0.27E-04    0.11E-03    0.89E-07
   2      7    11.508     2.976    0.19E-03    0.33E-03    0.16E-06
   2      7    11.508     1.494    0.14E-03    0.29E-03    0.14E-06
  PAW_PBE Li_sv_GW 25Mar2010            :
 energy of atom  1       EATOM= -200.9989
 kinetic energy error for atom=    0.0127 (will be added to EATOM!!)
  PAW_PBE P_GW 19Mar2012                :
 energy of atom  2       EATOM= -176.0430
 kinetic energy error for atom=    0.0011 (will be added to EATOM!!)
  PAW_PBE S_GW 19Mar2012                :
 energy of atom  3       EATOM= -276.8230
 kinetic energy error for atom=    0.0024 (will be added to EATOM!!)
  PAW_PBE Cl_GW 19Mar2012               :
 energy of atom  4       EATOM= -409.7259
 kinetic energy error for atom=    0.0030 (will be added to EATOM!!)
 
 
 POSCAR: Li24 P4 S20 Cl4
  positions in direct lattice
  velocities in cartesian coordinates
 exchange correlation table for  LEXCH =        8
   RHO(1)=    0.500       N(1)  =     2000
   RHO(2)=  100.500       N(2)  =     4000

 VTST: version 4.1, (05/19/21)

 CHAIN: initializing optimizer
 
 OPT: Using VASP Conjugate-Gradient optimizer
 CHAIN: Read ICHAIN            0
 
 POSCAR: Li24 P4 S20 Cl4
  positions in direct lattice
  velocities in cartesian coordinates
 


--------------------------------------------------------------------------------------------------------


 ion  position               nearest neighbor table
   1  0.994  0.207  0.163-
   2  0.963  0.681  0.673-
   3  0.054  0.181  0.820-
   4  0.023  0.707  0.330-
   5  0.494  0.207  0.663-
   6  0.164  0.829  0.037-
   7  0.702  0.286  0.013-
   8  0.815  0.786  0.980-
   9  0.315  0.979  0.285-
  10  0.298  0.018  0.693-
  11  0.815  0.979  0.786-
  12  0.798  0.018  0.194-
  13  0.315  0.786  0.480-
  14  0.202  0.286  0.513-
  15  0.664  0.829  0.537-
  16  0.853  0.329  0.456-
  17  0.202  0.479  0.707-
  18  0.219  0.518  0.300-
  19  0.702  0.479  0.208-
  20  0.719  0.518  0.800-
  21  0.353  0.329  0.956-
  22  0.463  0.681  0.173-
  23  0.554  0.181  0.320-
  24  0.523  0.707  0.830-
  25  0.515  0.503  0.500-  41 2.05  42 2.05  43 2.06  44 2.06
  26  0.502  0.003  0.993-  39 2.05  40 2.05  37 2.06  38 2.06
  27  0.015  0.503  0.000-  35 2.05  36 2.05  33 2.06  34 2.06
  28  0.002  0.003  0.493-  32 2.05  31 2.05  30 2.06  29 2.06
  29  0.119  0.873  0.615-  28 2.06
  30  0.123  0.115  0.359-  28 2.06
  31  0.863  0.882  0.388-  28 2.05
  32  0.900  0.139  0.619-  28 2.05
  33  0.894  0.615  0.135-  27 2.06
  34  0.898  0.373  0.879-  27 2.06
  35  0.117  0.640  0.874-  27 2.05
  36  0.154  0.383  0.106-  27 2.05
  37  0.623  0.115  0.859-  26 2.06
  38  0.618  0.873  0.115-  26 2.06
  39  0.400  0.140  0.119-  26 2.05
  40  0.363  0.883  0.888-  26 2.05
  41  0.617  0.640  0.374-  25 2.05
  42  0.654  0.383  0.606-  25 2.05
  43  0.394  0.615  0.635-  25 2.06
  44  0.399  0.373  0.378-  25 2.06
  45  0.747  0.751  0.752-
  46  0.770  0.251  0.241-
  47  0.248  0.751  0.252-
  48  0.270  0.251  0.741-
  49  0.974  0.999  0.997-
  50  0.043  0.499  0.496-
  51  0.474  0.999  0.497-
  52  0.543  0.499  0.996-
 
  LATTYP: Found a simple cubic cell.
 ALAT       =     9.6601287619
  
  Lattice vectors:
  
 A1 = (   9.6601287619,   0.0000000000,   0.0000000000)
 A2 = (   0.0000000000,   9.6601287619,   0.0000000000)
 A3 = (   0.0000000000,   0.0000000000,   9.6601287619)


Analysis of symmetry for initial positions (statically):
=====================================================================
 Subroutine PRICEL returns:
 Original cell was already a primitive cell.
 

 Routine SETGRP: Setting up the symmetry group for a 
 simple cubic supercell.


 Subroutine GETGRP returns: Found  1 space group operations
 (whereof  1 operations were pure point group operations)
 out of a pool of 48 trial point group operations.


The static configuration has the point symmetry C_1 .


Analysis of symmetry for dynamics (positions and initial velocities):
=====================================================================
 Subroutine PRICEL returns:
 Original cell was already a primitive cell.
 

 Routine SETGRP: Setting up the symmetry group for a 
 simple cubic supercell.


 Subroutine GETGRP returns: Found  1 space group operations
 (whereof  1 operations were pure point group operations)
 out of a pool of 48 trial point group operations.


The dynamic configuration has the point symmetry C_1 .


Analysis of structural, dynamic, and magnetic symmetry:
=====================================================================
 Subroutine PRICEL returns:
 Original cell was already a primitive cell.
 

 Routine SETGRP: Setting up the symmetry group for a 
 simple cubic supercell.


 Subroutine GETGRP returns: Found  1 space group operations
 (whereof  1 operations were pure point group operations)
 out of a pool of 48 trial point group operations.


The overall configuration has the point symmetry C_1 .


 Subroutine INISYM returns: Found  1 space group operations
 (whereof  1 operations are pure point group operations),
 and found     1 'primitive' translations


----------------------------------------------------------------------------------------

                                     Primitive cell                                     

  volume of cell :     901.4647

  direct lattice vectors                    reciprocal lattice vectors
     9.660128762  0.000000000  0.000000000     0.103518289  0.000000000  0.000000000
     0.000000000  9.660128762  0.000000000     0.000000000  0.103518289  0.000000000
     0.000000000  0.000000000  9.660128762     0.000000000  0.000000000  0.103518289

  length of vectors
     9.660128762  9.660128762  9.660128762     0.103518289  0.103518289  0.103518289

  position of ions in fractional coordinates (direct lattice)
     0.994302888  0.207463070  0.163330806
     0.962823262  0.681378767  0.673079392
     0.054124205  0.181483852  0.820139989
     0.022754441  0.707469255  0.329930076
     0.494425399  0.207463137  0.663444669
     0.164112891  0.828986492  0.037007903
     0.702069677  0.285597381  0.013376330
     0.814542739  0.785611533  0.980047822
     0.315101064  0.979193401  0.285484591
     0.298217024  0.018314452  0.693493879
     0.815288266  0.979141821  0.785785892
     0.798206969  0.018317124  0.193597609
     0.314894701  0.785664793  0.479834019
     0.202486027  0.285508553  0.513114911
     0.664207196  0.829251422  0.537166525
     0.852817693  0.328984365  0.456250226
     0.201761210  0.479166653  0.707331854
     0.218722662  0.518303003  0.299610795
     0.702050540  0.479250109  0.207712668
     0.718689719  0.518332795  0.799766404
     0.352761106  0.329207632  0.956063757
     0.462940547  0.681285019  0.173174285
     0.554049147  0.181423944  0.320079384
     0.522588226  0.707455985  0.829810397
     0.515293800  0.503055857  0.500102208
     0.501725512  0.002881841  0.993098656
     0.015202773  0.502956670  0.000065544
     0.001766339  0.002840175  0.493099845
     0.118642070  0.872526729  0.614627175
     0.122968870  0.114693166  0.358506970
     0.862569974  0.882458792  0.387567112
     0.900023165  0.139485818  0.619174009
     0.894072336  0.614852131  0.134673913
     0.898305651  0.372623388  0.878569670
     0.116993259  0.639522331  0.873972566
     0.154375902  0.382515651  0.105598923
     0.623060366  0.114662758  0.858570941
     0.618491582  0.872654666  0.114826679
     0.399976478  0.139649198  0.119042199
     0.362537774  0.882520204  0.887532756
     0.617097893  0.639727084  0.374144113
     0.654411167  0.382601690  0.605694465
     0.393958164  0.614802647  0.634635677
     0.398522270  0.372794609  0.378385392
     0.747459369  0.751417196  0.752391660
     0.769503500  0.251407548  0.240953338
     0.247531145  0.751383076  0.252258593
     0.269529963  0.251422295  0.740803797
     0.974076437  0.999231619  0.997222269
     0.042949849  0.499196884  0.495760392
     0.474082683  0.999315238  0.497146674
     0.542950119  0.499293162  0.995884662

  ion indices of the primitive-cell ions
   primitive index   ion index
                 1           1
                 2           2
                 3           3
                 4           4
                 5           5
                 6           6
                 7           7
                 8           8
                 9           9
                10          10
                11          11
                12          12
                13          13
                14          14
                15          15
                16          16
                17          17
                18          18
                19          19
                20          20
                21          21
                22          22
                23          23
                24          24
                25          25
                26          26
                27          27
                28          28
                29          29
                30          30
                31          31
                32          32
                33          33
                34          34
                35          35
                36          36
                37          37
                38          38
                39          39
                40          40
                41          41
                42          42
                43          43
                44          44
                45          45
                46          46
                47          47
                48          48
                49          49
                50          50
                51          51
                52          52

----------------------------------------------------------------------------------------

 
 
 KPOINTS: Automatic mesh                          

Automatic generation of k-mesh.
 Grid dimensions read from file:
 generate k-points for:    2    2    2

 Generating k-lattice:

  Cartesian coordinates                     Fractional coordinates (reciprocal lattice)
     0.051759144  0.000000000  0.000000000     0.500000000  0.000000000  0.000000000
     0.000000000  0.051759144  0.000000000     0.000000000  0.500000000  0.000000000
     0.000000000  0.000000000  0.051759144     0.000000000  0.000000000  0.500000000

  Length of vectors
     0.051759144  0.051759144  0.051759144

  Shift w.r.t. Gamma in fractional coordinates (k-lattice)
     0.500000000  0.500000000  0.500000000

 
 Subroutine IBZKPT returns following result:
 ===========================================
 
 Found      4 irreducible k-points:
 
 Following reciprocal coordinates:
            Coordinates               Weight
  0.250000  0.250000  0.250000      2.000000
 -0.250000  0.250000  0.250000      2.000000
 -0.250000 -0.250000  0.250000      2.000000
  0.250000 -0.250000  0.250000      2.000000
 
 Following cartesian coordinates:
            Coordinates               Weight
  0.025880  0.025880  0.025880      2.000000
 -0.025880  0.025880  0.025880      2.000000
 -0.025880 -0.025880  0.025880      2.000000
  0.025880 -0.025880  0.025880      2.000000
 


--------------------------------------------------------------------------------------------------------




 Dimension of arrays:
   k-points           NKPTS =      4   k-points in BZ     NKDIM =      4   number of bands    NBANDS=    176
   number of dos      NEDOS =    301   number of ions     NIONS =     52
   non local maximal  LDIM  =      6   non local SUM 2l+1 LMDIM =     18
   total plane-waves  NPLWV = 373248
   max r-space proj   IRMAX =   5777   max aug-charges    IRDMAX=  17672
   dimension x,y,z NGX =    72 NGY =   72 NGZ =   72
   dimension x,y,z NGXF=   144 NGYF=  144 NGZF=  144
   support grid    NGXF=   144 NGYF=  144 NGZF=  144
   ions per type =              24   4  20   4
   NGX,Y,Z   is equivalent  to a cutoff of  12.39, 12.39, 12.39 a.u.
   NGXF,Y,Z  is equivalent  to a cutoff of  24.78, 24.78, 24.78 a.u.

 SYSTEM =  unknown system                          
 POSCAR =  Li24 P4 S20 Cl4                         

 Startparameter for this run:
   NWRITE =      2    write-flag & timer
   PREC   = accu      normal or accurate (medium, high low for compatibility)
   ISTART =      0    job   : 0-new  1-cont  2-samecut
   ICHARG =      2    charge: 1-file 2-atom 10-const
   ISPIN  =      2    spin polarized calculation?
   LNONCOLLINEAR =      F non collinear calculations
   LSORBIT =      F    spin-orbit coupling
   INIWAV =      1    electr: 0-lowe 1-rand  2-diag
   LASPH  =      T    aspherical Exc in radial PAW
 Electronic Relaxation 1
   ENCUT  =  520.0 eV  38.22 Ry    6.18 a.u.  17.96 17.96 17.96*2*pi/ulx,y,z
   ENINI  =  520.0     initial cutoff
   ENAUG  = 1041.7 eV  augmentation charge cutoff
   NELM   =    100;   NELMIN=  2; NELMDL=-10     # of ELM steps 
   EDIFF  = 0.1E-05   stopping-criterion for ELM
   LREAL  =      T    real-space projection
   NLSPLINE    = F    spline interpolate recip. space projectors
   LCOMPAT=      F    compatible to vasp.4.4
   GGA_COMPAT  = T    GGA compatible to vasp.4.4-vasp.4.6
   LMAXPAW     = -100 max onsite density
   LMAXMIX     =    4 max onsite mixed and CHGCAR
   VOSKOWN=      0    Vosko Wilk Nusair interpolation
   ROPT   =   -0.00025  -0.00025  -0.00025  -0.00025
 Ionic relaxation
   EDIFFG = -.1E-02   stopping-criterion for IOM
   NSW    =   1000    number of steps for IOM
   NBLOCK =      1;   KBLOCK =   1000    inner block; outer block 
   IBRION =      2    ionic relax: 0-MD 1-quasi-New 2-CG
   NFREE  =      1    steps in history (QN), initial steepest desc. (CG)
   ISIF   =      2    stress and relaxation
   IWAVPR =     11    prediction:  0-non 1-charg 2-wave 3-comb
   ISYM   =      2    0-nonsym 1-usesym 2-fastsym
   LCORR  =      T    Harris-Foulkes like correction to forces

   POTIM  = 0.2000    time-step for ionic-motion
   TEIN   =    0.0    initial temperature
   TEBEG  =    0.0;   TEEND  =   0.0 temperature during run
   SMASS  =  -3.00    Nose mass-parameter (am)
   estimated Nose-frequenzy (Omega)   =  0.10E-29 period in steps = 0.31E+47 mass=  -0.213E-26a.u.
   SCALEE = 1.0000    scale energy and forces
   NPACO  =    256;   APACO  = 10.0  distance and # of slots for P.C.
   PSTRESS=    0.0 pullay stress

  Mass of Ions in am
   POMASS =   7.01 30.97 32.07 35.45
  Ionic Valenz
   ZVAL   =   3.00  5.00  6.00  7.00
  Atomic Wigner-Seitz radii
   RWIGS  =  -1.00 -1.00 -1.00 -1.00
  virtual crystal weights 
   VCA    =   1.00  1.00  1.00  1.00
   NELECT =     240.0000    total number of electrons
   NUPDOWN=      -1.0000    fix difference up-down

 DOS related values:
   EMIN   =  10.00;   EMAX   =-10.00  energy-range for DOS
   EFERMI =   0.00;   METHOD = LEGACY      
   ISMEAR =     0;   SIGMA  =   0.03  broadening in eV -4-tet -1-fermi 0-gaus

 Electronic relaxation 2 (details)
   IALGO  =     68    algorithm
   LDIAG  =      T    sub-space diagonalisation (order eigenvalues)
   LSUBROT=      F    optimize rotation matrix (better conditioning)
   TURBO    =      0    0=normal 1=particle mesh
   IRESTART =      0    0=no restart 2=restart with 2 vectors
   NREBOOT  =      0    no. of reboots
   NMIN     =      0    reboot dimension
   EREF     =   0.00    reference energy to select bands
   IMIX   =      4    mixing-type and parameters
     AMIX     =   0.40;   BMIX     =  1.00
     AMIX_MAG =   1.60;   BMIX_MAG =  1.00
     AMIN     =   0.10
     WC   =   100.;   INIMIX=   1;  MIXPRE=   1;  MAXMIX= -45

 Intra band minimization:
   WEIMIN = 0.0010     energy-eigenvalue tresh-hold
   EBREAK =  0.14E-08  absolut break condition
   DEPER  =   0.30     relativ break condition  

   TIME   =   0.40     timestep for ELM

  volume/ion in A,a.u.               =      17.34       116.99
  Fermi-wavevector in a.u.,A,eV,Ry     =   1.053163  1.990190 15.090938  1.109153
  Thomas-Fermi vector in A             =   2.188274
 
 Write flags
   LWAVE        =      F    write WAVECAR
   LDOWNSAMPLE  =      F    k-point downsampling of WAVECAR
   LCHARG       =      F    write CHGCAR
   LVTOT        =      F    write LOCPOT, total local potential
   LVHAR        =      F    write LOCPOT, Hartree potential only
   LELF         =      F    write electronic localiz. function (ELF)
   LORBIT       =      0    0 simple, 1 ext, 2 COOP (PROOUT), +10 PAW based schemes


 Dipole corrections
   LMONO  =      F    monopole corrections only (constant potential shift)
   LDIPOL =      F    correct potential (dipole corrections)
   IDIPOL =      0    1-x, 2-y, 3-z, 4-all directions 
   EPSILON=  1.0000000 bulk dielectric constant

 Exchange correlation treatment:
   GGA     =    PE    GGA type
   LEXCH   =     8    internal setting for exchange type
   LIBXC   =     F    Libxc                    
   VOSKOWN =     0    Vosko Wilk Nusair interpolation
   LHFCALC =     F    Hartree Fock is set to
   LHFONE  =     F    Hartree Fock one center treatment
   AEXX    =    0.0000 exact exchange contribution

 Linear response parameters
   LEPSILON=     F    determine dielectric tensor
   LRPA    =     F    only Hartree local field effects (RPA)
   LNABLA  =     F    use nabla operator in PAW spheres
   LVEL    =     F    velocity operator in full k-point grid
   CSHIFT  =0.1000    complex shift for real part using Kramers Kronig
   OMEGAMAX=  -1.0    maximum frequency
   DEG_THRESHOLD= 0.2000000E-02 threshold for treating states as degnerate
   RTIME   =   -0.100 relaxation time in fs
  (WPLASMAI=    0.000 imaginary part of plasma frequency in eV, 0.658/RTIME)
   DFIELD  = 0.0000000 0.0000000 0.0000000 field for delta impulse in time
 
  Optional k-point grid parameters
   LKPOINTS_OPT  =     F    use optional k-point grid
   KPOINTS_OPT_MODE=     1    mode for optional k-point grid
 
 Orbital magnetization related:
   ORBITALMAG=     F  switch on orbital magnetization
   LCHIMAG   =     F  perturbation theory with respect to B field
   DQ        =  0.001000  dq finite difference perturbation B field
   LLRAUG    =     F  two centre corrections for induced B field
   LBONE     =     F  B-component reconstruction in AE one-centre
   LVGVCALC  =     T  calculate vGv susceptibility
   LVGVAPPL  =     F  apply vGv susceptibility instead of pGv for G=0

 Random number generation:
   RANDOM_GENERATOR = DEFAULT
   PCG_SEED         = not used


--------------------------------------------------------------------------------------------------------


 conjugate gradient relaxation of ions
 charge density and potential will be updated during run
 spin polarized calculation
 RMM-DIIS sequential band-by-band and
  variant of blocked Davidson during initial phase
 perform sub-space diagonalisation
    before iterative eigenvector-optimisation
 modified Broyden-mixing scheme, WC =      100.0
 initial mixing is a Kerker type mixing with AMIX =  0.4000 and BMIX =      1.0000
 Hartree-type preconditioning will be used
 using additional bands           56
 real space projection scheme for non local part
 use partial core corrections
 calculate Harris-corrections to forces 
   (improved forces if not selfconsistent)
 use gradient corrections 
 use of overlap-Matrix (Vanderbilt PP)
 Gauss-broadening in eV      SIGMA  =   0.03


--------------------------------------------------------------------------------------------------------


  energy-cutoff  :      520.00
  volume of cell :      901.46
      direct lattice vectors                 reciprocal lattice vectors
     9.660128762  0.000000000  0.000000000     0.103518289  0.000000000  0.000000000
     0.000000000  9.660128762  0.000000000     0.000000000  0.103518289  0.000000000
     0.000000000  0.000000000  9.660128762     0.000000000  0.000000000  0.103518289

  length of vectors
     9.660128762  9.660128762  9.660128762     0.103518289  0.103518289  0.103518289


 
 k-points in units of 2pi/SCALE and weight: Automatic mesh                          
   0.02587957  0.02587957  0.02587957       0.250
  -0.02587957  0.02587957  0.02587957       0.250
  -0.02587957 -0.02587957  0.02587957       0.250
   0.02587957 -0.02587957  0.02587957       0.250
 
 k-points in reciprocal lattice and weights: Automatic mesh                          
   0.25000000  0.25000000  0.25000000       0.250
  -0.25000000  0.25000000  0.25000000       0.250
  -0.25000000 -0.25000000  0.25000000       0.250
   0.25000000 -0.25000000  0.25000000       0.250
 
 position of ions in fractional coordinates (direct lattice) 
   0.99430289  0.20746307  0.16333081
   0.96282326  0.68137877  0.67307939
   0.05412421  0.18148385  0.82013999
   0.02275444  0.70746925  0.32993008
   0.49442540  0.20746314  0.66344467
   0.16411289  0.82898649  0.03700790
   0.70206968  0.28559738  0.01337633
   0.81454274  0.78561153  0.98004782
   0.31510106  0.97919340  0.28548459
   0.29821702  0.01831445  0.69349388
   0.81528827  0.97914182  0.78578589
   0.79820697  0.01831712  0.19359761
   0.31489470  0.78566479  0.47983402
   0.20248603  0.28550855  0.51311491
   0.66420720  0.82925142  0.53716652
   0.85281769  0.32898437  0.45625023
   0.20176121  0.47916665  0.70733185
   0.21872266  0.51830300  0.29961079
   0.70205054  0.47925011  0.20771267
   0.71868972  0.51833279  0.79976640
   0.35276111  0.32920763  0.95606376
   0.46294055  0.68128502  0.17317429
   0.55404915  0.18142394  0.32007938
   0.52258823  0.70745598  0.82981040
   0.51529380  0.50305586  0.50010221
   0.50172551  0.00288184  0.99309866
   0.01520277  0.50295667  0.00006554
   0.00176634  0.00284017  0.49309984
   0.11864207  0.87252673  0.61462718
   0.12296887  0.11469317  0.35850697
   0.86256997  0.88245879  0.38756711
   0.90002316  0.13948582  0.61917401
   0.89407234  0.61485213  0.13467391
   0.89830565  0.37262339  0.87856967
   0.11699326  0.63952233  0.87397257
   0.15437590  0.38251565  0.10559892
   0.62306037  0.11466276  0.85857094
   0.61849158  0.87265467  0.11482668
   0.39997648  0.13964920  0.11904220
   0.36253777  0.88252020  0.88753276
   0.61709789  0.63972708  0.37414411
   0.65441117  0.38260169  0.60569447
   0.39395816  0.61480265  0.63463568
   0.39852227  0.37279461  0.37838539
   0.74745937  0.75141720  0.75239166
   0.76950350  0.25140755  0.24095334
   0.24753115  0.75138308  0.25225859
   0.26952996  0.25142230  0.74080380
   0.97407644  0.99923162  0.99722227
   0.04294985  0.49919688  0.49576039
   0.47408268  0.99931524  0.49714667
   0.54295012  0.49929316  0.99588466
 
 position of ions in cartesian coordinates  (Angst):
   9.60509393  2.00411997  1.57779662
   9.30099669  6.58220662  6.50203359
   0.52284679  1.75315738  7.92265790
   0.21981083  6.83424409  3.18716702
   4.77621302  2.00412061  6.40896093
   1.58535165  8.00811625  0.35750110
   6.78208348  2.75890748  0.12921707
   7.86858774  7.58910857  9.46738815
   3.04391685  9.45913433  2.75781791
   2.88081485  0.17691997  6.69924016
   7.87578963  9.45863607  7.59079290
   7.71078210  0.17694578  1.87017783
   3.04192336  7.58962307  4.63525841
   1.95604109  2.75804938  4.95675611
   6.41632704  8.01067551  5.18909780
   8.23832873  3.17803133  4.40743593
   1.94903927  4.62881157  6.83291679
   2.11288908  5.00687375  2.89427886
   6.78189861  4.62961776  2.00653112
   6.94263522  5.00716154  7.72584644
   3.40771770  3.18018811  9.23569900
   4.47206529  6.58130100  1.67288589
   5.35218610  1.75257866  3.09200807
   5.04826955  6.83411591  8.01607528
   4.97780446  4.85958435  4.83105172
   4.84673305  0.02783896  9.59346089
   0.14686074  4.85862620  0.00063316
   0.01706306  0.02743645  4.76340799
   1.14609768  8.42872055  5.93737766
   1.18789512  1.10795075  3.46322349
   8.33253702  8.52466555  3.74394821
   8.69433966  1.34745096  5.98130066
   8.63685389  5.93955076  1.30096734
   8.67774825  3.59958991  8.48709614
   1.13016995  6.17786806  8.44268753
   1.49129109  3.69515044  1.02009919
   6.01884336  1.10765701  8.29390584
   5.97470832  8.42995644  1.10924050
   3.86382428  1.34902923  1.14996297
   3.50216158  8.52525880  8.57368070
   5.96124510  6.17984601  3.61428031
   6.32169613  3.69598159  5.85108652
   3.80568659  5.93907273  6.13066236
   3.84977644  3.60124392  3.65525160
   7.22055375  7.25878687  7.26820031
   7.43350290  2.42862928  2.32764027
   2.39118274  7.25845727  2.43685049
   2.60369415  2.42877174  7.15626006
   9.40970381  9.65270610  9.63329553
   0.41490107  4.82230617  4.78910922
   4.57969976  9.65351387  4.80250088
   5.24496806  4.82323624  9.62037406
 


--------------------------------------------------------------------------------------------------------


 k-point   1 :   0.2500 0.2500 0.2500  plane waves:   24252
 k-point   2 :  -0.2500 0.2500 0.2500  plane waves:   24252
 k-point   3 :  -0.2500-0.2500 0.2500  plane waves:   24252
 k-point   4 :   0.2500-0.2500 0.2500  plane waves:   24252

 maximum and minimum number of plane-waves per node :       778      744

 maximum number of plane-waves:     24252
 maximum index in each direction: 
   IXMAX=   18   IYMAX=   18   IZMAX=   17
   IXMIN=  -18   IYMIN=  -18   IZMIN=  -18


 real space projection operators:
  total allocation   :      28329.11 KBytes
  max/ min on nodes  :       1184.42        765.36


 parallel 3D FFT for wavefunctions:
    minimum data exchange during FFTs selected (reduces bandwidth)
 parallel 3D FFT for charge:
    minimum data exchange during FFTs selected (reduces bandwidth)


 total amount of memory used by VASP MPI-rank0    48203. kBytes
=======================================================================

   base      :      30000. kBytes
   nonlr-proj:       6543. kBytes
   fftplans  :       1747. kBytes
   grid      :       5278. kBytes
   one-center:         62. kBytes
   wavefun   :       4573. kBytes
 
     INWAV:  cpu time      0.0000: real time      0.0000
 Broyden mixing: mesh for mixing (old mesh)
   NGX = 35   NGY = 35   NGZ = 35
  (NGX  =144   NGY  =144   NGZ  =144)
  gives a total of  42875 points

 initial charge density was supplied:
 charge density of overlapping atoms calculated
 number of electron     240.0000000 magnetization      52.0000000
 keeping initial charge density in first step


--------------------------------------------------------------------------------------------------------


 Maximum index for non-local projection operator          589
 Maximum index for augmentation-charges         1078 (set IRDMAX)


--------------------------------------------------------------------------------------------------------


 First call to EWALD:  gamma=   0.183
 Maximum number of real-space cells 3x 3x 3
 Maximum number of reciprocal cells 3x 3x 3

    FEWALD:  cpu time      0.0030: real time      0.0034


--------------------------------------- Ionic step        1  -------------------------------------------




--------------------------------------- Iteration      1(   1)  ---------------------------------------


    POTLOK:  cpu time      0.0581: real time      0.0676
    SETDIJ:  cpu time      0.4071: real time      0.4134
     EDDAV:  cpu time      2.1959: real time      2.2794
       DOS:  cpu time      0.0023: real time      0.0037
    --------------------------------------------
      LOOP:  cpu time      2.6634: real time      2.7641

 eigenvalue-minimisations  :  3080
 total energy-change (2. order) : 0.1590637E+04  (-0.1137473E+05)
 number of electron     240.0000000 magnetization      52.0000000
 augmentation part      240.0000000 magnetization      52.0000000

 Free energy of the ion-electron system (eV)
  ---------------------------------------------------
  alpha Z        PSCENC =       301.12936285
  Ewald energy   TEWEN  =     -8820.38364380
  -Hartree energ DENC   =     -2107.54095872
  -exchange      EXHF   =         0.00000000
  -V(xc)+E(xc)   XCENC  =       534.24551235
  PAW double counting   =      8141.38806575    -8271.61346273
  entropy T*S    EENTRO =        -0.00597192
  eigenvalues    EBANDS =      -889.72152814
  atomic energy  EATOM  =     12703.13999606
  Solvation  Ediel_sol  =         0.00000000
  ---------------------------------------------------
  free energy    TOTEN  =      1590.63737170 eV

  energy without entropy =     1590.64334363  energy(sigma->0) =     1590.64035767


--------------------------------------------------------------------------------------------------------




--------------------------------------- Iteration      1(   2)  ---------------------------------------


     EDDAV:  cpu time      2.7254: real time      2.7745
       DOS:  cpu time      0.0004: real time      0.0004
    --------------------------------------------
      LOOP:  cpu time      2.7258: real time      2.7750

 eigenvalue-minimisations  :  3872
 total energy-change (2. order) :-0.1647416E+04  (-0.1551597E+04)
 number of electron     240.0000000 magnetization      52.0000000
 augmentation part      240.0000000 magnetization      52.0000000

 Free energy of the ion-electron system (eV)
  ---------------------------------------------------
  alpha Z        PSCENC =       301.12936285
  Ewald energy   TEWEN  =     -8820.38364380
  -Hartree energ DENC   =     -2107.54095872
  -exchange      EXHF   =         0.00000000
  -V(xc)+E(xc)   XCENC  =       534.24551235
  PAW double counting   =      8141.38806575    -8271.61346273
  entropy T*S    EENTRO =        -0.00000000
  eigenvalues    EBANDS =     -2537.14300867
  atomic energy  EATOM  =     12703.13999606
  Solvation  Ediel_sol  =         0.00000000
  ---------------------------------------------------
  free energy    TOTEN  =       -56.77813691 eV

  energy without entropy =      -56.77813691  energy(sigma->0) =      -56.77813691


--------------------------------------------------------------------------------------------------------




--------------------------------------- Iteration      1(   3)  ---------------------------------------


     EDDAV:  cpu time      2.5454: real time      2.6106
       DOS:  cpu time      0.0004: real time      0.0004
    --------------------------------------------
      LOOP:  cpu time      2.5458: real time      2.6110

 eigenvalue-minimisations  :  3736
 total energy-change (2. order) :-0.1717382E+03  (-0.1697153E+03)
 number of electron     240.0000000 magnetization      52.0000000
 augmentation part      240.0000000 magnetization      52.0000000

 Free energy of the ion-electron system (eV)
  ---------------------------------------------------
  alpha Z        PSCENC =       301.12936285
  Ewald energy   TEWEN  =     -8820.38364380
  -Hartree energ DENC   =     -2107.54095872
  -exchange      EXHF   =         0.00000000
  -V(xc)+E(xc)   XCENC  =       534.24551235
  PAW double counting   =      8141.38806575    -8271.61346273
  entropy T*S    EENTRO =        -0.00000000
  eigenvalues    EBANDS =     -2708.88123093
  atomic energy  EATOM  =     12703.13999606
  Solvation  Ediel_sol  =         0.00000000
  ---------------------------------------------------
  free energy    TOTEN  =      -228.51635917 eV

  energy without entropy =     -228.51635917  energy(sigma->0) =     -228.51635917


--------------------------------------------------------------------------------------------------------




--------------------------------------- Iteration      1(   4)  ---------------------------------------


     EDDAV:  cpu time      3.2567: real time      3.2885
       DOS:  cpu time      0.0005: real time      0.0005
    --------------------------------------------
      LOOP:  cpu time      3.2571: real time      3.2890

 eigenvalue-minimisations  :  4760
 total energy-change (2. order) :-0.1358994E+02  (-0.1356414E+02)
 number of electron     240.0000000 magnetization      52.0000000
 augmentation part      240.0000000 magnetization      52.0000000

 Free energy of the ion-electron system (eV)
  ---------------------------------------------------
  alpha Z        PSCENC =       301.12936285
  Ewald energy   TEWEN  =     -8820.38364380
  -Hartree energ DENC   =     -2107.54095872
  -exchange      EXHF   =         0.00000000
  -V(xc)+E(xc)   XCENC  =       534.24551235
  PAW double counting   =      8141.38806575    -8271.61346273
  entropy T*S    EENTRO =        -0.00000000
  eigenvalues    EBANDS =     -2722.47116735
  atomic energy  EATOM  =     12703.13999606
  Solvation  Ediel_sol  =         0.00000000
  ---------------------------------------------------
  free energy    TOTEN  =      -242.10629558 eV

  energy without entropy =     -242.10629558  energy(sigma->0) =     -242.10629558


--------------------------------------------------------------------------------------------------------




--------------------------------------- Iteration      1(   5)  ---------------------------------------


     EDDAV:  cpu time      2.9149: real time      2.9417
       DOS:  cpu time      0.0004: real time      0.0004
    --------------------------------------------
      LOOP:  cpu time      2.9153: real time      2.9420

 eigenvalue-minimisations  :  4416
 total energy-change (2. order) :-0.2375565E+00  (-0.2374448E+00)
 number of electron     240.0000000 magnetization      52.0000000
 augmentation part      240.0000000 magnetization      52.0000000

 Free energy of the ion-electron system (eV)
  ---------------------------------------------------
  alpha Z        PSCENC =       301.12936285
  Ewald energy   TEWEN  =     -8820.38364380
  -Hartree energ DENC   =     -2107.54095872
  -exchange      EXHF   =         0.00000000
  -V(xc)+E(xc)   XCENC  =       534.24551235
  PAW double counting   =      8141.38806575    -8271.61346273
  entropy T*S    EENTRO =        -0.00000000
  eigenvalues    EBANDS =     -2722.70872385
  atomic energy  EATOM  =     12703.13999606
  Solvation  Ediel_sol  =         0.00000000
  ---------------------------------------------------
  free energy    TOTEN  =      -242.34385208 eV

  energy without entropy =     -242.34385208  energy(sigma->0) =     -242.34385208


--------------------------------------------------------------------------------------------------------




--------------------------------------- Iteration      1(   6)  ---------------------------------------


     EDDAV:  cpu time      3.0533: real time      3.0780
       DOS:  cpu time      0.0004: real time      0.0004
    --------------------------------------------
      LOOP:  cpu time      3.0537: real time      3.0784

 eigenvalue-minimisations  :  4664
 total energy-change (2. order) :-0.1218837E-01  (-0.1218704E-01)
 number of electron     240.0000000 magnetization      52.0000000
 augmentation part      240.0000000 magnetization      52.0000000

 Free energy of the ion-electron system (eV)
  ---------------------------------------------------
  alpha Z        PSCENC =       301.12936285
  Ewald energy   TEWEN  =     -8820.38364380
  -Hartree energ DENC   =     -2107.54095872
  -exchange      EXHF   =         0.00000000
  -V(xc)+E(xc)   XCENC  =       534.24551235
  PAW double counting   =      8141.38806575    -8271.61346273
  entropy T*S    EENTRO =        -0.00000000
  eigenvalues    EBANDS =     -2722.72091222
  atomic energy  EATOM  =     12703.13999606
  Solvation  Ediel_sol  =         0.00000000
  ---------------------------------------------------
  free energy    TOTEN  =      -242.35604045 eV

  energy without entropy =     -242.35604045  energy(sigma->0) =     -242.35604045


--------------------------------------------------------------------------------------------------------




--------------------------------------- Iteration      1(   7)  ---------------------------------------


     EDDAV:  cpu time      3.0976: real time      3.1606
       DOS:  cpu time      0.0004: real time      0.0004
    --------------------------------------------
      LOOP:  cpu time      3.0980: real time      3.1610

 eigenvalue-minimisations  :  4552
 total energy-change (2. order) :-0.3839135E-03  (-0.3838868E-03)
 number of electron     240.0000000 magnetization      52.0000000
 augmentation part      240.0000000 magnetization      52.0000000

 Free energy of the ion-electron system (eV)
  ---------------------------------------------------
  alpha Z        PSCENC =       301.12936285
  Ewald energy   TEWEN  =     -8820.38364380
  -Hartree energ DENC   =     -2107.54095872
  -exchange      EXHF   =         0.00000000
  -V(xc)+E(xc)   XCENC  =       534.24551235
  PAW double counting   =      8141.38806575    -8271.61346273
  entropy T*S    EENTRO =        -0.00000000
  eigenvalues    EBANDS =     -2722.72129613
  atomic energy  EATOM  =     12703.13999606
  Solvation  Ediel_sol  =         0.00000000
  ---------------------------------------------------
  free energy    TOTEN  =      -242.35642436 eV

  energy without entropy =     -242.35642436  energy(sigma->0) =     -242.35642436


--------------------------------------------------------------------------------------------------------




--------------------------------------- Iteration      1(   8)  ---------------------------------------


     EDDAV:  cpu time      3.0232: real time      3.0473
       DOS:  cpu time      0.0004: real time      0.0004
    --------------------------------------------
      LOOP:  cpu time      3.0236: real time      3.0476

 eigenvalue-minimisations  :  4608
 total energy-change (2. order) :-0.2211659E-04  (-0.2211596E-04)
 number of electron     240.0000000 magnetization      52.0000000
 augmentation part      240.0000000 magnetization      52.0000000

 Free energy of the ion-electron system (eV)
  ---------------------------------------------------
  alpha Z        PSCENC =       301.12936285
  Ewald energy   TEWEN  =     -8820.38364380
  -Hartree energ DENC   =     -2107.54095872
  -exchange      EXHF   =         0.00000000
  -V(xc)+E(xc)   XCENC  =       534.24551235
  PAW double counting   =      8141.38806575    -8271.61346273
  entropy T*S    EENTRO =        -0.00000000
  eigenvalues    EBANDS =     -2722.72131825
  atomic energy  EATOM  =     12703.13999606
  Solvation  Ediel_sol  =         0.00000000
  ---------------------------------------------------
  free energy    TOTEN  =      -242.35644648 eV

  energy without entropy =     -242.35644648  energy(sigma->0) =     -242.35644648


--------------------------------------------------------------------------------------------------------




--------------------------------------- Iteration      1(   9)  ---------------------------------------


     EDDAV:  cpu time      2.9445: real time      2.9701
       DOS:  cpu time      0.0004: real time      0.0004
    --------------------------------------------
      LOOP:  cpu time      2.9449: real time      2.9705

 eigenvalue-minimisations  :  4456
 total energy-change (2. order) :-0.1420041E-05  (-0.1420153E-05)
 number of electron     240.0000000 magnetization      52.0000000
 augmentation part      240.0000000 magnetization      52.0000000

 Free energy of the ion-electron system (eV)
  ---------------------------------------------------
  alpha Z        PSCENC =       301.12936285
  Ewald energy   TEWEN  =     -8820.38364380
  -Hartree energ DENC   =     -2107.54095872
  -exchange      EXHF   =         0.00000000
  -V(xc)+E(xc)   XCENC  =       534.24551235
  PAW double counting   =      8141.38806575    -8271.61346273
  entropy T*S    EENTRO =        -0.00000000
  eigenvalues    EBANDS =     -2722.72131967
  atomic energy  EATOM  =     12703.13999606
  Solvation  Ediel_sol  =         0.00000000
  ---------------------------------------------------
  free energy    TOTEN  =      -242.35644790 eV

  energy without entropy =     -242.35644790  energy(sigma->0) =     -242.35644790


--------------------------------------------------------------------------------------------------------




--------------------------------------- Iteration      1(  10)  ---------------------------------------


     EDDAV:  cpu time      1.9823: real time      2.0000
       DOS:  cpu time      0.0004: real time      0.0004
    CHARGE:  cpu time      0.0660: real time      0.0728
    MIXING:  cpu time      0.0020: real time      0.0038
    --------------------------------------------
      LOOP:  cpu time      2.0508: real time      2.0770

 eigenvalue-minimisations  :  2664
 total energy-change (2. order) :-0.6047594E-07  (-0.6035921E-07)
 number of electron     239.9999975 magnetization      27.2658826
 augmentation part        1.4954181 magnetization      27.7079550

 Broyden mixing:
  rms(total) = 0.64410E+01    rms(broyden)= 0.64404E+01
  rms(prec ) = 0.66847E+01
  weight for this iteration     100.00

 Free energy of the ion-electron system (eV)
  ---------------------------------------------------
  alpha Z        PSCENC =       301.12936285
  Ewald energy   TEWEN  =     -8820.38364380
  -Hartree energ DENC   =     -2107.54095872
  -exchange      EXHF   =         0.00000000
  -V(xc)+E(xc)   XCENC  =       534.24551235
  PAW double counting   =      8141.38806575    -8271.61346273
  entropy T*S    EENTRO =        -0.00000000
  eigenvalues    EBANDS =     -2722.72131973
  atomic energy  EATOM  =     12703.13999606
  Solvation  Ediel_sol  =         0.00000000
  ---------------------------------------------------
  free energy    TOTEN  =      -242.35644796 eV

  energy without entropy =     -242.35644796  energy(sigma->0) =     -242.35644796


--------------------------------------------------------------------------------------------------------




--------------------------------------- Iteration      1(  11)  ---------------------------------------


    POTLOK:  cpu time      0.0548: real time      0.0560
    SETDIJ:  cpu time      0.3980: real time      0.4015
    EDDIAG:  cpu time      0.3627: real time      0.3660
  RMM-DIIS:  cpu time      1.1607: real time      1.1706
    ORTHCH:  cpu time      0.0668: real time      0.0681
       DOS:  cpu time      0.0005: real time      0.0005
    CHARGE:  cpu time      0.0643: real time      0.0671
    MIXING:  cpu time      0.0011: real time      0.0029
    --------------------------------------------
      LOOP:  cpu time      2.1088: real time      2.1327

 eigenvalue-minimisations  :  2816
 total energy-change (2. order) : 0.5545211E+01  (-0.4671730E+01)
 number of electron     239.9999975 magnetization      16.3116313
 augmentation part        1.7055362 magnetization      16.4952234

 Broyden mixing:
  rms(total) = 0.33165E+01    rms(broyden)= 0.33163E+01
  rms(prec ) = 0.34325E+01
  weight for this iteration     100.00

 eigenvalues of (default mixing * dielectric matrix)
  average eigenvalue GAMMA=   0.7258
  0.7258

 Free energy of the ion-electron system (eV)
  ---------------------------------------------------
  alpha Z        PSCENC =       301.12936285
  Ewald energy   TEWEN  =     -8820.38364380
  -Hartree energ DENC   =     -2155.67506817
  -exchange      EXHF   =         0.00000000
  -V(xc)+E(xc)   XCENC  =       542.50000090
  PAW double counting   =      8932.40994604    -9068.74621274
  entropy T*S    EENTRO =        -0.00000000
  eigenvalues    EBANDS =     -2671.18561791
  atomic energy  EATOM  =     12703.13999606
  Solvation  Ediel_sol  =         0.00000000
  ---------------------------------------------------
  free energy    TOTEN  =      -236.81123675 eV

  energy without entropy =     -236.81123675  energy(sigma->0) =     -236.81123675


--------------------------------------------------------------------------------------------------------




--------------------------------------- Iteration      1(  12)  ---------------------------------------


    POTLOK:  cpu time      0.0542: real time      0.0551
    SETDIJ:  cpu time      0.4015: real time      0.4037
    EDDIAG:  cpu time      0.3551: real time      0.3580
  RMM-DIIS:  cpu time      1.2129: real time      1.2238
    ORTHCH:  cpu time      0.0655: real time      0.0660
       DOS:  cpu time      0.0005: real time      0.0005
    CHARGE:  cpu time      0.0647: real time      0.0664
    MIXING:  cpu time      0.0011: real time      0.0011
    --------------------------------------------
      LOOP:  cpu time      2.1554: real time      2.1745

 eigenvalue-minimisations  :  2951
 total energy-change (2. order) :-0.1946292E+02  (-0.2112640E+01)
 number of electron     239.9999975 magnetization       0.4538430
 augmentation part        1.8053498 magnetization       0.7939058

 Broyden mixing:
  rms(total) = 0.20267E+01    rms(broyden)= 0.20267E+01
  rms(prec ) = 0.20884E+01
  weight for this iteration     100.00

 eigenvalues of (default mixing * dielectric matrix)
  average eigenvalue GAMMA=   1.1689
  1.6661  0.6716

 Free energy of the ion-electron system (eV)
  ---------------------------------------------------
  alpha Z        PSCENC =       301.12936285
  Ewald energy   TEWEN  =     -8820.38364380
  -Hartree energ DENC   =     -2179.77073156
  -exchange      EXHF   =         0.00000000
  -V(xc)+E(xc)   XCENC  =       536.20586044
  PAW double counting   =      9287.92155773    -9427.85261856
  entropy T*S    EENTRO =        -0.00000000
  eigenvalues    EBANDS =     -2656.66393534
  atomic energy  EATOM  =     12703.13999606
  Solvation  Ediel_sol  =         0.00000000
  ---------------------------------------------------
  free energy    TOTEN  =      -256.27415217 eV

  energy without entropy =     -256.27415217  energy(sigma->0) =     -256.27415217


--------------------------------------------------------------------------------------------------------




--------------------------------------- Iteration      1(  13)  ---------------------------------------


    POTLOK:  cpu time      0.0527: real time      0.0538
    SETDIJ:  cpu time      0.4031: real time      0.4048
    EDDIAG:  cpu time      0.3534: real time      0.3568
  RMM-DIIS:  cpu time      1.1990: real time      1.2098
    ORTHCH:  cpu time      0.0658: real time      0.0670
       DOS:  cpu time      0.0004: real time      0.0004
    CHARGE:  cpu time      0.0646: real time      0.0667
    MIXING:  cpu time      0.0011: real time      0.0011
    --------------------------------------------
      LOOP:  cpu time      2.1401: real time      2.1604

 eigenvalue-minimisations  :  2899
 total energy-change (2. order) :-0.2488645E+01  (-0.9013129E+00)
 number of electron     239.9999975 magnetization      -1.8319249
 augmentation part        1.9071371 magnetization      -1.7282997

 Broyden mixing:
  rms(total) = 0.65789E+00    rms(broyden)= 0.65788E+00
  rms(prec ) = 0.69132E+00
  weight for this iteration     100.00

 eigenvalues of (default mixing * dielectric matrix)
  average eigenvalue GAMMA=   1.3030
  2.5050  0.7503  0.6537

 Free energy of the ion-electron system (eV)
  ---------------------------------------------------
  alpha Z        PSCENC =       301.12936285
  Ewald energy   TEWEN  =     -8820.38364380
  -Hartree energ DENC   =     -2207.82835106
  -exchange      EXHF   =         0.00000000
  -V(xc)+E(xc)   XCENC  =       537.80538755
  PAW double counting   =      9794.46637354    -9938.39032840
  entropy T*S    EENTRO =        -0.00000000
  eigenvalues    EBANDS =     -2628.70159430
  atomic energy  EATOM  =     12703.13999606
  Solvation  Ediel_sol  =         0.00000000
  ---------------------------------------------------
  free energy    TOTEN  =      -258.76279755 eV

  energy without entropy =     -258.76279755  energy(sigma->0) =     -258.76279755


--------------------------------------------------------------------------------------------------------




--------------------------------------- Iteration      1(  14)  ---------------------------------------


    POTLOK:  cpu time      0.0538: real time      0.0547
    SETDIJ:  cpu time      0.4043: real time      0.4057
    EDDIAG:  cpu time      0.3561: real time      0.3582
  RMM-DIIS:  cpu time      1.5658: real time      1.5803
    ORTHCH:  cpu time      0.0666: real time      0.0673
       DOS:  cpu time      0.0004: real time      0.0005
    CHARGE:  cpu time      0.0653: real time      0.0670
    MIXING:  cpu time      0.0011: real time      0.0011
    --------------------------------------------
      LOOP:  cpu time      2.5134: real time      2.5346

 eigenvalue-minimisations  :  3743
 total energy-change (2. order) :-0.1942251E+00  (-0.1942803E+00)
 number of electron     239.9999975 magnetization      -0.8670117
 augmentation part        1.8762878 magnetization      -0.8396216

 Broyden mixing:
  rms(total) = 0.32160E+00    rms(broyden)= 0.32159E+00
  rms(prec ) = 0.35611E+00
  weight for this iteration     100.00

 eigenvalues of (default mixing * dielectric matrix)
  average eigenvalue GAMMA=   1.2652
  2.6133  1.1674  0.6896  0.5904

 Free energy of the ion-electron system (eV)
  ---------------------------------------------------
  alpha Z        PSCENC =       301.12936285
  Ewald energy   TEWEN  =     -8820.38364380
  -Hartree energ DENC   =     -2209.30670882
  -exchange      EXHF   =         0.00000000
  -V(xc)+E(xc)   XCENC  =       538.24307269
  PAW double counting   =      9868.60519469   -10013.30296100
  entropy T*S    EENTRO =        -0.00000000
  eigenvalues    EBANDS =     -2627.08133535
  atomic energy  EATOM  =     12703.13999606
  Solvation  Ediel_sol  =         0.00000000
  ---------------------------------------------------
  free energy    TOTEN  =      -258.95702267 eV

  energy without entropy =     -258.95702267  energy(sigma->0) =     -258.95702267


--------------------------------------------------------------------------------------------------------




--------------------------------------- Iteration      1(  15)  ---------------------------------------


    POTLOK:  cpu time      0.0528: real time      0.0538
    SETDIJ:  cpu time      0.4036: real time      0.4052
    EDDIAG:  cpu time      0.3535: real time      0.3555
  RMM-DIIS:  cpu time      1.2774: real time      1.2886
    ORTHCH:  cpu time      0.0664: real time      0.0668
       DOS:  cpu time      0.0005: real time      0.0005
    CHARGE:  cpu time      0.0650: real time      0.0661
    MIXING:  cpu time      0.0012: real time      0.0012
    --------------------------------------------
      LOOP:  cpu time      2.2204: real time      2.2379

 eigenvalue-minimisations  :  3063
 total energy-change (2. order) : 0.2278371E-01  (-0.3261271E-01)
 number of electron     239.9999975 magnetization      -0.2313657
 augmentation part        1.8294703 magnetization      -0.2046005

 Broyden mixing:
  rms(total) = 0.68821E-01    rms(broyden)= 0.68818E-01
  rms(prec ) = 0.81689E-01
  weight for this iteration     100.00

 eigenvalues of (default mixing * dielectric matrix)
  average eigenvalue GAMMA=   1.2729
  2.5409  1.5900  0.9477  0.6849  0.6011

 Free energy of the ion-electron system (eV)
  ---------------------------------------------------
  alpha Z        PSCENC =       301.12936285
  Ewald energy   TEWEN  =     -8820.38364380
  -Hartree energ DENC   =     -2205.12365454
  -exchange      EXHF   =         0.00000000
  -V(xc)+E(xc)   XCENC  =       537.91143062
  PAW double counting   =      9841.29773726    -9985.81371065
  entropy T*S    EENTRO =        -0.00000000
  eigenvalues    EBANDS =     -2631.09175677
  atomic energy  EATOM  =     12703.13999606
  Solvation  Ediel_sol  =         0.00000000
  ---------------------------------------------------
  free energy    TOTEN  =      -258.93423897 eV

  energy without entropy =     -258.93423897  energy(sigma->0) =     -258.93423897


--------------------------------------------------------------------------------------------------------




--------------------------------------- Iteration      1(  16)  ---------------------------------------


    POTLOK:  cpu time      0.0524: real time      0.0533
    SETDIJ:  cpu time      0.4045: real time      0.4057
    EDDIAG:  cpu time      0.3546: real time      0.3567
  RMM-DIIS:  cpu time      1.2753: real time      1.2868
    ORTHCH:  cpu time      0.0663: real time      0.0673
       DOS:  cpu time      0.0005: real time      0.0005
    CHARGE:  cpu time      0.0639: real time      0.0651
    MIXING:  cpu time      0.0012: real time      0.0012
    --------------------------------------------
      LOOP:  cpu time      2.2186: real time      2.2366

 eigenvalue-minimisations  :  3083
 total energy-change (2. order) :-0.1987098E-01  (-0.1056800E-01)
 number of electron     239.9999975 magnetization      -0.1088637
 augmentation part        1.8068063 magnetization      -0.0945976

 Broyden mixing:
  rms(total) = 0.30754E-01    rms(broyden)= 0.30752E-01
  rms(prec ) = 0.37223E-01
  weight for this iteration     100.00

 eigenvalues of (default mixing * dielectric matrix)
  average eigenvalue GAMMA=   1.2503
  2.4616  1.9410  1.0350  0.6205  0.6988  0.7447

 Free energy of the ion-electron system (eV)
  ---------------------------------------------------
  alpha Z        PSCENC =       301.12936285
  Ewald energy   TEWEN  =     -8820.38364380
  -Hartree energ DENC   =     -2204.57142833
  -exchange      EXHF   =         0.00000000
  -V(xc)+E(xc)   XCENC  =       537.82586492
  PAW double counting   =      9829.03440516    -9973.31909252
  entropy T*S    EENTRO =        -0.00000000
  eigenvalues    EBANDS =     -2631.80957429
  atomic energy  EATOM  =     12703.13999606
[...]
  0.004  -0.004  -0.000  -0.001   0.004  -0.001  -0.000   0.000  -0.000  -0.000  -0.000   0.000   0.000   0.000
 -0.002   0.001   0.000   0.001  -0.001   0.006   0.000  -0.000   0.000   0.000  -0.000   0.000   0.000  -0.000
  0.011  -0.011  -0.000   0.005  -0.005   0.006   0.000  -0.000   0.000   0.000  -0.000  -0.000  -0.000  -0.000
 -0.010   0.010   0.000  -0.002  -0.003  -0.005  -0.000  -0.000  -0.000  -0.000   0.000  -0.000  -0.000  -0.000
 -0.014   0.014   0.000  -0.005   0.003   0.003  -0.000   0.000   0.000  -0.000  -0.000   0.000   0.000  -0.000
 -0.010   0.010   0.000  -0.005   0.002   0.006  -0.000   0.000   0.000  -0.000  -0.000   0.000   0.000  -0.000
  0.017  -0.018  -0.000   0.002   0.004  -0.008   0.000   0.000  -0.000  -0.000  -0.000  -0.000  -0.000   0.000
 total augmentation occupancy for first ion, spin component:           2
  0.000  -0.000   0.000  -0.000  -0.000  -0.000  -0.000  -0.000   0.000  -0.000   0.000   0.000  -0.000   0.000
 -0.000   0.000  -0.000   0.000   0.000   0.000   0.000   0.000  -0.000   0.000  -0.000  -0.000   0.000  -0.000
  0.000  -0.000  -0.000   0.000   0.000  -0.000   0.000   0.000  -0.000   0.000  -0.000   0.000   0.000   0.000
 -0.000   0.000   0.000  -0.000   0.000  -0.000  -0.000  -0.000   0.000  -0.000   0.000  -0.000   0.000  -0.000
 -0.000   0.000   0.000   0.000  -0.000   0.000  -0.000  -0.000   0.000  -0.000   0.000   0.000  -0.000   0.000
 -0.000   0.000  -0.000  -0.000   0.000  -0.000   0.000   0.000  -0.000   0.000  -0.000   0.000   0.000  -0.000
 -0.000   0.000   0.000  -0.000  -0.000   0.000  -0.000  -0.000   0.000  -0.000   0.000   0.000   0.000  -0.000
 -0.000   0.000   0.000  -0.000  -0.000   0.000  -0.000  -0.000   0.000  -0.000   0.000   0.000   0.000  -0.000
  0.000  -0.000  -0.000   0.000   0.000  -0.000   0.000   0.000  -0.000   0.000  -0.000  -0.000  -0.000   0.000
 -0.000   0.000   0.000  -0.000  -0.000   0.000  -0.000  -0.000   0.000   0.000  -0.000   0.000   0.000  -0.000
  0.000  -0.000  -0.000   0.000   0.000  -0.000   0.000   0.000  -0.000  -0.000   0.000  -0.000  -0.000   0.000
  0.000  -0.000   0.000  -0.000   0.000   0.000   0.000   0.000  -0.000   0.000  -0.000   0.000   0.000   0.000
 -0.000   0.000   0.000   0.000  -0.000   0.000   0.000   0.000  -0.000   0.000  -0.000   0.000  -0.000  -0.000
  0.000  -0.000   0.000  -0.000   0.000  -0.000  -0.000  -0.000   0.000  -0.000   0.000   0.000  -0.000   0.000


------------------------ aborting loop because EDIFF is reached ----------------------------------------


    CHARGE:  cpu time      0.0646: real time      0.0659
    FORLOC:  cpu time      0.0038: real time      0.0038
    FORNL :  cpu time      0.3932: real time      0.3965
    STRESS:  cpu time      1.1681: real time      1.1760
    FORCOR:  cpu time      0.0501: real time      0.0504
    FORHAR:  cpu time      0.0083: real time      0.0083
    MIXING:  cpu time      0.0007: real time      0.0007
    OFIELD:  cpu time      0.0000: real time      0.0000

 ---------------------------------------------------------------------------------------------

         DFTD3 V3.0 Rev 1        
 Edisp (eV)  -13.58086

 E6    (eV) :    -8.3675
 E8    (eV) :    -5.2134
 % E8        : 38.39
    FORVDW:  cpu time      0.2925: real time      0.2945

  FORCE on cell =-STRESS in cart. coord.  units (eV):
  Direction    XX          YY          ZZ          XY          YZ          ZX
  --------------------------------------------------------------------------------------
  Alpha Z   301.12936   301.12936   301.12936
  Ewald   -3025.11182 -2826.45214 -2968.93108     0.07453    -0.27794    -4.84701
  Hartree   692.37183   791.65507   723.12542     0.03337    -0.13361    -0.57691
  E(xc)    -948.03026  -947.63903  -947.92687     0.00018    -0.00055    -0.01014
  Local   -1383.92075 -1663.62654 -1464.32467    -0.09954     0.40277     4.34568
  n-local  1482.12622  1481.03086  1481.18104    -0.00412    -0.00083    -0.12888
  augment  -357.32409  -356.23887  -356.75330     0.00031     0.00015    -0.06032
  Kinetic  3254.01539  3235.64161  3244.98518    -0.01385     0.00964     1.66675
  Fock        0.00000     0.00000     0.00000     0.00000     0.00000     0.00000
  vdW       -14.40721   -14.42806   -14.40776     0.00001    -0.00003    -0.00399
  -------------------------------------------------------------------------------------
  Total       0.84867     1.07227    -1.92268    -0.00910    -0.00039     0.38517
  in kB       1.50835     1.90575    -3.41719    -0.01618    -0.00069     0.68457
  external pressure =       -0.00 kB  Pullay stress =        0.00 kB


 VOLUME and BASIS-vectors are now :
 -----------------------------------------------------------------------------
  energy-cutoff  :      520.00
  volume of cell :      901.46
      direct lattice vectors                 reciprocal lattice vectors
     9.660128762  0.000000000  0.000000000     0.103518289  0.000000000  0.000000000
     0.000000000  9.660128762  0.000000000     0.000000000  0.103518289  0.000000000
     0.000000000  0.000000000  9.660128762     0.000000000  0.000000000  0.103518289

  length of vectors
     9.660128762  9.660128762  9.660128762     0.103518289  0.103518289  0.103518289


 FORCES acting on ions
    electron-ion (+dipol)            ewald-force                    non-local-force                 convergence-correction
 -----------------------------------------------------------------------------------------------
   -.109E+02 0.473E+01 0.463E+01   0.103E+02 -.357E+01 -.337E+01   0.616E+00 -.116E+01 -.126E+01   0.351E-04 0.640E-04 0.426E-04
   0.696E+01 0.103E+02 0.122E+02   -.793E+01 -.897E+01 -.107E+02   0.966E+00 -.136E+01 -.149E+01   0.267E-04 0.469E-04 0.110E-04
   -.698E+01 0.102E+02 -.121E+02   0.795E+01 -.889E+01 0.106E+02   -.965E+00 -.135E+01 0.148E+01   0.366E-04 0.690E-04 -.489E-04
   0.109E+02 0.470E+01 -.461E+01   -.103E+02 -.354E+01 0.335E+01   -.617E+00 -.116E+01 0.126E+01   -.238E-04 0.381E-04 -.599E-04
   -.109E+02 0.473E+01 0.464E+01   0.103E+02 -.357E+01 -.338E+01   0.617E+00 -.116E+01 -.126E+01   -.719E-04 0.616E-04 0.208E-04
   0.300E+01 -.116E+02 -.796E+00   -.180E+01 0.105E+02 0.140E+01   -.120E+01 0.108E+01 -.605E+00   0.600E-04 -.498E-04 0.786E-04
   0.644E+01 -.102E+00 0.416E+01   -.542E+01 -.956E+00 -.333E+01   -.103E+01 0.106E+01 -.829E+00   -.570E-04 0.292E-04 0.129E-04
   -.645E+01 -.960E-01 -.417E+01   0.542E+01 -.964E+00 0.334E+01   0.103E+01 0.106E+01 0.829E+00   0.134E-05 -.864E-05 0.552E-04
   -.354E+01 -.193E+01 0.727E+01   0.225E+01 0.131E+01 -.798E+01   0.130E+01 0.612E+00 0.707E+00   0.541E-05 0.173E-04 -.405E-04
   -.105E+01 0.389E+01 -.528E+01   0.842E-01 -.320E+01 0.637E+01   0.971E+00 -.686E+00 -.109E+01   0.544E-05 -.287E-04 -.142E-04
   -.359E+01 -.191E+01 0.731E+01   0.230E+01 0.129E+01 -.801E+01   0.130E+01 0.611E+00 0.707E+00   0.798E-05 -.711E-05 -.790E-05
   -.108E+01 0.390E+01 -.525E+01   0.110E+00 -.320E+01 0.633E+01   0.972E+00 -.687E+00 -.109E+01   -.202E-04 -.222E-04 0.193E-04
   -.644E+01 -.127E+00 -.418E+01   0.541E+01 -.933E+00 0.335E+01   0.103E+01 0.106E+01 0.829E+00   0.454E-04 -.444E-04 0.618E-04
   0.643E+01 -.782E-01 0.417E+01   -.541E+01 -.980E+00 -.334E+01   -.103E+01 0.106E+01 -.830E+00   0.751E-04 0.602E-04 -.697E-04
   0.302E+01 -.116E+02 -.871E+00   -.182E+01 0.105E+02 0.148E+01   -.120E+01 0.109E+01 -.604E+00   -.349E-05 -.386E-04 0.182E-04
   -.300E+01 -.116E+02 0.762E+00   0.180E+01 0.105E+02 -.137E+01   0.120E+01 0.109E+01 0.605E+00   0.375E-04 -.933E-04 -.148E-03
   0.362E+01 -.185E+01 -.728E+01   -.233E+01 0.123E+01 0.799E+01   -.130E+01 0.612E+00 -.710E+00   0.608E-04 0.530E-04 -.294E-04
   0.103E+01 0.397E+01 0.530E+01   -.575E-01 -.328E+01 -.638E+01   -.972E+00 -.686E+00 0.108E+01   0.845E-04 -.517E-04 0.369E-04
   0.359E+01 -.187E+01 -.725E+01   -.229E+01 0.125E+01 0.795E+01   -.130E+01 0.614E+00 -.708E+00   0.184E-04 -.204E-04 0.465E-04
   0.100E+01 0.395E+01 0.532E+01   -.352E-01 -.326E+01 -.640E+01   -.970E+00 -.684E+00 0.108E+01   -.157E-04 0.611E-04 0.112E-03
   -.302E+01 -.116E+02 0.831E+00   0.181E+01 0.105E+02 -.144E+01   0.120E+01 0.109E+01 0.604E+00   -.296E-04 -.440E-04 0.184E-04
   0.696E+01 0.103E+02 0.122E+02   -.793E+01 -.895E+01 -.107E+02   0.969E+00 -.136E+01 -.148E+01   -.876E-04 0.474E-04 0.707E-04
   -.695E+01 0.102E+02 -.121E+02   0.791E+01 -.888E+01 0.107E+02   -.967E+00 -.136E+01 0.148E+01   -.225E-04 0.669E-04 -.780E-04
   0.109E+02 0.470E+01 -.463E+01   -.103E+02 -.354E+01 0.337E+01   -.615E+00 -.116E+01 0.126E+01   -.677E-04 0.590E-04 -.730E-04
   -.798E+01 -.644E+00 -.325E+01   0.840E+01 0.694E+00 0.321E+01   -.411E+00 -.510E-01 0.311E-01   -.169E-03 0.534E-04 0.353E-04
   0.800E+01 -.735E+00 0.326E+01   -.842E+01 0.788E+00 -.323E+01   0.413E+00 -.544E-01 -.311E-01   -.205E-04 0.315E-04 0.102E-05
   -.796E+01 -.712E+00 -.316E+01   0.838E+01 0.760E+00 0.312E+01   -.414E+00 -.490E-01 0.331E-01   0.126E-04 0.446E-05 0.173E-03
   0.795E+01 -.814E+00 0.317E+01   -.837E+01 0.864E+00 -.313E+01   0.412E+00 -.507E-01 -.316E-01   0.113E-04 0.256E-04 -.108E-03
   -.229E+02 0.408E+02 -.521E+02   0.251E+02 -.440E+02 0.558E+02   -.216E+01 0.321E+01 -.374E+01   0.140E-03 -.354E-04 -.111E-03
   -.295E+02 -.320E+02 0.540E+02   0.327E+02 0.350E+02 -.576E+02   -.318E+01 -.296E+01 0.361E+01   0.251E-04 -.379E-05 0.894E-04
   0.550E+02 0.368E+02 0.265E+02   -.586E+02 -.400E+02 -.288E+02   0.352E+01 0.325E+01 0.230E+01   0.100E-03 0.472E-04 -.675E-04
   0.497E+02 -.467E+02 -.276E+02   -.524E+02 0.504E+02 0.301E+02   0.274E+01 -.365E+01 -.243E+01   0.359E-04 -.590E-04 -.280E-04
   0.295E+02 -.319E+02 -.539E+02   -.326E+02 0.349E+02 0.575E+02   0.318E+01 -.296E+01 -.361E+01   0.962E-04 -.787E-05 -.504E-04
   0.229E+02 0.409E+02 0.521E+02   -.251E+02 -.441E+02 -.558E+02   0.216E+01 0.321E+01 0.374E+01   0.236E-04 -.389E-04 0.751E-04
   -.497E+02 -.466E+02 0.277E+02   0.525E+02 0.502E+02 -.301E+02   -.274E+01 -.365E+01 0.243E+01   0.178E-03 -.104E-03 -.349E-04
   -.551E+02 0.369E+02 -.265E+02   0.586E+02 -.402E+02 0.288E+02   -.352E+01 0.325E+01 -.231E+01   -.157E-04 0.937E-04 0.427E-04
   -.295E+02 -.320E+02 0.540E+02   0.327E+02 0.349E+02 -.576E+02   -.319E+01 -.296E+01 0.361E+01   -.112E-03 -.104E-03 0.188E-03
   -.229E+02 0.408E+02 -.520E+02   0.250E+02 -.440E+02 0.558E+02   -.215E+01 0.321E+01 -.375E+01   0.285E-04 0.140E-04 0.255E-04
   0.498E+02 -.467E+02 -.276E+02   -.525E+02 0.504E+02 0.300E+02   0.274E+01 -.365E+01 -.243E+01   -.482E-04 0.342E-04 0.735E-04
   0.551E+02 0.368E+02 0.265E+02   -.586E+02 -.400E+02 -.288E+02   0.353E+01 0.324E+01 0.231E+01   0.995E-04 0.119E-04 -.344E-04
   -.498E+02 -.466E+02 0.276E+02   0.525E+02 0.502E+02 -.300E+02   -.274E+01 -.365E+01 0.242E+01   -.263E-04 -.405E-04 -.302E-04
   -.551E+02 0.369E+02 -.265E+02   0.586E+02 -.402E+02 0.288E+02   -.352E+01 0.324E+01 -.231E+01   -.353E-03 0.146E-03 -.117E-03
   0.296E+02 -.319E+02 -.540E+02   -.328E+02 0.348E+02 0.576E+02   0.319E+01 -.296E+01 -.361E+01   -.862E-04 0.832E-05 -.116E-03
   0.229E+02 0.409E+02 0.520E+02   -.250E+02 -.441E+02 -.558E+02   0.215E+01 0.321E+01 0.375E+01   -.267E-03 -.580E-04 -.100E-03
   0.586E+00 -.174E+01 0.241E+02   -.673E+00 0.181E+01 -.246E+02   0.871E-01 -.654E-01 0.440E+00   -.786E-04 0.843E-04 0.616E-04
   -.640E+00 -.175E+01 -.241E+02   0.728E+00 0.181E+01 0.246E+02   -.873E-01 -.656E-01 -.443E+00   -.325E-04 0.729E-05 0.540E-04
   0.631E+00 -.176E+01 0.242E+02   -.718E+00 0.182E+01 -.246E+02   0.869E-01 -.655E-01 0.442E+00   0.651E-04 -.549E-04 0.119E-04
   -.597E+00 -.174E+01 -.241E+02   0.684E+00 0.181E+01 0.245E+02   -.865E-01 -.656E-01 -.442E+00   -.151E-04 0.974E-04 -.498E-04
   -.389E+02 -.134E+01 -.252E+00   0.395E+02 0.132E+01 0.275E+00   -.588E+00 0.227E-01 -.237E-01   -.436E-03 -.126E-03 0.137E-03
   0.389E+02 -.116E+01 0.567E-01   -.395E+02 0.114E+01 -.813E-01   0.588E+00 0.245E-01 0.246E-01   0.605E-03 -.741E-04 -.898E-04
   -.388E+02 -.143E+01 -.295E+00   0.393E+02 0.141E+01 0.316E+00   -.586E+00 0.204E-01 -.209E-01   -.448E-03 -.147E-03 -.400E-04
   0.388E+02 -.124E+01 0.899E-01   -.394E+02 0.122E+01 -.111E+00   0.586E+00 0.216E-01 0.206E-01   0.310E-03 -.133E-03 0.198E-04
 -----------------------------------------------------------------------------------------------
   0.172E-02 0.273E+01 0.117E-01   -.782E-13 -.282E-13 -.117E-12   0.254E-02 -.275E+01 -.245E-01   -.275E-03 -.623E-04 0.461E-04
 
 
 POSITION                                       TOTAL-FORCE (eV/Angst)
 -----------------------------------------------------------------------------------
      9.60514      2.00410      1.57774         0.000266     -0.000052     -0.000292
      9.30095      6.58214      6.50199        -0.000277     -0.000325     -0.000192
      0.52290      1.75308      7.92268         0.000348     -0.000349      0.000116
      0.21976      6.83423      3.18722        -0.000249     -0.000017      0.000286
      4.77624      2.00411      6.40887         0.000184      0.000015     -0.000492
      1.58533      8.00820      0.35755        -0.000075      0.000434      0.000279
      6.78210      2.75890      0.12917         0.000124     -0.000085     -0.000262
      7.86866      7.58910      9.46738         0.000423     -0.000088     -0.000048
      3.04401      9.45913      2.75783         0.000512     -0.000069      0.000070
      2.88084      0.17691      6.69919         0.000152     -0.000020     -0.000237
      7.87586      9.45863      7.59075         0.000359     -0.000030     -0.000224
      7.71081      0.17693      1.87010         0.000161     -0.000028     -0.000396
      3.04192      7.58961      4.63530        -0.000037     -0.000111      0.000185
      1.95600      2.75807      4.95675        -0.000220      0.000062     -0.000007
      6.41628      8.01072      5.18912        -0.000206      0.000241      0.000153
      8.23837      3.17810      4.40737         0.000209      0.000369     -0.000357
      1.94896      4.62881      6.83298        -0.000408     -0.000027      0.000404
      2.11287      5.00687      2.89435        -0.000034      0.000035      0.000329
      6.78174      4.62959      2.00653        -0.000799     -0.000160      0.000008
      6.94263      5.00715      7.72589         0.000011     -0.000032      0.000153
      3.40776      3.18022      9.23567         0.000222      0.000145     -0.000171
      4.47200      6.58126      1.67283        -0.000365     -0.000177     -0.000257
      5.35224      1.75252      3.09204         0.000421     -0.000274      0.000172
      5.04825      6.83410      8.01615        -0.000039     -0.000017      0.000426
      4.97790      4.85959      4.83111        -0.000120      0.000036      0.000070
      4.84673      0.02784      9.59344         0.000066      0.000024     -0.000079
      0.14681      4.85862      0.00069        -0.000039      0.000018      0.000143
      0.01706      0.02745      4.76339        -0.000031      0.000055     -0.000064
      1.14606      8.42871      5.93742        -0.000168      0.000109      0.000003
      1.18793      1.10793      3.46318         0.000071     -0.000114     -0.000008
      8.33246      8.52468      3.74394        -0.000061      0.000112      0.000018
      8.69435      1.34754      5.98129         0.000143      0.000158     -0.000109
      8.63679      5.93950      1.30104        -0.000283     -0.000201      0.000215
      8.67779      3.59957      8.48707         0.000122     -0.000007     -0.000017
      1.13013      6.17797      8.44271        -0.000343      0.000092      0.000291
      1.49136      3.69516      1.02013         0.000001      0.000127      0.000004
      6.01887      1.10764      8.29384        -0.000005     -0.000117     -0.000051
      5.97471      8.42991      1.10924        -0.000060      0.000015     -0.000152
      3.86385      1.34908      1.14997         0.000150      0.000081     -0.000006
      3.50210      8.52525      8.57367        -0.000044      0.000056      0.000016
      5.96121      6.17991      3.61427        -0.000153      0.000011      0.000176
      6.32178      3.69598      5.85109        -0.000090      0.000416     -0.000303
      3.80566      5.93905      6.13074        -0.000065     -0.000001      0.000326
      3.84980      3.60121      3.65524         0.000059     -0.000252     -0.000078
      7.22053      7.25879      7.26820        -0.000034     -0.000021      0.000057
      7.43353      2.42862      2.32761         0.000121      0.000007     -0.000173
      2.39114      7.25846      2.43687        -0.000104      0.000042      0.000152
      2.60372      2.42877      7.15625         0.000107     -0.000031     -0.000078
      9.40976      9.65272      9.63327         0.000150      0.000015     -0.000040
      0.41486      4.82232      4.78912        -0.000174     -0.000021      0.000036
      4.57974      9.65352      4.80249         0.000203     -0.000012     -0.000012
      5.24492      4.82325      9.62037        -0.000104     -0.000035      0.000017
 -----------------------------------------------------------------------------------
    total drift:                                0.003989     -0.022691     -0.012752


--------------------------------------------------------------------------------------------------------



  FREE ENERGIE OF THE ION-ELECTRON SYSTEM (eV)
  ---------------------------------------------------
  free  energy   TOTEN  =      -272.54298163 eV

  energy  without entropy=     -272.54298163  energy(sigma->0) =     -272.54298163
 
 d Force = 0.4640697E-06[ 0.317E-06, 0.611E-06]  d Energy = 0.8847236E-06-0.421E-06
 d Force =-0.1989611E-03[-0.199E-03,-0.198E-03]  d Ewald  =-0.1989611E-03-0.200E-10


--------------------------------------------------------------------------------------------------------


    POTLOK:  cpu time      0.4558: real time      0.4578


--------------------------------------------------------------------------------------------------------


 stress matrix after NEB project (eV)
      0.84867     -0.00910      0.38517
     -0.00910      1.07227     -0.00039
      0.38517     -0.00039     -1.92268
  FORCES: max atom, RMS     0.000815    0.000345
  FORCE total and by dimension    0.002486    0.000799
  Stress total and by dimension    2.421486    1.922682
 Conjugate gradient step on ions:
 trial-energy change:   -0.000001  1 .order   -0.000000   -0.000001   -0.000000
  (g-gl).g = 0.500E-06      g.g   = 0.449E-06  gl.gl    = 0.879E-06
 g(Force)  = 0.449E-06   g(Stress)= 0.000E+00 ortho     =-0.513E-07
 gamma     =   0.56867
 trial     =   1.45705
 opt step  =   3.02452  (harmonic =   3.02452) maximal distance =0.00008605
 next E    =  -272.542981   (d E  =  -0.00000)


--------------------------------------------------------------------------------------------------------


  
 reached required accuracy - stopping structural energy minimisation
     LOOP+:  cpu time      7.3657: real time      7.4374
    4ORBIT:  cpu time      0.0000: real time      0.0000

 total amount of memory used by VASP MPI-rank0    48203. kBytes
=======================================================================

   base      :      30000. kBytes
   nonlr-proj:       6543. kBytes
   fftplans  :       1747. kBytes
   grid      :       5278. kBytes
   one-center:         62. kBytes
   wavefun   :       4573. kBytes
 
  
  
 General timing and accounting informations for this job:
 ========================================================
  
                  Total CPU time used (sec):       97.606
                            User time (sec):       96.480
                          System time (sec):        1.126
                         Elapsed time (sec):      101.780
  
                   Maximum memory used (kb):      382904.
                   Average memory used (kb):          N/A
  
                          Minor page faults:        58019
                          Major page faults:          124
                 Voluntary context switches:         5260
