unknown system                          
           1
     9.660129    0.000000    0.000000
     0.000000    9.660129    0.000000
     0.000000    0.000000    9.660129
   Li   P    S    Cl
    24     4    20     4
Direct configuration=     1
   0.99430289  0.20746307  0.16333081
   0.96282326  0.68137877  0.67307939
   0.05412421  0.18148385  0.82013999
   0.02275444  0.70746925  0.32993008
   0.49442540  0.20746314  0.66344467
   0.16411289  0.82898649  0.03700790
   0.70206968  0.28559738  0.01337633
   0.81454274  0.78561153  0.98004782
   0.31510106  0.97919340  0.28548459
   0.29821702  0.01831445  0.69349388
   0.81528827  0.97914182  0.78578589
   0.79820697  0.01831712  0.19359761
   0.31489470  0.78566479  0.47983402
   0.20248603  0.28550855  0.51311491
   0.66420720  0.82925142  0.53716652
   0.85281769  0.32898437  0.45625023
   0.20176121  0.47916665  0.70733185
   0.21872266  0.51830300  0.29961079
   0.70205054  0.47925011  0.20771267
   0.71868972  0.51833279  0.79976640
   0.35276111  0.32920763  0.95606376
   0.46294055  0.68128502  0.17317429
   0.55404915  0.18142394  0.32007938
   0.52258823  0.70745598  0.82981040
   0.51529380  0.50305586  0.50010221
   0.50172551  0.00288184  0.99309866
   0.01520277  0.50295667  0.00006554
   0.00176634  0.00284017  0.49309984
   0.11864207  0.87252673  0.61462718
   0.12296887  0.11469317  0.35850697
   0.86256997  0.88245879  0.38756711
   0.90002316  0.13948582  0.61917401
   0.89407234  0.61485213  0.13467391
   0.89830565  0.37262339  0.87856967
   0.11699326  0.63952233  0.87397257
   0.15437590  0.38251565  0.10559892
   0.62306037  0.11466276  0.85857094
   0.61849158  0.87265467  0.11482668
   0.39997648  0.13964920  0.11904220
   0.36253777  0.88252020  0.88753276
   0.61709789  0.63972708  0.37414411
   0.65441117  0.38260169  0.60569447
   0.39395816  0.61480265  0.63463568
   0.39852227  0.37279461  0.37838539
   0.74745937  0.75141720  0.75239166
   0.76950350  0.25140755  0.24095334
   0.24753115  0.75138308  0.25225859
   0.26952996  0.25142230  0.74080380
   0.97407644  0.99923162  0.99722227
   0.04294985  0.49919688  0.49576039
   0.47408268  0.99931524  0.49714667
   0.54295012  0.49929316  0.99588466
Direct configuration=     2
   0.99430378  0.20746264  0.16332949
   0.96282223  0.68137731  0.67307847
   0.05412520  0.18148224  0.82014057
   0.02275329  0.70746899  0.32993126
   0.49442602  0.20746295  0.66344259
   0.16411235  0.82898828  0.03700888
   0.70207003  0.28559718  0.01337523
   0.81454436  0.78561130  0.98004774
   0.31510310  0.97919323  0.28548499
   0.29821763  0.01831412  0.69349276
   0.81528974  0.97914175  0.78578506
   0.79820758  0.01831686  0.19359597
   0.31489453  0.78566447  0.47983488
   0.20248494  0.28550889  0.51311478
   0.66420614  0.82925243  0.53716705
   0.85281850  0.32898594  0.45624881
   0.20175939  0.47916658  0.70733325
   0.21872225  0.51830286  0.29961229
   0.70204711  0.47924951  0.20771255
   0.71868952  0.51833251  0.79976738
   0.35276211  0.32920831  0.95606314
   0.46293913  0.68128406  0.17317307
   0.55405042  0.18142269  0.32008012
   0.52258794  0.70745567  0.82981213
   0.51529768  0.50305569  0.50010394
   0.50172578  0.00288185  0.99309817
   0.01520152  0.50295646  0.00006687
   0.00176634  0.00284053  0.49309960
   0.11864142  0.87252610  0.61462847
   0.12296971  0.11469288  0.35850572
   0.86256791  0.88245880  0.38756665
   0.90002302  0.13948802  0.61917402
   0.89407093  0.61485087  0.13467548
   0.89830653  0.37262280  0.87856903
   0.11699303  0.63952541  0.87397242
   0.15437787  0.38251549  0.10559980
   0.62306089  0.11466247  0.85856922
   0.61849179  0.87265345  0.11482689
   0.39997665  0.13965076  0.11904273
   0.36253610  0.88251988  0.88753242
   0.61709699  0.63972870  0.37414396
   0.65441247  0.38260222  0.60569405
   0.39395702  0.61480255  0.63463791
   0.39852197  0.37279300  0.37838438
   0.74745880  0.75141719  0.75239146
   0.76950414  0.25140745  0.24095270
   0.24753021  0.75138317  0.25225899
   0.26953059  0.25142225  0.74080372
   0.97407825  0.99923212  0.99722157
   0.04294839  0.49919716  0.49576077
   0.47408434  0.99931545  0.49714638
   0.54294836  0.49929348  0.99588460
Direct configuration=     3
   0.99430445  0.20746231  0.16332848
   0.96282145  0.68137620  0.67307777
   0.05412596  0.18148102  0.82014101
   0.02275241  0.70746878  0.32993216
   0.49442650  0.20746282  0.66344101
   0.16411194  0.82898965  0.03700962
   0.70207030  0.28559703  0.01337439
   0.81454560  0.78561112  0.98004768
   0.31510464  0.97919309  0.28548530
   0.29821810  0.01831386  0.69349191
   0.81529086  0.97914169  0.78578443
   0.79820804  0.01831666  0.19359473
   0.31489439  0.78566423  0.47983553
   0.20248412  0.28550915  0.51311467
   0.66420534  0.82925320  0.53716745
   0.85281912  0.32898715  0.45624773
   0.20175801  0.47916653  0.70733431
   0.21872194  0.51830275  0.29961343
   0.70204450  0.47924905  0.20771245
   0.71868936  0.51833230  0.79976812
   0.35276288  0.32920883  0.95606267
   0.46293806  0.68128333  0.17317215
   0.55405139  0.18142173  0.32008067
   0.52258773  0.70745543  0.82981344
   0.51530063  0.50305557  0.50010527
   0.50172598  0.00288186  0.99309780
   0.01520057  0.50295631  0.00006788
   0.00176634  0.00284081  0.49309942
   0.11864093  0.87252563  0.61462946
   0.12297035  0.11469266  0.35850476
   0.86256634  0.88245881  0.38756630
   0.90002291  0.13948969  0.61917403
   0.89406986  0.61484990  0.13467667
   0.89830720  0.37262236  0.87856854
   0.11699285  0.63952776  0.87397231
   0.15437937  0.38251537  0.10560046
   0.62306129  0.11466225  0.85856791
   0.61849195  0.87265252  0.11482705
   0.39997678  0.13965195  0.11904313
   0.36253482  0.88251963  0.88753217
   0.61709631  0.63972993  0.37414384
   0.65441347  0.38260262  0.60569374
   0.39395616  0.61480248  0.63463962
   0.39852174  0.37279177  0.37838360
   0.74745836  0.75141718  0.75239131
   0.76950463  0.25140737  0.24095222
   0.24752949  0.75138325  0.25225930
   0.26953107  0.25142222  0.74080366
   0.97407963  0.99923249  0.99722103
   0.04294727  0.49919737  0.49576105
   0.47408560  0.99931560  0.49714616
   0.54294701  0.49929372  0.99588455
Direct configuration=     4
   0.99430580  0.20746165  0.16332647
   0.96281988  0.68137397  0.67307637
   0.05412749  0.18147856  0.82014190
   0.02275065  0.70746838  0.32993397
   0.49442745  0.20746254  0.66343785
   0.16411112  0.82899238  0.03701110
   0.70207083  0.28559673  0.01337272
   0.81454808  0.78561077  0.98004756
   0.31510774  0.97919283  0.28548591
   0.29821903  0.01831335  0.69349021
   0.81529309  0.97914158  0.78578317
   0.79820896  0.01831626  0.19359223
   0.31489413  0.78566374  0.47983684
   0.20248247  0.28550966  0.51311447
   0.66420374  0.82925473  0.53716825
   0.85282036  0.32898955  0.45624558
   0.20175523  0.47916643  0.70733644
   0.21872132  0.51830252  0.29961572
   0.70203927  0.47924814  0.20771227
   0.71868906  0.51833187  0.79976960
   0.35276442  0.32920987  0.95606172
   0.46293590  0.68128187  0.17317030
   0.55405332  0.18141982  0.32008179
   0.52258730  0.70745495  0.82981607
   0.51530654  0.50305532  0.50010791
   0.50172639  0.00288188  0.99309706
   0.01519866  0.50295599  0.00006991
   0.00176635  0.00284135  0.49309904
   0.11863994  0.87252468  0.61463144
   0.12297162  0.11469223  0.35850285
   0.86256320  0.88245883  0.38756561
   0.90002270  0.13949304  0.61917405
   0.89406772  0.61484797  0.13467906
   0.89830854  0.37262146  0.87856757
   0.11699250  0.63953245  0.87397209
   0.15438237  0.38251514  0.10560180
   0.62306209  0.11466180  0.85856529
   0.61849226  0.87265067  0.11482736
   0.39997704  0.13965433  0.11904393
   0.36253227  0.88251914  0.88753166
   0.61709494  0.63973238  0.37414360
   0.65441545  0.38260343  0.60569311
   0.39395442  0.61480233  0.63464302
   0.39852129  0.37278931  0.37838205
   0.74745749  0.75141716  0.75239101
   0.76950561  0.25140721  0.24095125
   0.24752807  0.75138340  0.25225991
   0.26953204  0.25142215  0.74080354
   0.97408239  0.99923325  0.99721996
   0.04294504  0.49919780  0.49576162
   0.47408813  0.99931592  0.49714571
   0.54294433  0.49929419  0.99588445
Direct configuration=     5
   0.99430727  0.20746119  0.16332457
   0.96281845  0.68137201  0.67307516
   0.05412926  0.18147633  0.82014264
   0.02274907  0.70746816  0.32993566
   0.49442796  0.20746224  0.66343477
   0.16411053  0.82899487  0.03701245
   0.70207131  0.28559633  0.01337124
   0.81455050  0.78561036  0.98004728
   0.31511069  0.97919260  0.28548629
   0.29821995  0.01831300  0.69348861
   0.81529524  0.97914145  0.78578184
   0.79820987  0.01831598  0.19358991
   0.31489397  0.78566302  0.47983808
   0.20248126  0.28551020  0.51311413
   0.66420236  0.82925623  0.53716905
   0.85282185  0.32899171  0.45624321
   0.20175287  0.47916647  0.70733844
   0.21872106  0.51830232  0.29961790
   0.70203422  0.47924711  0.20771210
   0.71868884  0.51833189  0.79977114
   0.35276567  0.32921080  0.95606081
   0.46293351  0.68128050  0.17316851
   0.55405499  0.18141828  0.32008268
   0.52258660  0.70745465  0.82981836
   0.51530364  0.50305612  0.50010776
   0.50172570  0.00288205  0.99309660
   0.01519775  0.50295600  0.00007124
   0.00176551  0.00284177  0.49309847
   0.11863823  0.87252517  0.61463193
   0.12297237  0.11469133  0.35850224
   0.86256228  0.88246000  0.38756596
   0.90002376  0.13949456  0.61917305
   0.89406547  0.61484652  0.13468093
   0.89830987  0.37262117  0.87856708
   0.11698946  0.63953326  0.87397456
   0.15438299  0.38251630  0.10560172
   0.62306267  0.11466101  0.85856392
   0.61849192  0.87265025  0.11482637
   0.39997891  0.13965464  0.11904328
   0.36253177  0.88251971  0.88753208
   0.61709380  0.63973410  0.37414353
   0.65441975  0.38260195  0.60569463
   0.39395544  0.61480025  0.63464327
   0.39852456  0.37279092  0.37838444
   0.74745693  0.75141706  0.75239122
   0.76950637  0.25140709  0.24094981
   0.24752698  0.75138363  0.25226095
   0.26953276  0.25142202  0.74080285
   0.97408175  0.99923343  0.99721976
   0.04294592  0.49919830  0.49576183
   0.47408706  0.99931599  0.49714580
   0.54294506  0.49929469  0.99588426
