  52  52   0  16
  0.1727474E+02  0.9648764E-09  0.9648764E-09  0.9648764E-09  0.2000000E-15
  1.000000000000000E-004
  CAR 
 unknown system                          
     12.64555780    -45.38327054  301      2.41797680      1.00000000
    -45.383  0.0000E+00  0.0000E+00  0.0000E+00  0.0000E+00
    -45.190  0.0000E+00  0.0000E+00  0.0000E+00  0.0000E+00
    -44.996  0.0000E+00  0.0000E+00  0.0000E+00  0.0000E+00
    -44.803  0.0000E+00  0.0000E+00  0.0000E+00  0.0000E+00
    -44.610  0.0000E+00  0.0000E+00  0.0000E+00  0.0000E+00
    -44.416  0.0000E+00  0.0000E+00  0.0000E+00  0.0000E+00
    -44.223  0.0000E+00  0.0000E+00  0.0000E+00  0.0000E+00
    -44.029  0.0000E+00  0.0000E+00  0.0000E+00  0.0000E+00
    -43.836  0.0000E+00  0.0000E+00  0.0000E+00  0.0000E+00
    -43.642  0.0000E+00  0.0000E+00  0.0000E+00  0.0000E+00
    -43.449  0.0000E+00  0.0000E+00  0.0000E+00  0.0000E+00
    -43.256  0.0000E+00  0.0000E+00  0.0000E+00  0.0000E+00
    -43.062  0.0000E+00  0.0000E+00  0.0000E+00  0.0000E+00
    -42.869  0.1687E-10  0.1687E-10  0.3264E-11  0.3264E-11
    -42.675  0.1124E-01  0.1124E-01  0.2173E-02  0.2173E-02
    -42.482  0.2691E-01  0.2691E-01  0.7380E-02  0.7380E-02
    -42.288  0.5331E-01  0.5331E-01  0.1771E-01  0.1771E-01
    -42.095  0.1795E-01  0.1795E-01  0.2120E-01  0.2120E-01
    -41.902  0.1280E-01  0.1280E-01  0.2368E-01  0.2368E-01
    -41.708  0.1654E-02  0.1654E-02  0.2400E-01  0.2400E-01
    -41.515  0.0000E+00  0.0000E+00  0.2400E-01  0.2400E-01
    -41.321  0.0000E+00  0.0000E+00  0.2400E-01  0.2400E-01
    -41.128  0.0000E+00  0.0000E+00  0.2400E-01  0.2400E-01
    -40.934  0.0000E+00  0.0000E+00  0.2400E-01  0.2400E-01
    -40.741  0.0000E+00  0.0000E+00  0.2400E-01  0.2400E-01
    -40.548  0.0000E+00  0.0000E+00  0.2400E-01  0.2400E-01
    -40.354  0.0000E+00  0.0000E+00  0.2400E-01  0.2400E-01
    -40.161  0.0000E+00  0.0000E+00  0.2400E-01  0.2400E-01
    -39.967  0.0000E+00  0.0000E+00  0.2400E-01  0.2400E-01
    -39.774  0.0000E+00  0.0000E+00  0.2400E-01  0.2400E-01
    -39.580  0.0000E+00  0.0000E+00  0.2400E-01  0.2400E-01
    -39.387  0.0000E+00  0.0000E+00  0.2400E-01  0.2400E-01
    -39.194  0.0000E+00  0.0000E+00  0.2400E-01  0.2400E-01
    -39.000  0.0000E+00  0.0000E+00  0.2400E-01  0.2400E-01
    -38.807  0.0000E+00  0.0000E+00  0.2400E-01  0.2400E-01
    -38.613  0.0000E+00  0.0000E+00  0.2400E-01  0.2400E-01
    -38.420  0.0000E+00  0.0000E+00  0.2400E-01  0.2400E-01
    -38.226  0.0000E+00  0.0000E+00  0.2400E-01  0.2400E-01
    -38.033  0.0000E+00  0.0000E+00  0.2400E-01  0.2400E-01
    -37.840  0.0000E+00  0.0000E+00  0.2400E-01  0.2400E-01
    -37.646  0.0000E+00  0.0000E+00  0.2400E-01  0.2400E-01
    -37.453  0.0000E+00  0.0000E+00  0.2400E-01  0.2400E-01
    -37.259  0.0000E+00  0.0000E+00  0.2400E-01  0.2400E-01
    -37.066  0.0000E+00  0.0000E+00  0.2400E-01  0.2400E-01
    -36.872  0.0000E+00  0.0000E+00  0.2400E-01  0.2400E-01
    -36.679  0.0000E+00  0.0000E+00  0.2400E-01  0.2400E-01
    -36.486  0.0000E+00  0.0000E+00  0.2400E-01  0.2400E-01
    -36.292  0.0000E+00  0.0000E+00  0.2400E-01  0.2400E-01
    -36.099  0.0000E+00  0.0000E+00  0.2400E-01  0.2400E-01
    -35.905  0.0000E+00  0.0000E+00  0.2400E-01  0.2400E-01
    -35.712  0.0000E+00  0.0000E+00  0.2400E-01  0.2400E-01
    -35.518  0.0000E+00  0.0000E+00  0.2400E-01  0.2400E-01
    -35.325  0.0000E+00  0.0000E+00  0.2400E-01  0.2400E-01
    -35.132  0.0000E+00  0.0000E+00  0.2400E-01  0.2400E-01
    -34.938  0.0000E+00  0.0000E+00  0.2400E-01  0.2400E-01
    -34.745  0.0000E+00  0.0000E+00  0.2400E-01  0.2400E-01
    -34.551  0.0000E+00  0.0000E+00  0.2400E-01  0.2400E-01
    -34.358  0.0000E+00  0.0000E+00  0.2400E-01  0.2400E-01
    -34.164  0.0000E+00  0.0000E+00  0.2400E-01  0.2400E-01
    -33.971  0.0000E+00  0.0000E+00  0.2400E-01  0.2400E-01
    -33.778  0.0000E+00  0.0000E+00  0.2400E-01  0.2400E-01
    -33.584  0.0000E+00  0.0000E+00  0.2400E-01  0.2400E-01
    -33.391  0.0000E+00  0.0000E+00  0.2400E-01  0.2400E-01
    -33.197  0.0000E+00  0.0000E+00  0.2400E-01  0.2400E-01
    -33.004  0.0000E+00  0.0000E+00  0.2400E-01  0.2400E-01
    -32.810  0.0000E+00  0.0000E+00  0.2400E-01  0.2400E-01
    -32.617  0.0000E+00  0.0000E+00  0.2400E-01  0.2400E-01
    -32.423  0.0000E+00  0.0000E+00  0.2400E-01  0.2400E-01
    -32.230  0.0000E+00  0.0000E+00  0.2400E-01  0.2400E-01
    -32.037  0.0000E+00  0.0000E+00  0.2400E-01  0.2400E-01
    -31.843  0.0000E+00  0.0000E+00  0.2400E-01  0.2400E-01
    -31.650  0.0000E+00  0.0000E+00  0.2400E-01  0.2400E-01
    -31.456  0.0000E+00  0.0000E+00  0.2400E-01  0.2400E-01
    -31.263  0.0000E+00  0.0000E+00  0.2400E-01  0.2400E-01
    -31.069  0.0000E+00  0.0000E+00  0.2400E-01  0.2400E-01
    -30.876  0.0000E+00  0.0000E+00  0.2400E-01  0.2400E-01
    -30.683  0.0000E+00  0.0000E+00  0.2400E-01  0.2400E-01
    -30.489  0.0000E+00  0.0000E+00  0.2400E-01  0.2400E-01
    -30.296  0.0000E+00  0.0000E+00  0.2400E-01  0.2400E-01
    -30.102  0.0000E+00  0.0000E+00  0.2400E-01  0.2400E-01
    -29.909  0.0000E+00  0.0000E+00  0.2400E-01  0.2400E-01
    -29.715  0.0000E+00  0.0000E+00  0.2400E-01  0.2400E-01
    -29.522  0.0000E+00  0.0000E+00  0.2400E-01  0.2400E-01
    -29.329  0.0000E+00  0.0000E+00  0.2400E-01  0.2400E-01
    -29.135  0.0000E+00  0.0000E+00  0.2400E-01  0.2400E-01
    -28.942  0.0000E+00  0.0000E+00  0.2400E-01  0.2400E-01
    -28.748  0.0000E+00  0.0000E+00  0.2400E-01  0.2400E-01
    -28.555  0.0000E+00  0.0000E+00  0.2400E-01  0.2400E-01
    -28.361  0.0000E+00  0.0000E+00  0.2400E-01  0.2400E-01
    -28.168  0.0000E+00  0.0000E+00  0.2400E-01  0.2400E-01
    -27.975  0.0000E+00  0.0000E+00  0.2400E-01  0.2400E-01
    -27.781  0.0000E+00  0.0000E+00  0.2400E-01  0.2400E-01
    -27.588  0.0000E+00  0.0000E+00  0.2400E-01  0.2400E-01
    -27.394  0.0000E+00  0.0000E+00  0.2400E-01  0.2400E-01
    -27.201  0.0000E+00  0.0000E+00  0.2400E-01  0.2400E-01
    -27.007  0.0000E+00  0.0000E+00  0.2400E-01  0.2400E-01
    -26.814  0.0000E+00  0.0000E+00  0.2400E-01  0.2400E-01
    -26.621  0.0000E+00  0.0000E+00  0.2400E-01  0.2400E-01
    -26.427  0.0000E+00  0.0000E+00  0.2400E-01  0.2400E-01
    -26.234  0.0000E+00  0.0000E+00  0.2400E-01  0.2400E-01
    -26.040  0.0000E+00  0.0000E+00  0.2400E-01  0.2400E-01
    -25.847  0.0000E+00  0.0000E+00  0.2400E-01  0.2400E-01
    -25.653  0.0000E+00  0.0000E+00  0.2400E-01  0.2400E-01
    -25.460  0.0000E+00  0.0000E+00  0.2400E-01  0.2400E-01
    -25.267  0.0000E+00  0.0000E+00  0.2400E-01  0.2400E-01
    -25.073  0.0000E+00  0.0000E+00  0.2400E-01  0.2400E-01
    -24.880  0.0000E+00  0.0000E+00  0.2400E-01  0.2400E-01
    -24.686  0.0000E+00  0.0000E+00  0.2400E-01  0.2400E-01
    -24.493  0.0000E+00  0.0000E+00  0.2400E-01  0.2400E-01
    -24.299  0.0000E+00  0.0000E+00  0.2400E-01  0.2400E-01
    -24.106  0.0000E+00  0.0000E+00  0.2400E-01  0.2400E-01
    -23.913  0.0000E+00  0.0000E+00  0.2400E-01  0.2400E-01
    -23.719  0.0000E+00  0.0000E+00  0.2400E-01  0.2400E-01
    -23.526  0.0000E+00  0.0000E+00  0.2400E-01  0.2400E-01
    -23.332  0.0000E+00  0.0000E+00  0.2400E-01  0.2400E-01
    -23.139  0.0000E+00  0.0000E+00  0.2400E-01  0.2400E-01
    -22.945  0.0000E+00  0.0000E+00  0.2400E-01  0.2400E-01
    -22.752  0.0000E+00  0.0000E+00  0.2400E-01  0.2400E-01
    -22.559  0.0000E+00  0.0000E+00  0.2400E-01  0.2400E-01
    -22.365  0.0000E+00  0.0000E+00  0.2400E-01  0.2400E-01
    -22.172  0.0000E+00  0.0000E+00  0.2400E-01  0.2400E-01
    -21.978  0.0000E+00  0.0000E+00  0.2400E-01  0.2400E-01
    -21.785  0.0000E+00  0.0000E+00  0.2400E-01  0.2400E-01
    -21.591  0.0000E+00  0.0000E+00  0.2400E-01  0.2400E-01
    -21.398  0.0000E+00  0.0000E+00  0.2400E-01  0.2400E-01
    -21.205  0.0000E+00  0.0000E+00  0.2400E-01  0.2400E-01
    -21.011  0.0000E+00  0.0000E+00  0.2400E-01  0.2400E-01
    -20.818  0.0000E+00  0.0000E+00  0.2400E-01  0.2400E-01
    -20.624  0.0000E+00  0.0000E+00  0.2400E-01  0.2400E-01
    -20.431  0.0000E+00  0.0000E+00  0.2400E-01  0.2400E-01
    -20.237  0.0000E+00  0.0000E+00  0.2400E-01  0.2400E-01
    -20.044  0.0000E+00  0.0000E+00  0.2400E-01  0.2400E-01
    -19.851  0.0000E+00  0.0000E+00  0.2400E-01  0.2400E-01
    -19.657  0.0000E+00  0.0000E+00  0.2400E-01  0.2400E-01
    -19.464  0.0000E+00  0.0000E+00  0.2400E-01  0.2400E-01
    -19.270  0.0000E+00  0.0000E+00  0.2400E-01  0.2400E-01
    -19.077  0.0000E+00  0.0000E+00  0.2400E-01  0.2400E-01
    -18.883  0.0000E+00  0.0000E+00  0.2400E-01  0.2400E-01
    -18.690  0.0000E+00  0.0000E+00  0.2400E-01  0.2400E-01
    -18.497  0.0000E+00  0.0000E+00  0.2400E-01  0.2400E-01
    -18.303  0.0000E+00  0.0000E+00  0.2400E-01  0.2400E-01
    -18.110  0.0000E+00  0.0000E+00  0.2400E-01  0.2400E-01
    -17.916  0.0000E+00  0.0000E+00  0.2400E-01  0.2400E-01
    -17.723  0.0000E+00  0.0000E+00  0.2400E-01  0.2400E-01
    -17.529  0.0000E+00  0.0000E+00  0.2400E-01  0.2400E-01
    -17.336  0.0000E+00  0.0000E+00  0.2400E-01  0.2400E-01
    -17.143  0.0000E+00  0.0000E+00  0.2400E-01  0.2400E-01
    -16.949  0.0000E+00  0.0000E+00  0.2400E-01  0.2400E-01
    -16.756  0.0000E+00  0.0000E+00  0.2400E-01  0.2400E-01
    -16.562  0.0000E+00  0.0000E+00  0.2400E-01  0.2400E-01
    -16.369  0.0000E+00  0.0000E+00  0.2400E-01  0.2400E-01
    -16.175  0.0000E+00  0.0000E+00  0.2400E-01  0.2400E-01
    -15.982  0.0000E+00  0.0000E+00  0.2400E-01  0.2400E-01
    -15.789  0.0000E+00  0.0000E+00  0.2400E-01  0.2400E-01
    -15.595  0.0000E+00  0.0000E+00  0.2400E-01  0.2400E-01
    -15.402  0.0000E+00  0.0000E+00  0.2400E-01  0.2400E-01
    -15.208  0.0000E+00  0.0000E+00  0.2400E-01  0.2400E-01
    -15.015  0.0000E+00  0.0000E+00  0.2400E-01  0.2400E-01
    -14.821  0.0000E+00  0.0000E+00  0.2400E-01  0.2400E-01
    -14.628  0.0000E+00  0.0000E+00  0.2400E-01  0.2400E-01
    -14.435  0.0000E+00  0.0000E+00  0.2400E-01  0.2400E-01
    -14.241  0.0000E+00  0.0000E+00  0.2400E-01  0.2400E-01
    -14.048  0.0000E+00  0.0000E+00  0.2400E-01  0.2400E-01
    -13.854  0.0000E+00  0.0000E+00  0.2400E-01  0.2400E-01
    -13.661  0.0000E+00  0.0000E+00  0.2400E-01  0.2400E-01
    -13.467  0.0000E+00  0.0000E+00  0.2400E-01  0.2400E-01
    -13.274  0.0000E+00  0.0000E+00  0.2400E-01  0.2400E-01
    -13.081  0.1008E-04  0.1008E-04  0.2400E-01  0.2400E-01
    -12.887  0.1625E-01  0.1625E-01  0.2714E-01  0.2714E-01
    -12.694  0.1443E-01  0.1443E-01  0.2994E-01  0.2994E-01
    -12.500  0.1067E-01  0.1067E-01  0.3200E-01  0.3200E-01
    -12.307  0.0000E+00  0.0000E+00  0.3200E-01  0.3200E-01
    -12.113  0.0000E+00  0.0000E+00  0.3200E-01  0.3200E-01
    -11.920  0.0000E+00  0.0000E+00  0.3200E-01  0.3200E-01
    -11.727  0.0000E+00  0.0000E+00  0.3200E-01  0.3200E-01
    -11.533  0.0000E+00  0.0000E+00  0.3200E-01  0.3200E-01
    -11.340  0.0000E+00  0.0000E+00  0.3200E-01  0.3200E-01
    -11.146  0.0000E+00  0.0000E+00  0.3200E-01  0.3200E-01
    -10.953  0.0000E+00  0.0000E+00  0.3200E-01  0.3200E-01
    -10.759  0.0000E+00  0.0000E+00  0.3200E-01  0.3200E-01
    -10.566  0.0000E+00  0.0000E+00  0.3200E-01  0.3200E-01
    -10.373  0.6874E-11  0.6873E-11  0.3200E-01  0.3200E-01
    -10.179  0.1294E-01  0.1294E-01  0.3450E-01  0.3450E-01
     -9.986  0.1464E-01  0.1464E-01  0.3734E-01  0.3734E-01
     -9.792  0.2929E-01  0.2929E-01  0.4300E-01  0.4300E-01
     -9.599  0.5158E-02  0.5158E-02  0.4400E-01  0.4400E-01
     -9.405  0.0000E+00  0.0000E+00  0.4400E-01  0.4400E-01
     -9.212  0.0000E+00  0.0000E+00  0.4400E-01  0.4400E-01
     -9.019  0.0000E+00  0.0000E+00  0.4400E-01  0.4400E-01
     -8.825  0.0000E+00  0.0000E+00  0.4400E-01  0.4400E-01
     -8.632  0.1933E-02  0.1933E-02  0.4437E-01  0.4437E-01
     -8.438  0.3243E-02  0.3243E-02  0.4500E-01  0.4500E-01
     -8.245  0.1029E-01  0.1029E-01  0.4699E-01  0.4699E-01
     -8.051  0.0000E+00  0.0000E+00  0.4700E-01  0.4700E-01
     -7.858  0.0000E+00  0.0000E+00  0.4700E-01  0.4700E-01
     -7.665  0.5631E-03  0.5631E-03  0.4711E-01  0.4711E-01
     -7.471  0.4607E-02  0.4607E-02  0.4800E-01  0.4800E-01
     -7.278  0.0000E+00  0.0000E+00  0.4800E-01  0.4800E-01
     -7.084  0.0000E+00  0.0000E+00  0.4800E-01  0.4800E-01
     -6.891  0.0000E+00  0.0000E+00  0.4800E-01  0.4800E-01
     -6.697  0.0000E+00  0.0000E+00  0.4800E-01  0.4800E-01
     -6.504  0.0000E+00  0.0000E+00  0.4800E-01  0.4800E-01
     -6.311  0.0000E+00  0.0000E+00  0.4800E-01  0.4800E-01
     -6.117  0.5338E-04  0.5339E-04  0.4801E-01  0.4801E-01
     -5.924  0.5116E-02  0.5116E-02  0.4900E-01  0.4900E-01
     -5.730  0.7007E-04  0.7007E-04  0.4901E-01  0.4901E-01
     -5.537  0.1150E-01  0.1150E-01  0.5124E-01  0.5124E-01
     -5.343  0.3921E-02  0.3921E-02  0.5200E-01  0.5200E-01
     -5.150  0.0000E+00  0.0000E+00  0.5200E-01  0.5200E-01
     -4.957  0.0000E+00  0.0000E+00  0.5200E-01  0.5200E-01
     -4.763  0.0000E+00  0.0000E+00  0.5200E-01  0.5200E-01
     -4.570  0.0000E+00  0.0000E+00  0.5200E-01  0.5200E-01
     -4.376  0.0000E+00  0.0000E+00  0.5200E-01  0.5200E-01
     -4.183  0.0000E+00  0.0000E+00  0.5200E-01  0.5200E-01
     -3.989  0.0000E+00  0.0000E+00  0.5200E-01  0.5200E-01
     -3.796  0.0000E+00  0.0000E+00  0.5200E-01  0.5200E-01
     -3.603  0.0000E+00  0.0000E+00  0.5200E-01  0.5200E-01
     -3.409  0.0000E+00  0.0000E+00  0.5200E-01  0.5200E-01
     -3.216  0.2190E-03  0.2190E-03  0.5204E-01  0.5204E-01
     -3.022  0.1529E-01  0.1529E-01  0.5500E-01  0.5500E-01
     -2.829  0.6739E-03  0.6739E-03  0.5513E-01  0.5513E-01
     -2.635  0.1248E-01  0.1248E-01  0.5754E-01  0.5754E-01
     -2.442  0.9664E-02  0.9664E-02  0.5941E-01  0.5941E-01
     -2.249  0.1823E-01  0.1823E-01  0.6294E-01  0.6294E-01
     -2.055  0.5457E-02  0.5457E-02  0.6400E-01  0.6400E-01
     -1.862  0.0000E+00  0.0000E+00  0.6400E-01  0.6400E-01
     -1.668  0.1111E-02  0.1111E-02  0.6421E-01  0.6421E-01
     -1.475  0.2069E-01  0.2069E-01  0.6822E-01  0.6822E-01
     -1.281  0.1779E-01  0.1779E-01  0.7166E-01  0.7166E-01
     -1.088  0.2234E-01  0.2234E-01  0.7598E-01  0.7598E-01
     -0.895  0.7532E-04  0.7531E-04  0.7600E-01  0.7600E-01
     -0.701  0.1893E-11  0.1893E-11  0.7600E-01  0.7600E-01
     -0.508  0.8494E-02  0.8494E-02  0.7764E-01  0.7764E-01
     -0.314  0.1161E-01  0.1161E-01  0.7989E-01  0.7989E-01
     -0.121  0.1244E-01  0.1244E-01  0.8230E-01  0.8230E-01
      0.073  0.2671E-01  0.2671E-01  0.8747E-01  0.8747E-01
      0.266  0.2235E-01  0.2235E-01  0.9179E-01  0.9179E-01
      0.460  0.1879E-01  0.1879E-01  0.9543E-01  0.9543E-01
      0.653  0.2937E-02  0.2937E-02  0.9600E-01  0.9600E-01
      0.846  0.1028E-01  0.1028E-01  0.9799E-01  0.9799E-01
      1.040  0.2001E-01  0.2001E-01  0.1019E+00  0.1019E+00
      1.233  0.2268E-01  0.2268E-01  0.1062E+00  0.1062E+00
      1.427  0.2525E-01  0.2525E-01  0.1111E+00  0.1111E+00
      1.620  0.2128E-01  0.2128E-01  0.1153E+00  0.1153E+00
      1.814  0.1147E-01  0.1147E-01  0.1175E+00  0.1175E+00
      2.007  0.5843E-02  0.5843E-02  0.1186E+00  0.1186E+00
      2.200  0.7209E-02  0.7209E-02  0.1200E+00  0.1200E+00
      2.394  0.0000E+00  0.0000E+00  0.1200E+00  0.1200E+00
      2.587  0.0000E+00  0.0000E+00  0.1200E+00  0.1200E+00
      2.781  0.0000E+00  0.0000E+00  0.1200E+00  0.1200E+00
      2.974  0.0000E+00  0.0000E+00  0.1200E+00  0.1200E+00
      3.168  0.0000E+00  0.0000E+00  0.1200E+00  0.1200E+00
      3.361  0.0000E+00  0.0000E+00  0.1200E+00  0.1200E+00
      3.554  0.0000E+00  0.0000E+00  0.1200E+00  0.1200E+00
      3.748  0.0000E+00  0.0000E+00  0.1200E+00  0.1200E+00
      3.941  0.0000E+00  0.0000E+00  0.1200E+00  0.1200E+00
      4.135  0.0000E+00  0.0000E+00  0.1200E+00  0.1200E+00
      4.328  0.1205E-14  0.1205E-14  0.1200E+00  0.1200E+00
      4.522  0.4921E-02  0.4921E-02  0.1210E+00  0.1210E+00
      4.715  0.2487E-03  0.2487E-03  0.1210E+00  0.1210E+00
      4.908  0.0000E+00  0.0000E+00  0.1210E+00  0.1210E+00
      5.102  0.8699E-13  0.8701E-13  0.1210E+00  0.1210E+00
      5.295  0.3702E-02  0.3702E-02  0.1217E+00  0.1217E+00
      5.489  0.1178E-01  0.1178E-01  0.1240E+00  0.1240E+00
      5.682  0.0000E+00  0.0000E+00  0.1240E+00  0.1240E+00
      5.876  0.5511E-05  0.5512E-05  0.1240E+00  0.1240E+00
      6.069  0.1161E-01  0.1161E-01  0.1262E+00  0.1262E+00
      6.262  0.1628E-01  0.1628E-01  0.1294E+00  0.1294E+00
      6.456  0.3112E-02  0.3112E-02  0.1300E+00  0.1300E+00
      6.649  0.1114E-01  0.1114E-01  0.1322E+00  0.1322E+00
      6.843  0.7686E-02  0.7686E-02  0.1336E+00  0.1336E+00
      7.036  0.1217E-01  0.1217E-01  0.1360E+00  0.1360E+00
      7.230  0.5164E-02  0.5164E-02  0.1370E+00  0.1370E+00
      7.423  0.5151E-02  0.5151E-02  0.1380E+00  0.1380E+00
      7.616  0.9875E-02  0.9875E-02  0.1399E+00  0.1399E+00
      7.810  0.1216E-01  0.1216E-01  0.1423E+00  0.1423E+00
      8.003  0.1065E-01  0.1065E-01  0.1443E+00  0.1443E+00
      8.197  0.1442E-01  0.1442E-01  0.1471E+00  0.1471E+00
      8.390  0.1360E-01  0.1360E-01  0.1497E+00  0.1497E+00
      8.584  0.1471E-01  0.1471E-01  0.1526E+00  0.1526E+00
      8.777  0.1397E-01  0.1397E-01  0.1553E+00  0.1553E+00
      8.970  0.1809E-01  0.1809E-01  0.1588E+00  0.1588E+00
      9.164  0.1652E-01  0.1652E-01  0.1620E+00  0.1620E+00
      9.357  0.2081E-01  0.2080E-01  0.1660E+00  0.1660E+00
      9.551  0.1712E-01  0.1714E-01  0.1693E+00  0.1693E+00
      9.744  0.1626E-01  0.1627E-01  0.1725E+00  0.1725E+00
      9.938  0.1303E-01  0.1432E-01  0.1750E+00  0.1753E+00
     10.131  0.5083E-02  0.3805E-02  0.1760E+00  0.1760E+00
     10.324  0.0000E+00  0.0000E+00  0.1760E+00  0.1760E+00
     10.518  0.0000E+00  0.0000E+00  0.1760E+00  0.1760E+00
     10.711  0.0000E+00  0.0000E+00  0.1760E+00  0.1760E+00
     10.905  0.0000E+00  0.0000E+00  0.1760E+00  0.1760E+00
     11.098  0.0000E+00  0.0000E+00  0.1760E+00  0.1760E+00
     11.292  0.0000E+00  0.0000E+00  0.1760E+00  0.1760E+00
     11.485  0.0000E+00  0.0000E+00  0.1760E+00  0.1760E+00
     11.678  0.0000E+00  0.0000E+00  0.1760E+00  0.1760E+00
     11.872  0.0000E+00  0.0000E+00  0.1760E+00  0.1760E+00
     12.065  0.0000E+00  0.0000E+00  0.1760E+00  0.1760E+00
     12.259  0.0000E+00  0.0000E+00  0.1760E+00  0.1760E+00
     12.452  0.0000E+00  0.0000E+00  0.1760E+00  0.1760E+00
     12.646  0.0000E+00  0.0000E+00  0.1760E+00  0.1760E+00
