 vasp.6.4.1 05Apr23 (build Jun 07 2023 15:38:11) complex                        
  
 executed on             LinuxIFC date 2023.10.20  18:36:33
 running  128 mpi-ranks, with    1 threads/rank, on    1 nodes
 distrk:  each k-point on  128 cores,    1 groups
 distr:  one band on NCORE=  32 cores,    4 groups


--------------------------------------------------------------------------------------------------------


 INCAR:
   GGA = PE
   PREC = Accu
   EDIFF = 1.e-6
   EDIFFG = -1.e-3
   ENCUT = 520.
   NELM = 100
   NELMDL = -10
   LASPH = .TRUE.
   LREAL = Auto
   LMAXMIX = 4
   ISPIN = 2
   LDIAG = .TRUE.
   LPLANE = .TRUE.
   IVDW = 12
   SIGMA = 0.03
   ISMEAR = 0
   NSW = 1000    number of steps for IOM
   IBRION = 2    ionic relax: 0-MD 1-quasi-New 2-CG
   ISIF = 2    ionic relaxation + stress tensor calcn.
   LCHARG = .FALSE.
   LWAVE = .FALSE.
   ALGO = F
   KPAR = 1
   NPAR = 4
   POTIM = 0.2

 POTCAR:    PAW_PBE Li_sv_GW 25Mar2010            
 POTCAR:    PAW_PBE P_GW 19Mar2012                
 POTCAR:    PAW_PBE S_GW 19Mar2012                
 POTCAR:    PAW_PBE Cl_GW 19Mar2012               
 -----------------------------------------------------------------------------
|                                                                             |
|           W    W    AA    RRRRR   N    N  II  N    N   GGGG   !!!           |
|           W    W   A  A   R    R  NN   N  II  NN   N  G    G  !!!           |
|           W    W  A    A  R    R  N N  N  II  N N  N  G       !!!           |
|           W WW W  AAAAAA  RRRRR   N  N N  II  N  N N  G  GGG   !            |
|           WW  WW  A    A  R   R   N   NN  II  N   NN  G    G                |
|           W    W  A    A  R    R  N    N  II  N    N   GGGG   !!!           |
|                                                                             |
|     You use a magnetic or noncollinear calculation, but did not specify     |
|     the initial magnetic moment with the MAGMOM tag. Note that a            |
|     default of 1 will be used for all atoms. This ferromagnetic setup       |
|     may break the symmetry of the crystal, in particular it may rule        |
|     out finding an antiferromagnetic solution. Thence, we recommend         |
|     setting the initial magnetic moment manually or verifying carefully     |
|     that this magnetic setup is desired.                                    |
|                                                                             |
 -----------------------------------------------------------------------------

 POTCAR:    PAW_PBE Li_sv_GW 25Mar2010            
   SHA256 =  24a6ace15a582615486b36ce4dc781b048409f4015b7684ed1273ae395fa2fdc Li_sv_GW/POTCAR       
   COPYR  = (c) Copyright 25Mar2010 Georg Kresse                                                    
   COPYR  = This file is part of the software VASP. Any use, copying, and all other rights are regul
   COPYR  = If you do not have a valid VASP license, you may not use, copy or distribute this file. 
   VRHFIN =Li: 1s2s                                                                                 
   LEXCH  = PE                                                                                      
   EATOM  =   200.9989 eV,   14.7730 Ry                                                             
                                                                                                    
   TITEL  = PAW_PBE Li_sv_GW 25Mar2010                                                              
   LULTRA =        F    use ultrasoft PP ?                                                          
   IUNSCR =        0    unscreen: 0-lin 1-nonlin 2-no                                               
   RPACOR =    0.000    partial core radius                                                         
   POMASS =    7.010; ZVAL   =    3.000    mass and valenz                                          
   RCORE  =    1.500    outmost cutoff radius                                                       
   RWIGS  =    1.600; RWIGS  =    0.847    wigner-seitz radius (au A)                               
   ENMAX  =  433.699; ENMIN  =  325.274 eV                                                          
   RCLOC  =    1.003    cutoff for local pot                                                        
   LCOR   =        T    correct aug charges                                                         
   LPAW   =        T    paw PP                                                                      
   EAUG   = 1041.699                                                                                
   RMAX   =    1.536    core radius for proj-oper                                                   
   RAUG   =    1.300    factor for augmentation sphere                                              
   RDEP   =    1.520    radius for radial grids                                                     
   RDEPT  =    1.300    core radius for aug-charge                                                  
                                                                                                    
   Atomic configuration                                                                             
    4 entries                                                                                       
     n  l   j            E        occ.                                                              
     1  0  0.50       -53.3604   2.0000                                                             
     1  0  0.50       -52.0001   0.0000                                                             
     2  1  0.50        -1.5636   1.0000                                                             
     3  2  1.50        -1.3606   0.0000                                                             
   Description                                                                                      
     l       E           TYP  RCUT    TYP  RCUT                                                     
     0    -53.3603633     23  1.200                                                                 
     0    -52.0001064     23  1.200                                                                 
     0    176.8757380     23  1.300                                                                 
     1     -1.5635925     23  1.500                                                                 
     1    108.8466080     23  1.500                                                                 
     2     81.6349560     23  1.500                                                                 
  local pseudopotential read in
  kinetic energy density of atom read in
  atomic valenz-charges read in
  non local Contribution for L=           0  read in
    real space projection operators read in
  non local Contribution for L=           0  read in
    real space projection operators read in
  non local Contribution for L=           0  read in
    real space projection operators read in
  non local Contribution for L=           1  read in
    real space projection operators read in
  non local Contribution for L=           1  read in
    real space projection operators read in
  non local Contribution for L=           2  read in
    real space projection operators read in
    PAW grid and wavefunctions read in
 
   number of l-projection  operators is LMAX  =           6
   number of lm-projection operators is LMMAX =          14
 
 POTCAR:    PAW_PBE P_GW 19Mar2012                
   SHA256 =  715c28f2291d37b61637ce89646c59f66f71c8b8d8bfba631e5feb9f7b42defe P_GW/POTCAR           
   COPYR  = (c) Copyright 19Mar2012 Georg Kresse                                                    
   COPYR  = This file is part of the software VASP. Any use, copying, and all other rights are regul
   COPYR  = If you do not have a valid VASP license, you may not use, copy or distribute this file. 
   VRHFIN =P : s2p3                                                                                 
   LEXCH  = PE                                                                                      
   EATOM  =   176.0430 eV,   12.9388 Ry                                                             
                                                                                                    
   TITEL  = PAW_PBE P_GW 19Mar2012                                                                  
   LULTRA =        F    use ultrasoft PP ?                                                          
   IUNSCR =        1    unscreen: 0-lin 1-nonlin 2-no                                               
   RPACOR =    1.400    partial core radius                                                         
   POMASS =   30.974; ZVAL   =    5.000    mass and valenz                                          
   RCORE  =    2.000    outmost cutoff radius                                                       
   RWIGS  =    1.900; RWIGS  =    1.005    wigner-seitz radius (au A)                               
   ENMAX  =  255.040; ENMIN  =  191.280 eV                                                          
   ICORE  =        3    local potential                                                             
   LCOR   =        T    correct aug charges                                                         
   LPAW   =        T    paw PP                                                                      
   EAUG   =  499.732                                                                                
   DEXC   =    0.000                                                                                
   RMAX   =    2.047    core radius for proj-oper                                                   
   RAUG   =    1.300    factor for augmentation sphere                                              
   RDEP   =    2.059    radius for radial grids                                                     
   RDEPT  =    1.900    core radius for aug-charge                                                  
                                                                                                    
   Atomic configuration                                                                             
    7 entries                                                                                       
     n  l   j            E        occ.                                                              
     1  0  0.50     -2084.0982   2.0000                                                             
     2  0  0.50      -173.9859   2.0000                                                             
     2  1  1.50      -124.4865   6.0000                                                             
     3  0  0.50       -13.9692   2.0000                                                             
     3  1  0.50        -5.5067   3.0000                                                             
     3  2  1.50        -6.8029   0.0000                                                             
     4  3  2.50        -1.3606   0.0000                                                             
   Description                                                                                      
     l       E           TYP  RCUT    TYP  RCUT                                                     
     0    -13.9691528     23  1.900                                                                 
     0    102.0436950     23  1.900                                                                 
     1     -5.5066939     23  1.900                                                                 
     1    102.0436950     23  1.900                                                                 
     2     -8.1634956     23  2.000                                                                 
     2     81.6349560     23  2.000                                                                 
     3     27.2116520     23  2.000                                                                 
  local pseudopotential read in
  partial core-charges read in
  partial kinetic energy density read in
  kinetic energy density of atom read in
  atomic valenz-charges read in
  non local Contribution for L=           0  read in
    real space projection operators read in
  non local Contribution for L=           0  read in
    real space projection operators read in
  non local Contribution for L=           1  read in
    real space projection operators read in
  non local Contribution for L=           1  read in
    real space projection operators read in
  non local Contribution for L=           2  read in
    real space projection operators read in
  non local Contribution for L=           2  read in
    real space projection operators read in
    PAW grid and wavefunctions read in
 
   number of l-projection  operators is LMAX  =           6
   number of lm-projection operators is LMMAX =          18
 
 POTCAR:    PAW_PBE S_GW 19Mar2012                
   SHA256 =  357db9cfb0783579b2eebe03197c2d807131fea8ea663b1fcfb6ce2fa75af011 S_GW/POTCAR           
   COPYR  = (c) Copyright 19Mar2012 Georg Kresse                                                    
   COPYR  = This file is part of the software VASP. Any use, copying, and all other rights are regul
   COPYR  = If you do not have a valid VASP license, you may not use, copy or distribute this file. 
   VRHFIN =S : s2p4                                                                                 
   LEXCH  = PE                                                                                      
   EATOM  =   276.8230 eV,   20.3459 Ry                                                             
                                                                                                    
   TITEL  = PAW_PBE S_GW 19Mar2012                                                                  
   LULTRA =        F    use ultrasoft PP ?                                                          
   IUNSCR =        1    unscreen: 0-lin 1-nonlin 2-no                                               
   RPACOR =    1.400    partial core radius                                                         
   POMASS =   32.066; ZVAL   =    6.000    mass and valenz                                          
   RCORE  =    1.900    outmost cutoff radius                                                       
   RWIGS  =    1.900; RWIGS  =    1.005    wigner-seitz radius (au A)                               
   ENMAX  =  258.689; ENMIN  =  194.016 eV                                                          
   ICORE  =        3    local potential                                                             
   LCOR   =        T    correct aug charges                                                         
   LPAW   =        T    paw PP                                                                      
   EAUG   =  488.319                                                                                
   DEXC   =    0.000                                                                                
   RMAX   =    1.942    core radius for proj-oper                                                   
   RAUG   =    1.300    factor for augmentation sphere                                              
   RDEP   =    1.954    radius for radial grids                                                     
   RDEPT  =    1.900    core radius for aug-charge                                                  
                                                                                                    
   Atomic configuration                                                                             
    7 entries                                                                                       
     n  l   j            E        occ.                                                              
     1  0  0.50     -2405.8406   2.0000                                                             
     2  0  0.50      -211.7007   2.0000                                                             
     2  1  1.50      -156.4958   6.0000                                                             
     3  0  0.50       -17.2562   2.0000                                                             
     3  1  0.50        -7.0085   4.0000                                                             
     3  2  1.50        -8.1635   0.0000                                                             
     4  3  2.50        -1.3606   0.0000                                                             
   Description                                                                                      
     l       E           TYP  RCUT    TYP  RCUT                                                     
     0    -17.2561639     23  1.700                                                                 
     0     88.4378690     23  1.900                                                                 
     1     -7.0085399     23  1.900                                                                 
     1     88.4378690     23  1.900                                                                 
     2    -10.8846608     23  1.900                                                                 
     2     54.4233040     23  1.900                                                                 
     3     27.2116520     23  1.800                                                                 
  local pseudopotential read in
  partial core-charges read in
  partial kinetic energy density read in
  kinetic energy density of atom read in
  atomic valenz-charges read in
  non local Contribution for L=           0  read in
    real space projection operators read in
  non local Contribution for L=           0  read in
    real space projection operators read in
  non local Contribution for L=           1  read in
    real space projection operators read in
  non local Contribution for L=           1  read in
    real space projection operators read in
  non local Contribution for L=           2  read in
    real space projection operators read in
  non local Contribution for L=           2  read in
    real space projection operators read in
    PAW grid and wavefunctions read in
 
   number of l-projection  operators is LMAX  =           6
   number of lm-projection operators is LMMAX =          18
 
 POTCAR:    PAW_PBE Cl_GW 19Mar2012               
   SHA256 =  3ef3b3169d6a9a89979f58b4cf17d927a58518fc660d8883d88cacaee8175441 Cl_GW/POTCAR          
   COPYR  = (c) Copyright 19Mar2012 Georg Kresse                                                    
   COPYR  = This file is part of the software VASP. Any use, copying, and all other rights are regul
   COPYR  = If you do not have a valid VASP license, you may not use, copy or distribute this file. 
   VRHFIN =Cl: s2p5                                                                                 
   LEXCH  = PE                                                                                      
   EATOM  =   409.7259 eV,   30.1140 Ry                                                             
                                                                                                    
   TITEL  = PAW_PBE Cl_GW 19Mar2012                                                                 
   LULTRA =        F    use ultrasoft PP ?                                                          
   IUNSCR =        1    unscreen: 0-lin 1-nonlin 2-no                                               
   RPACOR =    1.400    partial core radius                                                         
   POMASS =   35.453; ZVAL   =    7.000    mass and valenz                                          
   RCORE  =    1.900    outmost cutoff radius                                                       
   RWIGS  =    1.900; RWIGS  =    1.005    wigner-seitz radius (au A)                               
   ENMAX  =  262.472; ENMIN  =  196.854 eV                                                          
   ICORE  =        3    local potential                                                             
   LCOR   =        T    correct aug charges                                                         
   LPAW   =        T    paw PP                                                                      
   EAUG   =  456.703                                                                                
   DEXC   =    0.000                                                                                
   RMAX   =    1.945    core radius for proj-oper                                                   
   RAUG   =    1.300    factor for augmentation sphere                                              
   RDEP   =    2.020    radius for radial grids                                                     
   RDEPT  =    1.900    core radius for aug-charge                                                  
                                                                                                    
   Atomic configuration                                                                             
    7 entries                                                                                       
     n  l   j            E        occ.                                                              
     1  0  0.50     -2751.1850   2.0000                                                             
     2  0  0.50      -252.6861   2.0000                                                             
     2  1  1.50      -191.6157   6.0000                                                             
     3  0  0.50       -20.6916   2.0000                                                             
     3  1  0.50        -8.5949   5.0000                                                             
     3  2  1.50        -9.5241   0.0000                                                             
     4  3  2.50        -9.5241   0.0000                                                             
   Description                                                                                      
     l       E           TYP  RCUT    TYP  RCUT                                                     
     0    -20.6915657     23  1.700                                                                 
     0     95.2407820     23  1.800                                                                 
     1     -8.5948577     23  1.900                                                                 
     1     95.2407820     23  1.900                                                                 
     2    -10.8846608     23  1.900                                                                 
     2     54.4233040     23  1.900                                                                 
     3     27.2116520     23  1.900                                                                 
  local pseudopotential read in
  partial core-charges read in
  partial kinetic energy density read in
  kinetic energy density of atom read in
  atomic valenz-charges read in
  non local Contribution for L=           0  read in
    real space projection operators read in
  non local Contribution for L=           0  read in
    real space projection operators read in
  non local Contribution for L=           1  read in
    real space projection operators read in
  non local Contribution for L=           1  read in
    real space projection operators read in
  non local Contribution for L=           2  read in
    real space projection operators read in
  non local Contribution for L=           2  read in
    real space projection operators read in
    PAW grid and wavefunctions read in
 
   number of l-projection  operators is LMAX  =           6
   number of lm-projection operators is LMMAX =          18
 
 Optimization of the real space projectors (new method)

 maximal supplied QI-value         = 25.13
 optimisation between [QCUT,QGAM] = [ 11.56, 23.12] = [ 37.43,149.72] Ry 
 Optimized for a Real-space Cutoff    1.28 Angstroem

   l    n(q)    QCUT    max X(q) W(low)/X(q) W(high)/X(q)  e(spline) 
   0      9    11.561    87.733    0.11E-03    0.32E-04    0.56E-06
   0      9    11.561    82.800    0.11E-03    0.35E-04    0.56E-06
   0      9    11.561     2.509    0.22E-03    0.42E-04    0.79E-06
   1      8    11.561    12.580    0.94E-04    0.26E-03    0.21E-06
   1      8    11.561     1.319    0.33E-04    0.15E-03    0.19E-06
   2      8    11.561     1.993    0.36E-04    0.89E-04    0.26E-06
 Optimization of the real space projectors (new method)

 maximal supplied QI-value         = 18.90
 optimisation between [QCUT,QGAM] = [ 11.53, 23.24] = [ 37.21,151.29] Ry 
 Optimized for a Real-space Cutoff    1.21 Angstroem

   l    n(q)    QCUT    max X(q) W(low)/X(q) W(high)/X(q)  e(spline) 
   0      8    11.527     8.355    0.73E-04    0.70E-04    0.26E-07
   0      8    11.527     1.401    0.17E-03    0.17E-03    0.63E-07
   1      8    11.527     4.747    0.13E-03    0.17E-03    0.11E-06
   1      8    11.527     2.025    0.16E-03    0.18E-03    0.12E-06
   2      7    11.527     3.169    0.51E-04    0.25E-03    0.60E-07
   2      7    11.527     3.441    0.82E-04    0.22E-03    0.14E-06
 Optimization of the real space projectors (new method)

 maximal supplied QI-value         = 19.84
 optimisation between [QCUT,QGAM] = [ 11.51, 23.22] = [ 37.09,150.92] Ry 
 Optimized for a Real-space Cutoff    1.49 Angstroem

   l    n(q)    QCUT    max X(q) W(low)/X(q) W(high)/X(q)  e(spline) 
   0     10    11.508     7.541    0.34E-04    0.13E-04    0.69E-07
   0     10    11.508     1.809    0.49E-04    0.27E-04    0.14E-06
   1     10    11.508     4.107    0.27E-05    0.41E-05    0.14E-06
   1     10    11.508     2.196    0.26E-05    0.25E-05    0.22E-06
   2      9    11.508     4.265    0.18E-03    0.11E-03    0.81E-06
   2      9    11.508     1.925    0.97E-04    0.76E-04    0.47E-06
 Optimization of the real space projectors (new method)

 maximal supplied QI-value         = 19.84
 optimisation between [QCUT,QGAM] = [ 11.51, 23.22] = [ 37.09,150.92] Ry 
 Optimized for a Real-space Cutoff    1.21 Angstroem

   l    n(q)    QCUT    max X(q) W(low)/X(q) W(high)/X(q)  e(spline) 
   0      8    11.508     6.761    0.57E-04    0.57E-04    0.35E-07
   0      8    11.508     1.642    0.14E-03    0.14E-03    0.91E-07
   1      8    11.508     3.519    0.20E-04    0.72E-04    0.47E-07
   1      8    11.508     2.150    0.27E-04    0.11E-03    0.89E-07
   2      7    11.508     2.976    0.19E-03    0.33E-03    0.16E-06
   2      7    11.508     1.494    0.14E-03    0.29E-03    0.14E-06
  PAW_PBE Li_sv_GW 25Mar2010            :
 energy of atom  1       EATOM= -200.9989
 kinetic energy error for atom=    0.0127 (will be added to EATOM!!)
  PAW_PBE P_GW 19Mar2012                :
 energy of atom  2       EATOM= -176.0430
 kinetic energy error for atom=    0.0011 (will be added to EATOM!!)
  PAW_PBE S_GW 19Mar2012                :
 energy of atom  3       EATOM= -276.8230
 kinetic energy error for atom=    0.0024 (will be added to EATOM!!)
  PAW_PBE Cl_GW 19Mar2012               :
 energy of atom  4       EATOM= -409.7259
 kinetic energy error for atom=    0.0030 (will be added to EATOM!!)
 
 
 POSCAR: Li24 P4 S20 Cl4
  positions in direct lattice
  velocities in cartesian coordinates
 exchange correlation table for  LEXCH =        8
   RHO(1)=    0.500       N(1)  =     2000
   RHO(2)=  100.500       N(2)  =     4000

 VTST: version 4.1, (05/19/21)

 CHAIN: initializing optimizer
 
 OPT: Using VASP Conjugate-Gradient optimizer
 CHAIN: Read ICHAIN            0
 
 POSCAR: Li24 P4 S20 Cl4
  positions in direct lattice
  velocities in cartesian coordinates
 


--------------------------------------------------------------------------------------------------------


 ion  position               nearest neighbor table
   1  0.967  0.316  0.327-
   2  0.972  0.705  0.702-
   3  0.999  0.291  0.709-
   4  0.038  0.669  0.345-
   5  0.316  0.320  0.953-
   6  0.156  0.802  0.052-
   7  0.805  0.206  0.010-
   8  0.796  0.782  0.983-
   9  0.304  0.977  0.290-
  10  0.187  0.039  0.840-
  11  0.820  0.976  0.794-
  12  0.830  0.016  0.209-
  13  0.303  0.795  0.496-
  14  0.314  0.183  0.544-
  15  0.682  0.807  0.512-
  16  0.666  0.179  0.461-
  17  0.204  0.475  0.680-
  18  0.276  0.515  0.201-
  19  0.712  0.472  0.182-
  20  0.772  0.523  0.651-
  21  0.528  0.641  0.845-
  22  0.483  0.699  0.211-
  23  0.516  0.280  0.208-
  24  0.537  0.921  0.722-
  25  0.498  0.485  0.506-  42 2.02  44 2.06  43 2.07  41 2.07
  26  0.501  0.993  0.005-  37 2.04  38 2.05  39 2.05  40 2.07
  27  0.998  0.497  0.998-  36 2.05  35 2.05  34 2.06  33 2.07
  28  0.001  0.998  0.504-  30 2.04  31 2.05  29 2.06  32 2.06
  29  0.121  0.889  0.641-  28 2.06
  30  0.121  0.119  0.379-  28 2.04
  31  0.887  0.860  0.387-  28 2.05
  32  0.860  0.122  0.606-  28 2.06
  33  0.898  0.624  0.138-  27 2.07
  34  0.850  0.404  0.876-  27 2.06
  35  0.127  0.618  0.881-  27 2.05
  36  0.109  0.355  0.112-  27 2.05
  37  0.615  0.109  0.870-  26 2.04
  38  0.626  0.882  0.138-  26 2.05
  39  0.364  0.120  0.106-  26 2.05
  40  0.375  0.856  0.898-  26 2.07
  41  0.634  0.599  0.387-  25 2.07
  42  0.598  0.351  0.633-  25 2.02
  43  0.393  0.621  0.633-  25 2.07
  44  0.364  0.373  0.385-  25 2.06
  45  0.733  0.753  0.748-
  46  0.749  0.242  0.242-
  47  0.253  0.744  0.267-
  48  0.226  0.252  0.750-
  49  0.969  0.984  0.993-
  50  0.994  0.502  0.531-
  51  0.486  0.986  0.491-
  52  0.489  0.495  0.048-
 
  LATTYP: Found a simple cubic cell.
 ALAT       =     9.6487635207
  
  Lattice vectors:
  
 A1 = (   9.6487635207,   0.0000000000,   0.0000000000)
 A2 = (   0.0000000000,   9.6487635207,   0.0000000000)
 A3 = (   0.0000000000,   0.0000000000,   9.6487635207)


Analysis of symmetry for initial positions (statically):
=====================================================================
 Subroutine PRICEL returns:
 Original cell was already a primitive cell.
 

 Routine SETGRP: Setting up the symmetry group for a 
 simple cubic supercell.


 Subroutine GETGRP returns: Found  1 space group operations
 (whereof  1 operations were pure point group operations)
 out of a pool of 48 trial point group operations.


The static configuration has the point symmetry C_1 .


Analysis of symmetry for dynamics (positions and initial velocities):
=====================================================================
 Subroutine PRICEL returns:
 Original cell was already a primitive cell.
 

 Routine SETGRP: Setting up the symmetry group for a 
 simple cubic supercell.


 Subroutine GETGRP returns: Found  1 space group operations
 (whereof  1 operations were pure point group operations)
 out of a pool of 48 trial point group operations.


The dynamic configuration has the point symmetry C_1 .


Analysis of structural, dynamic, and magnetic symmetry:
=====================================================================
 Subroutine PRICEL returns:
 Original cell was already a primitive cell.
 

 Routine SETGRP: Setting up the symmetry group for a 
 simple cubic supercell.


 Subroutine GETGRP returns: Found  1 space group operations
 (whereof  1 operations were pure point group operations)
 out of a pool of 48 trial point group operations.


The overall configuration has the point symmetry C_1 .


 Subroutine INISYM returns: Found  1 space group operations
 (whereof  1 operations are pure point group operations),
 and found     1 'primitive' translations


----------------------------------------------------------------------------------------

                                     Primitive cell                                     

  volume of cell :     898.2867

  direct lattice vectors                    reciprocal lattice vectors
     9.648763521  0.000000000  0.000000000     0.103640223  0.000000000  0.000000000
     0.000000000  9.648763521  0.000000000     0.000000000  0.103640223  0.000000000
     0.000000000  0.000000000  9.648763521     0.000000000  0.000000000  0.103640223

  length of vectors
     9.648763521  9.648763521  9.648763521     0.103640223  0.103640223  0.103640223

  position of ions in fractional coordinates (direct lattice)
     0.966756291  0.316121616  0.327277650
     0.971934937  0.705103351  0.702047476
     0.998634922  0.291349513  0.709153201
     0.038215457  0.668594516  0.345140139
     0.316440235  0.320370311  0.952998423
     0.156489889  0.802362302  0.052478943
     0.804762172  0.206271212  0.009810960
     0.796049688  0.782017473  0.983155901
     0.303897230  0.976506512  0.289542955
     0.186960971  0.038565525  0.839990064
     0.820354250  0.976189225  0.794080496
     0.830292548  0.016387134  0.209060925
     0.302767576  0.794561880  0.495709965
     0.313808585  0.182566591  0.544124703
     0.681998601  0.806979419  0.511510756
     0.666113813  0.178983860  0.460580907
     0.204313508  0.475274784  0.679957770
     0.275885495  0.514675553  0.200927904
     0.711774841  0.472224599  0.182286332
     0.771910756  0.523207316  0.650769805
     0.528115166  0.641075655  0.844566626
     0.482701457  0.699155535  0.211382386
     0.515546878  0.280095572  0.207680963
     0.536515133  0.921262416  0.721509515
     0.497943609  0.484554923  0.506301953
     0.500963661  0.992590605  0.005172144
     0.997993261  0.496809512  0.998488653
     0.000652923  0.997762090  0.503697067
     0.121496237  0.888736003  0.641133310
     0.121045995  0.119119758  0.379071266
     0.887474863  0.859986296  0.387315312
     0.860230542  0.121518333  0.605734235
     0.897717174  0.624282085  0.138285212
     0.850240352  0.404365879  0.875877208
     0.126872737  0.618155496  0.881023708
     0.108826028  0.355436741  0.111519802
     0.614744572  0.109099967  0.869636927
     0.625528111  0.881985701  0.137659086
     0.363724141  0.120157147  0.106175889
     0.374988572  0.855810563  0.897918707
     0.634185063  0.598975586  0.386719292
     0.598081803  0.350563387  0.632735656
     0.392570727  0.621047098  0.633352008
     0.363733616  0.372661929  0.384500342
     0.732799910  0.753235749  0.747909390
     0.749399159  0.242155149  0.242123999
     0.253488192  0.744118145  0.266670877
     0.225622002  0.251552850  0.749553126
     0.969280210  0.984307121  0.992533097
     0.994485027  0.502205361  0.531167447
     0.485582232  0.985502072  0.491315055
     0.488532761  0.494678055  0.048259192

  ion indices of the primitive-cell ions
   primitive index   ion index
                 1           1
                 2           2
                 3           3
                 4           4
                 5           5
                 6           6
                 7           7
                 8           8
                 9           9
                10          10
                11          11
                12          12
                13          13
                14          14
                15          15
                16          16
                17          17
                18          18
                19          19
                20          20
                21          21
                22          22
                23          23
                24          24
                25          25
                26          26
                27          27
                28          28
                29          29
                30          30
                31          31
                32          32
                33          33
                34          34
                35          35
                36          36
                37          37
                38          38
                39          39
                40          40
                41          41
                42          42
                43          43
                44          44
                45          45
                46          46
                47          47
                48          48
                49          49
                50          50
                51          51
                52          52

----------------------------------------------------------------------------------------

 
 
 KPOINTS: Automatic mesh                          

Automatic generation of k-mesh.
 Grid dimensions read from file:
 generate k-points for:    2    2    2

 Generating k-lattice:

  Cartesian coordinates                     Fractional coordinates (reciprocal lattice)
     0.051820111  0.000000000  0.000000000     0.500000000  0.000000000  0.000000000
     0.000000000  0.051820111  0.000000000     0.000000000  0.500000000  0.000000000
     0.000000000  0.000000000  0.051820111     0.000000000  0.000000000  0.500000000

  Length of vectors
     0.051820111  0.051820111  0.051820111

  Shift w.r.t. Gamma in fractional coordinates (k-lattice)
     0.500000000  0.500000000  0.500000000

 
 Subroutine IBZKPT returns following result:
 ===========================================
 
 Found      4 irreducible k-points:
 
 Following reciprocal coordinates:
            Coordinates               Weight
  0.250000  0.250000  0.250000      2.000000
 -0.250000  0.250000  0.250000      2.000000
 -0.250000 -0.250000  0.250000      2.000000
  0.250000 -0.250000  0.250000      2.000000
 
 Following cartesian coordinates:
            Coordinates               Weight
  0.025910  0.025910  0.025910      2.000000
 -0.025910  0.025910  0.025910      2.000000
 -0.025910 -0.025910  0.025910      2.000000
  0.025910 -0.025910  0.025910      2.000000
 


--------------------------------------------------------------------------------------------------------




 Dimension of arrays:
   k-points           NKPTS =      4   k-points in BZ     NKDIM =      4   number of bands    NBANDS=    176
   number of dos      NEDOS =    301   number of ions     NIONS =     52
   non local maximal  LDIM  =      6   non local SUM 2l+1 LMDIM =     18
   total plane-waves  NPLWV = 373248
   max r-space proj   IRMAX =   5797   max aug-charges    IRDMAX=  17734
   dimension x,y,z NGX =    72 NGY =   72 NGZ =   72
   dimension x,y,z NGXF=   144 NGYF=  144 NGZF=  144
   support grid    NGXF=   144 NGYF=  144 NGZF=  144
   ions per type =              24   4  20   4
   NGX,Y,Z   is equivalent  to a cutoff of  12.41, 12.41, 12.41 a.u.
   NGXF,Y,Z  is equivalent  to a cutoff of  24.81, 24.81, 24.81 a.u.

 SYSTEM =  unknown system                          
 POSCAR =  Li24 P4 S20 Cl4                         

 Startparameter for this run:
   NWRITE =      2    write-flag & timer
   PREC   = accu      normal or accurate (medium, high low for compatibility)
   ISTART =      0    job   : 0-new  1-cont  2-samecut
   ICHARG =      2    charge: 1-file 2-atom 10-const
   ISPIN  =      2    spin polarized calculation?
   LNONCOLLINEAR =      F non collinear calculations
   LSORBIT =      F    spin-orbit coupling
   INIWAV =      1    electr: 0-lowe 1-rand  2-diag
   LASPH  =      T    aspherical Exc in radial PAW
 Electronic Relaxation 1
   ENCUT  =  520.0 eV  38.22 Ry    6.18 a.u.  17.94 17.94 17.94*2*pi/ulx,y,z
   ENINI  =  520.0     initial cutoff
   ENAUG  = 1041.7 eV  augmentation charge cutoff
   NELM   =    100;   NELMIN=  2; NELMDL=-10     # of ELM steps 
   EDIFF  = 0.1E-05   stopping-criterion for ELM
   LREAL  =      T    real-space projection
   NLSPLINE    = F    spline interpolate recip. space projectors
   LCOMPAT=      F    compatible to vasp.4.4
   GGA_COMPAT  = T    GGA compatible to vasp.4.4-vasp.4.6
   LMAXPAW     = -100 max onsite density
   LMAXMIX     =    4 max onsite mixed and CHGCAR
   VOSKOWN=      0    Vosko Wilk Nusair interpolation
   ROPT   =   -0.00025  -0.00025  -0.00025  -0.00025
 Ionic relaxation
   EDIFFG = -.1E-02   stopping-criterion for IOM
   NSW    =   1000    number of steps for IOM
   NBLOCK =      1;   KBLOCK =   1000    inner block; outer block 
   IBRION =      2    ionic relax: 0-MD 1-quasi-New 2-CG
   NFREE  =      1    steps in history (QN), initial steepest desc. (CG)
   ISIF   =      2    stress and relaxation
   IWAVPR =     11    prediction:  0-non 1-charg 2-wave 3-comb
   ISYM   =      2    0-nonsym 1-usesym 2-fastsym
   LCORR  =      T    Harris-Foulkes like correction to forces

   POTIM  = 0.2000    time-step for ionic-motion
   TEIN   =    0.0    initial temperature
   TEBEG  =    0.0;   TEEND  =   0.0 temperature during run
   SMASS  =  -3.00    Nose mass-parameter (am)
   estimated Nose-frequenzy (Omega)   =  0.10E-29 period in steps = 0.31E+47 mass=  -0.213E-26a.u.
   SCALEE = 1.0000    scale energy and forces
   NPACO  =    256;   APACO  = 10.0  distance and # of slots for P.C.
   PSTRESS=    0.0 pullay stress

  Mass of Ions in am
   POMASS =   7.01 30.97 32.07 35.45
  Ionic Valenz
   ZVAL   =   3.00  5.00  6.00  7.00
  Atomic Wigner-Seitz radii
   RWIGS  =  -1.00 -1.00 -1.00 -1.00
  virtual crystal weights 
   VCA    =   1.00  1.00  1.00  1.00
   NELECT =     240.0000    total number of electrons
   NUPDOWN=      -1.0000    fix difference up-down

 DOS related values:
   EMIN   =  10.00;   EMAX   =-10.00  energy-range for DOS
   EFERMI =   0.00;   METHOD = LEGACY      
   ISMEAR =     0;   SIGMA  =   0.03  broadening in eV -4-tet -1-fermi 0-gaus

 Electronic relaxation 2 (details)
   IALGO  =     68    algorithm
   LDIAG  =      T    sub-space diagonalisation (order eigenvalues)
   LSUBROT=      F    optimize rotation matrix (better conditioning)
   TURBO    =      0    0=normal 1=particle mesh
   IRESTART =      0    0=no restart 2=restart with 2 vectors
   NREBOOT  =      0    no. of reboots
   NMIN     =      0    reboot dimension
   EREF     =   0.00    reference energy to select bands
   IMIX   =      4    mixing-type and parameters
     AMIX     =   0.40;   BMIX     =  1.00
     AMIX_MAG =   1.60;   BMIX_MAG =  1.00
     AMIN     =   0.10
     WC   =   100.;   INIMIX=   1;  MIXPRE=   1;  MAXMIX= -45

 Intra band minimization:
   WEIMIN = 0.0010     energy-eigenvalue tresh-hold
   EBREAK =  0.14E-08  absolut break condition
   DEPER  =   0.30     relativ break condition  

   TIME   =   0.40     timestep for ELM

  volume/ion in A,a.u.               =      17.27       116.58
  Fermi-wavevector in a.u.,A,eV,Ry     =   1.054404  1.992534 15.126510  1.111767
  Thomas-Fermi vector in A             =   2.189563
 
 Write flags
   LWAVE        =      F    write WAVECAR
   LDOWNSAMPLE  =      F    k-point downsampling of WAVECAR
   LCHARG       =      F    write CHGCAR
   LVTOT        =      F    write LOCPOT, total local potential
   LVHAR        =      F    write LOCPOT, Hartree potential only
   LELF         =      F    write electronic localiz. function (ELF)
   LORBIT       =      0    0 simple, 1 ext, 2 COOP (PROOUT), +10 PAW based schemes


 Dipole corrections
   LMONO  =      F    monopole corrections only (constant potential shift)
   LDIPOL =      F    correct potential (dipole corrections)
   IDIPOL =      0    1-x, 2-y, 3-z, 4-all directions 
   EPSILON=  1.0000000 bulk dielectric constant

 Exchange correlation treatment:
   GGA     =    PE    GGA type
   LEXCH   =     8    internal setting for exchange type
   LIBXC   =     F    Libxc                    
   VOSKOWN =     0    Vosko Wilk Nusair interpolation
   LHFCALC =     F    Hartree Fock is set to
   LHFONE  =     F    Hartree Fock one center treatment
   AEXX    =    0.0000 exact exchange contribution

 Linear response parameters
   LEPSILON=     F    determine dielectric tensor
   LRPA    =     F    only Hartree local field effects (RPA)
   LNABLA  =     F    use nabla operator in PAW spheres
   LVEL    =     F    velocity operator in full k-point grid
   CSHIFT  =0.1000    complex shift for real part using Kramers Kronig
   OMEGAMAX=  -1.0    maximum frequency
   DEG_THRESHOLD= 0.2000000E-02 threshold for treating states as degnerate
   RTIME   =   -0.100 relaxation time in fs
  (WPLASMAI=    0.000 imaginary part of plasma frequency in eV, 0.658/RTIME)
   DFIELD  = 0.0000000 0.0000000 0.0000000 field for delta impulse in time
 
  Optional k-point grid parameters
   LKPOINTS_OPT  =     F    use optional k-point grid
   KPOINTS_OPT_MODE=     1    mode for optional k-point grid
 
 Orbital magnetization related:
   ORBITALMAG=     F  switch on orbital magnetization
   LCHIMAG   =     F  perturbation theory with respect to B field
   DQ        =  0.001000  dq finite difference perturbation B field
   LLRAUG    =     F  two centre corrections for induced B field
   LBONE     =     F  B-component reconstruction in AE one-centre
   LVGVCALC  =     T  calculate vGv susceptibility
   LVGVAPPL  =     F  apply vGv susceptibility instead of pGv for G=0

 Random number generation:
   RANDOM_GENERATOR = DEFAULT
   PCG_SEED         = not used


--------------------------------------------------------------------------------------------------------


 conjugate gradient relaxation of ions
 charge density and potential will be updated during run
 spin polarized calculation
 RMM-DIIS sequential band-by-band and
  variant of blocked Davidson during initial phase
 perform sub-space diagonalisation
    before iterative eigenvector-optimisation
 modified Broyden-mixing scheme, WC =      100.0
 initial mixing is a Kerker type mixing with AMIX =  0.4000 and BMIX =      1.0000
 Hartree-type preconditioning will be used
 using additional bands           56
 real space projection scheme for non local part
 use partial core corrections
 calculate Harris-corrections to forces 
   (improved forces if not selfconsistent)
 use gradient corrections 
 use of overlap-Matrix (Vanderbilt PP)
 Gauss-broadening in eV      SIGMA  =   0.03


--------------------------------------------------------------------------------------------------------


  energy-cutoff  :      520.00
  volume of cell :      898.29
      direct lattice vectors                 reciprocal lattice vectors
     9.648763521  0.000000000  0.000000000     0.103640223  0.000000000  0.000000000
     0.000000000  9.648763521  0.000000000     0.000000000  0.103640223  0.000000000
     0.000000000  0.000000000  9.648763521     0.000000000  0.000000000  0.103640223

  length of vectors
     9.648763521  9.648763521  9.648763521     0.103640223  0.103640223  0.103640223


 
 k-points in units of 2pi/SCALE and weight: Automatic mesh                          
   0.02591006  0.02591006  0.02591006       0.250
  -0.02591006  0.02591006  0.02591006       0.250
  -0.02591006 -0.02591006  0.02591006       0.250
   0.02591006 -0.02591006  0.02591006       0.250
 
 k-points in reciprocal lattice and weights: Automatic mesh                          
   0.25000000  0.25000000  0.25000000       0.250
  -0.25000000  0.25000000  0.25000000       0.250
  -0.25000000 -0.25000000  0.25000000       0.250
   0.25000000 -0.25000000  0.25000000       0.250
 
 position of ions in fractional coordinates (direct lattice) 
   0.96675629  0.31612162  0.32727765
   0.97193494  0.70510335  0.70204748
   0.99863492  0.29134951  0.70915320
   0.03821546  0.66859452  0.34514014
   0.31644024  0.32037031  0.95299842
   0.15648989  0.80236230  0.05247894
   0.80476217  0.20627121  0.00981096
   0.79604969  0.78201747  0.98315590
   0.30389723  0.97650651  0.28954295
   0.18696097  0.03856553  0.83999006
   0.82035425  0.97618922  0.79408050
   0.83029255  0.01638713  0.20906092
   0.30276758  0.79456188  0.49570996
   0.31380858  0.18256659  0.54412470
   0.68199860  0.80697942  0.51151076
   0.66611381  0.17898386  0.46058091
   0.20431351  0.47527478  0.67995777
   0.27588549  0.51467555  0.20092790
   0.71177484  0.47222460  0.18228633
   0.77191076  0.52320732  0.65076981
   0.52811517  0.64107565  0.84456663
   0.48270146  0.69915553  0.21138239
   0.51554688  0.28009557  0.20768096
   0.53651513  0.92126242  0.72150951
   0.49794361  0.48455492  0.50630195
   0.50096366  0.99259061  0.00517214
   0.99799326  0.49680951  0.99848865
   0.00065292  0.99776209  0.50369707
   0.12149624  0.88873600  0.64113331
   0.12104599  0.11911976  0.37907127
   0.88747486  0.85998630  0.38731531
   0.86023054  0.12151833  0.60573424
   0.89771717  0.62428208  0.13828521
   0.85024035  0.40436588  0.87587721
   0.12687274  0.61815550  0.88102371
   0.10882603  0.35543674  0.11151980
   0.61474457  0.10909997  0.86963693
   0.62552811  0.88198570  0.13765909
   0.36372414  0.12015715  0.10617589
   0.37498857  0.85581056  0.89791871
   0.63418506  0.59897559  0.38671929
   0.59808180  0.35056339  0.63273566
   0.39257073  0.62104710  0.63335201
   0.36373362  0.37266193  0.38450034
   0.73279991  0.75323575  0.74790939
   0.74939916  0.24215515  0.24212400
   0.25348819  0.74411814  0.26667088
   0.22562200  0.25155285  0.74955313
   0.96928021  0.98430712  0.99253310
   0.99448503  0.50220536  0.53116745
   0.48558223  0.98550207  0.49131506
   0.48853276  0.49467805  0.04825919
 
 position of ions in cartesian coordinates  (Angst):
   9.32800284  3.05018272  3.15782465
   9.37797036  6.80337549  6.77389008
   9.63559221  2.81116256  6.84245154
   0.36873191  6.45111038  3.33017559
   3.05325700  3.09117737  9.19525642
   1.50993393  7.74180411  0.50635691
   7.76495989  1.99026215  0.09466364
   7.68089519  7.54550166  9.48623879
   2.93223250  9.42208041  2.79373150
   1.80394220  0.37210963  8.10486549
   7.91540416  9.41901898  7.66189492
   8.01129645  0.15811558  2.01717942
   2.92133275  7.66653968  4.78298822
   3.02786482  1.76154186  5.25013059
   6.58044322  7.78635358  4.93544632
   6.42717466  1.72697294  4.44403625
   1.97137272  4.58581400  6.56075173
   2.66195390  4.96598270  1.93870583
   6.86774712  4.55638349  1.75883771
   7.44798434  5.04830366  6.27912396
   5.09565835  6.18558739  8.14902366
   4.65747221  6.74598642  2.03957866
   4.97438991  2.70257594  2.00386450
   5.17670764  8.88904320  6.96167469
   4.80454013  4.67535586  4.88518781
   4.83367990  9.57727202  0.04990479
   9.62940097  4.79359750  9.63418089
   0.00629990  9.62717046  4.86005388
   1.17228846  8.57520353  6.18614370
   1.16794418  1.14935837  3.65756901
   8.56303508  8.29780440  3.73711386
   8.30016108  1.17250166  5.84458639
   8.66186072  6.02355021  1.33428131
   8.20376809  3.90163075  8.45113206
   1.22416504  5.96443620  8.50078941
   1.05003661  3.42952506  1.07602820
   5.93152500  1.05267978  8.39092106
   6.03557282  8.51007145  1.32823997
   3.50948822  1.15936789  1.02446604
   3.61817605  8.25751374  8.66380527
   6.11910170  5.77937379  3.73136300
   5.77074988  3.38250322  6.10511672
   3.78782211  5.99233659  6.11106375
   3.50957964  3.59572682  3.70995287
   7.07061304  7.26779361  7.21640084
   7.23077526  2.33649777  2.33619721
   2.44584762  7.17982001  2.57304423
   2.17697334  2.42717397  7.23226086
   9.35235554  9.49734664  9.57671714
   9.59555085  4.84566076  5.12510909
   4.68526812  9.50887645  4.74058278
   4.71373708  4.77303157  0.46564153
 


--------------------------------------------------------------------------------------------------------


 k-point   1 :   0.2500 0.2500 0.2500  plane waves:   24216
 k-point   2 :  -0.2500 0.2500 0.2500  plane waves:   24216
 k-point   3 :  -0.2500-0.2500 0.2500  plane waves:   24216
 k-point   4 :   0.2500-0.2500 0.2500  plane waves:   24216

 maximum and minimum number of plane-waves per node :       777      739

 maximum number of plane-waves:     24216
 maximum index in each direction: 
   IXMAX=   18   IYMAX=   18   IZMAX=   17
   IXMIN=  -18   IYMIN=  -18   IZMIN=  -18


 real space projection operators:
  total allocation   :      28462.27 KBytes
  max/ min on nodes  :       1197.89        747.08


 parallel 3D FFT for wavefunctions:
    minimum data exchange during FFTs selected (reduces bandwidth)
 parallel 3D FFT for charge:
    minimum data exchange during FFTs selected (reduces bandwidth)


 total amount of memory used by VASP MPI-rank0    48225. kBytes
=======================================================================

   base      :      30000. kBytes
   nonlr-proj:       6565. kBytes
   fftplans  :       1747. kBytes
   grid      :       5278. kBytes
   one-center:         62. kBytes
   wavefun   :       4573. kBytes
 
     INWAV:  cpu time      0.0000: real time      0.0000
 Broyden mixing: mesh for mixing (old mesh)
   NGX = 35   NGY = 35   NGZ = 35
  (NGX  =144   NGY  =144   NGZ  =144)
  gives a total of  42875 points

 initial charge density was supplied:
 charge density of overlapping atoms calculated
 number of electron     240.0000000 magnetization      52.0000000
 keeping initial charge density in first step


--------------------------------------------------------------------------------------------------------


 Maximum index for non-local projection operator          588
 Maximum index for augmentation-charges         1116 (set IRDMAX)


--------------------------------------------------------------------------------------------------------


 First call to EWALD:  gamma=   0.184
 Maximum number of real-space cells 3x 3x 3
 Maximum number of reciprocal cells 3x 3x 3

    FEWALD:  cpu time      0.0031: real time      0.0034


--------------------------------------- Ionic step        1  -------------------------------------------




--------------------------------------- Iteration      1(   1)  ---------------------------------------


    POTLOK:  cpu time      0.0578: real time      0.0810
    SETDIJ:  cpu time      0.4215: real time      0.4273
     EDDAV:  cpu time      2.2277: real time      2.2853
       DOS:  cpu time      0.0023: real time      0.0038
    --------------------------------------------
      LOOP:  cpu time      2.7093: real time      2.7975

 eigenvalue-minimisations  :  3088
 total energy-change (2. order) : 0.1593538E+04  (-0.1138511E+05)
 number of electron     240.0000000 magnetization      52.0000000
 augmentation part      240.0000000 magnetization      52.0000000

 Free energy of the ion-electron system (eV)
  ---------------------------------------------------
  alpha Z        PSCENC =       302.19471407
  Ewald energy   TEWEN  =     -8827.87833744
  -Hartree energ DENC   =     -2107.37388458
  -exchange      EXHF   =         0.00000000
  -V(xc)+E(xc)   XCENC  =       534.42304292
  PAW double counting   =      8141.38806575    -8271.61346273
  entropy T*S    EENTRO =        -0.00529804
  eigenvalues    EBANDS =      -880.73666653
  atomic energy  EATOM  =     12703.13999606
  Solvation  Ediel_sol  =         0.00000000
  ---------------------------------------------------
  free energy    TOTEN  =      1593.53816947 eV

  energy without entropy =     1593.54346751  energy(sigma->0) =     1593.54081849


--------------------------------------------------------------------------------------------------------




--------------------------------------- Iteration      1(   2)  ---------------------------------------


     EDDAV:  cpu time      2.5990: real time      2.6231
       DOS:  cpu time      0.0004: real time      0.0004
    --------------------------------------------
      LOOP:  cpu time      2.5994: real time      2.6235

 eigenvalue-minimisations  :  3848
 total energy-change (2. order) :-0.1649382E+04  (-0.1548613E+04)
 number of electron     240.0000000 magnetization      52.0000000
 augmentation part      240.0000000 magnetization      52.0000000

 Free energy of the ion-electron system (eV)
  ---------------------------------------------------
  alpha Z        PSCENC =       302.19471407
  Ewald energy   TEWEN  =     -8827.87833744
  -Hartree energ DENC   =     -2107.37388458
  -exchange      EXHF   =         0.00000000
  -V(xc)+E(xc)   XCENC  =       534.42304292
  PAW double counting   =      8141.38806575    -8271.61346273
  entropy T*S    EENTRO =        -0.00000000
  eigenvalues    EBANDS =     -2530.12426659
  atomic energy  EATOM  =     12703.13999606
  Solvation  Ediel_sol  =         0.00000000
  ---------------------------------------------------
  free energy    TOTEN  =       -55.84413255 eV

  energy without entropy =      -55.84413255  energy(sigma->0) =      -55.84413255


--------------------------------------------------------------------------------------------------------




--------------------------------------- Iteration      1(   3)  ---------------------------------------


     EDDAV:  cpu time      2.5854: real time      2.6068
       DOS:  cpu time      0.0004: real time      0.0004
    --------------------------------------------
      LOOP:  cpu time      2.5858: real time      2.6072

 eigenvalue-minimisations  :  3744
 total energy-change (2. order) :-0.1720177E+03  (-0.1699544E+03)
 number of electron     240.0000000 magnetization      52.0000000
 augmentation part      240.0000000 magnetization      52.0000000

 Free energy of the ion-electron system (eV)
  ---------------------------------------------------
  alpha Z        PSCENC =       302.19471407
  Ewald energy   TEWEN  =     -8827.87833744
  -Hartree energ DENC   =     -2107.37388458
  -exchange      EXHF   =         0.00000000
  -V(xc)+E(xc)   XCENC  =       534.42304292
  PAW double counting   =      8141.38806575    -8271.61346273
  entropy T*S    EENTRO =        -0.00000000
  eigenvalues    EBANDS =     -2702.14192524
  atomic energy  EATOM  =     12703.13999606
  Solvation  Ediel_sol  =         0.00000000
  ---------------------------------------------------
  free energy    TOTEN  =      -227.86179119 eV

  energy without entropy =     -227.86179119  energy(sigma->0) =     -227.86179119


--------------------------------------------------------------------------------------------------------




--------------------------------------- Iteration      1(   4)  ---------------------------------------


     EDDAV:  cpu time      3.1067: real time      3.1335
       DOS:  cpu time      0.0004: real time      0.0004
    --------------------------------------------
      LOOP:  cpu time      3.1071: real time      3.1339

 eigenvalue-minimisations  :  4744
 total energy-change (2. order) :-0.1370450E+02  (-0.1367995E+02)
 number of electron     240.0000000 magnetization      52.0000000
 augmentation part      240.0000000 magnetization      52.0000000

 Free energy of the ion-electron system (eV)
  ---------------------------------------------------
  alpha Z        PSCENC =       302.19471407
  Ewald energy   TEWEN  =     -8827.87833744
  -Hartree energ DENC   =     -2107.37388458
  -exchange      EXHF   =         0.00000000
  -V(xc)+E(xc)   XCENC  =       534.42304292
  PAW double counting   =      8141.38806575    -8271.61346273
  entropy T*S    EENTRO =        -0.00000000
  eigenvalues    EBANDS =     -2715.84642180
  atomic energy  EATOM  =     12703.13999606
  Solvation  Ediel_sol  =         0.00000000
  ---------------------------------------------------
  free energy    TOTEN  =      -241.56628776 eV

  energy without entropy =     -241.56628776  energy(sigma->0) =     -241.56628776


--------------------------------------------------------------------------------------------------------




--------------------------------------- Iteration      1(   5)  ---------------------------------------


     EDDAV:  cpu time      2.9054: real time      2.9298
       DOS:  cpu time      0.0004: real time      0.0004
    --------------------------------------------
      LOOP:  cpu time      2.9058: real time      2.9303

 eigenvalue-minimisations  :  4456
 total energy-change (2. order) :-0.2300986E+00  (-0.2299857E+00)
 number of electron     240.0000000 magnetization      52.0000000
 augmentation part      240.0000000 magnetization      52.0000000

 Free energy of the ion-electron system (eV)
  ---------------------------------------------------
  alpha Z        PSCENC =       302.19471407
  Ewald energy   TEWEN  =     -8827.87833744
  -Hartree energ DENC   =     -2107.37388458
  -exchange      EXHF   =         0.00000000
  -V(xc)+E(xc)   XCENC  =       534.42304292
  PAW double counting   =      8141.38806575    -8271.61346273
  entropy T*S    EENTRO =        -0.00000000
  eigenvalues    EBANDS =     -2716.07652041
  atomic energy  EATOM  =     12703.13999606
  Solvation  Ediel_sol  =         0.00000000
  ---------------------------------------------------
  free energy    TOTEN  =      -241.79638636 eV

  energy without entropy =     -241.79638636  energy(sigma->0) =     -241.79638636


--------------------------------------------------------------------------------------------------------




--------------------------------------- Iteration      1(   6)  ---------------------------------------


     EDDAV:  cpu time      3.0080: real time      3.0333
       DOS:  cpu time      0.0004: real time      0.0004
    --------------------------------------------
      LOOP:  cpu time      3.0084: real time      3.0337

 eigenvalue-minimisations  :  4632
 total energy-change (2. order) :-0.1236946E-01  (-0.1236816E-01)
 number of electron     240.0000000 magnetization      52.0000000
 augmentation part      240.0000000 magnetization      52.0000000

 Free energy of the ion-electron system (eV)
  ---------------------------------------------------
  alpha Z        PSCENC =       302.19471407
  Ewald energy   TEWEN  =     -8827.87833744
  -Hartree energ DENC   =     -2107.37388458
  -exchange      EXHF   =         0.00000000
  -V(xc)+E(xc)   XCENC  =       534.42304292
  PAW double counting   =      8141.38806575    -8271.61346273
  entropy T*S    EENTRO =        -0.00000000
  eigenvalues    EBANDS =     -2716.08888987
  atomic energy  EATOM  =     12703.13999606
  Solvation  Ediel_sol  =         0.00000000
  ---------------------------------------------------
  free energy    TOTEN  =      -241.80875582 eV

  energy without entropy =     -241.80875582  energy(sigma->0) =     -241.80875582


--------------------------------------------------------------------------------------------------------




--------------------------------------- Iteration      1(   7)  ---------------------------------------


     EDDAV:  cpu time      3.0036: real time      3.0315
       DOS:  cpu time      0.0023: real time      0.0023
    --------------------------------------------
      LOOP:  cpu time      3.0058: real time      3.0338

 eigenvalue-minimisations  :  4608
 total energy-change (2. order) :-0.3881263E-03  (-0.3881009E-03)
 number of electron     240.0000000 magnetization      52.0000000
 augmentation part      240.0000000 magnetization      52.0000000

 Free energy of the ion-electron system (eV)
  ---------------------------------------------------
  alpha Z        PSCENC =       302.19471407
  Ewald energy   TEWEN  =     -8827.87833744
  -Hartree energ DENC   =     -2107.37388458
  -exchange      EXHF   =         0.00000000
  -V(xc)+E(xc)   XCENC  =       534.42304292
  PAW double counting   =      8141.38806575    -8271.61346273
  entropy T*S    EENTRO =        -0.00000000
  eigenvalues    EBANDS =     -2716.08927799
  atomic energy  EATOM  =     12703.13999606
  Solvation  Ediel_sol  =         0.00000000
  ---------------------------------------------------
  free energy    TOTEN  =      -241.80914395 eV

  energy without entropy =     -241.80914395  energy(sigma->0) =     -241.80914395


--------------------------------------------------------------------------------------------------------




--------------------------------------- Iteration      1(   8)  ---------------------------------------


     EDDAV:  cpu time      3.1179: real time      3.1566
       DOS:  cpu time      0.0004: real time      0.0004
    --------------------------------------------
      LOOP:  cpu time      3.1183: real time      3.1570

 eigenvalue-minimisations  :  4560
 total energy-change (2. order) :-0.2240860E-04  (-0.2240842E-04)
 number of electron     240.0000000 magnetization      52.0000000
 augmentation part      240.0000000 magnetization      52.0000000

 Free energy of the ion-electron system (eV)
  ---------------------------------------------------
  alpha Z        PSCENC =       302.19471407
  Ewald energy   TEWEN  =     -8827.87833744
  -Hartree energ DENC   =     -2107.37388458
  -exchange      EXHF   =         0.00000000
  -V(xc)+E(xc)   XCENC  =       534.42304292
  PAW double counting   =      8141.38806575    -8271.61346273
  entropy T*S    EENTRO =        -0.00000000
  eigenvalues    EBANDS =     -2716.08930040
  atomic energy  EATOM  =     12703.13999606
  Solvation  Ediel_sol  =         0.00000000
  ---------------------------------------------------
  free energy    TOTEN  =      -241.80916636 eV

  energy without entropy =     -241.80916636  energy(sigma->0) =     -241.80916636


--------------------------------------------------------------------------------------------------------




--------------------------------------- Iteration      1(   9)  ---------------------------------------


     EDDAV:  cpu time      3.7284: real time      3.7673
       DOS:  cpu time      0.0004: real time      0.0004
    --------------------------------------------
      LOOP:  cpu time      3.7288: real time      3.7677

 eigenvalue-minimisations  :  4520
 total energy-change (2. order) :-0.1440965E-05  (-0.1440746E-05)
 number of electron     240.0000000 magnetization      52.0000000
 augmentation part      240.0000000 magnetization      52.0000000

 Free energy of the ion-electron system (eV)
  ---------------------------------------------------
  alpha Z        PSCENC =       302.19471407
  Ewald energy   TEWEN  =     -8827.87833744
  -Hartree energ DENC   =     -2107.37388458
  -exchange      EXHF   =         0.00000000
  -V(xc)+E(xc)   XCENC  =       534.42304292
  PAW double counting   =      8141.38806575    -8271.61346273
  entropy T*S    EENTRO =        -0.00000000
  eigenvalues    EBANDS =     -2716.08930184
  atomic energy  EATOM  =     12703.13999606
  Solvation  Ediel_sol  =         0.00000000
  ---------------------------------------------------
  free energy    TOTEN  =      -241.80916780 eV

  energy without entropy =     -241.80916780  energy(sigma->0) =     -241.80916780


--------------------------------------------------------------------------------------------------------




--------------------------------------- Iteration      1(  10)  ---------------------------------------


     EDDAV:  cpu time      1.9373: real time      1.9547
       DOS:  cpu time      0.0004: real time      0.0004
    CHARGE:  cpu time      0.0685: real time      0.0747
    MIXING:  cpu time      0.0021: real time      0.0034
    --------------------------------------------
      LOOP:  cpu time      2.0083: real time      2.0332

 eigenvalue-minimisations  :  2624
 total energy-change (2. order) :-0.6041773E-07  (-0.6059849E-07)
 number of electron     240.0000018 magnetization      27.2249411
 augmentation part        1.4912133 magnetization      27.6675580

 Broyden mixing:
  rms(total) = 0.64306E+01    rms(broyden)= 0.64300E+01
  rms(prec ) = 0.66731E+01
  weight for this iteration     100.00

 Free energy of the ion-electron system (eV)
  ---------------------------------------------------
  alpha Z        PSCENC =       302.19471407
  Ewald energy   TEWEN  =     -8827.87833744
  -Hartree energ DENC   =     -2107.37388458
  -exchange      EXHF   =         0.00000000
  -V(xc)+E(xc)   XCENC  =       534.42304292
  PAW double counting   =      8141.38806575    -8271.61346273
  entropy T*S    EENTRO =        -0.00000000
  eigenvalues    EBANDS =     -2716.08930190
  atomic energy  EATOM  =     12703.13999606
  Solvation  Ediel_sol  =         0.00000000
  ---------------------------------------------------
  free energy    TOTEN  =      -241.80916786 eV

  energy without entropy =     -241.80916786  energy(sigma->0) =     -241.80916786


--------------------------------------------------------------------------------------------------------




--------------------------------------- Iteration      1(  11)  ---------------------------------------


    POTLOK:  cpu time      0.0562: real time      0.0571
    SETDIJ:  cpu time      0.4201: real time      0.4225
    EDDIAG:  cpu time      0.3616: real time      0.3638
  RMM-DIIS:  cpu time      1.2483: real time      1.2630
    ORTHCH:  cpu time      0.0638: real time      0.0653
       DOS:  cpu time      0.0005: real time      0.0005
    CHARGE:  cpu time      0.0660: real time      0.0682
    MIXING:  cpu time      0.0012: real time      0.0182
    --------------------------------------------
      LOOP:  cpu time      2.2178: real time      2.2587

 eigenvalue-minimisations  :  2816
 total energy-change (2. order) : 0.5555648E+01  (-0.4667337E+01)
 number of electron     240.0000018 magnetization      16.2784655
 augmentation part        1.7031458 magnetization      16.4600780

 Broyden mixing:
  rms(total) = 0.33083E+01    rms(broyden)= 0.33081E+01
  rms(prec ) = 0.34262E+01
  weight for this iteration     100.00

 eigenvalues of (default mixing * dielectric matrix)
  average eigenvalue GAMMA=   0.7255
  0.7255

 Free energy of the ion-electron system (eV)
  ---------------------------------------------------
  alpha Z        PSCENC =       302.19471407
  Ewald energy   TEWEN  =     -8827.87833744
  -Hartree energ DENC   =     -2155.63785944
  -exchange      EXHF   =         0.00000000
  -V(xc)+E(xc)   XCENC  =       542.57199944
  PAW double counting   =      8925.91639445    -9062.18444910
  entropy T*S    EENTRO =        -0.00000000
  eigenvalues    EBANDS =     -2664.37597807
  atomic energy  EATOM  =     12703.13999606
  Solvation  Ediel_sol  =         0.00000000
  ---------------------------------------------------
  free energy    TOTEN  =      -236.25352004 eV

  energy without entropy =     -236.25352004  energy(sigma->0) =     -236.25352004


--------------------------------------------------------------------------------------------------------




--------------------------------------- Iteration      1(  12)  ---------------------------------------


    POTLOK:  cpu time      0.0548: real time      0.0557
    SETDIJ:  cpu time      0.4154: real time      0.4176
    EDDIAG:  cpu time      4.4882: real time      4.5310
  RMM-DIIS:  cpu time      1.2227: real time      1.2333
    ORTHCH:  cpu time      0.0644: real time      0.0652
       DOS:  cpu time      0.0005: real time      0.0005
    CHARGE:  cpu time      0.0662: real time      0.0682
    MIXING:  cpu time      0.0011: real time      0.0011
    --------------------------------------------
      LOOP:  cpu time      6.3133: real time      6.3727

 eigenvalue-minimisations  :  2954
 total energy-change (2. order) :-0.1943078E+02  (-0.2118590E+01)
 number of electron     240.0000018 magnetization       0.4587730
 augmentation part        1.7999065 magnetization       0.7987917

 Broyden mixing:
  rms(total) = 0.20187E+01    rms(broyden)= 0.20187E+01
  rms(prec ) = 0.20806E+01
  weight for this iteration     100.00

 eigenvalues of (default mixing * dielectric matrix)
  average eigenvalue GAMMA=   1.1619
  1.6526  0.6712

 Free energy of the ion-electron system (eV)
  ---------------------------------------------------
  alpha Z        PSCENC =       302.19471407
  Ewald energy   TEWEN  =     -8827.87833744
  -Hartree energ DENC   =     -2179.78291641
  -exchange      EXHF   =         0.00000000
  -V(xc)+E(xc)   XCENC  =       536.22963260
  PAW double counting   =      9278.96577075    -9418.81588455
  entropy T*S    EENTRO =        -0.00000000
  eigenvalues    EBANDS =     -2649.73727541
  atomic energy  EATOM  =     12703.13999606
  Solvation  Ediel_sol  =         0.00000000
  ---------------------------------------------------
  free energy    TOTEN  =      -255.68430034 eV

  energy without entropy =     -255.68430034  energy(sigma->0) =     -255.68430034


--------------------------------------------------------------------------------------------------------




--------------------------------------- Iteration      1(  13)  ---------------------------------------


    POTLOK:  cpu time      0.0543: real time      0.0551
    SETDIJ:  cpu time      0.4177: real time      0.4194
    EDDIAG:  cpu time      0.4670: real time      0.4939
  RMM-DIIS:  cpu time      1.1886: real time      1.1987
    ORTHCH:  cpu time      0.0644: real time      0.0657
       DOS:  cpu time      0.0005: real time      0.0005
    CHARGE:  cpu time      0.0662: real time      0.0680
    MIXING:  cpu time      0.0011: real time      0.0011
    --------------------------------------------
      LOOP:  cpu time      2.2598: real time      2.3023

 eigenvalue-minimisations  :  2880
 total energy-change (2. order) :-0.2500939E+01  (-0.9219150E+00)
 number of electron     240.0000018 magnetization      -1.7980474
 augmentation part        1.9013271 magnetization      -1.6937903

 Broyden mixing:
  rms(total) = 0.66403E+00    rms(broyden)= 0.66403E+00
  rms(prec ) = 0.69769E+00
  weight for this iteration     100.00

 eigenvalues of (default mixing * dielectric matrix)
  average eigenvalue GAMMA=   1.2996
  2.4956  0.7496  0.6537

 Free energy of the ion-electron system (eV)
  ---------------------------------------------------
  alpha Z        PSCENC =       302.19471407
  Ewald energy   TEWEN  =     -8827.87833744
  -Hartree energ DENC   =     -2207.51225345
  -exchange      EXHF   =         0.00000000
  -V(xc)+E(xc)   XCENC  =       537.79208293
  PAW double counting   =      9781.48132909    -9925.28298631
  entropy T*S    EENTRO =        -0.00000000
  eigenvalues    EBANDS =     -2622.11978458
  atomic energy  EATOM  =     12703.13999606
  Solvation  Ediel_sol  =         0.00000000
  ---------------------------------------------------
  free energy    TOTEN  =      -258.18523964 eV

  energy without entropy =     -258.18523964  energy(sigma->0) =     -258.18523964


--------------------------------------------------------------------------------------------------------




--------------------------------------- Iteration      1(  14)  ---------------------------------------


    POTLOK:  cpu time      0.0536: real time      0.0557
    SETDIJ:  cpu time      0.4182: real time      0.4206
    EDDIAG:  cpu time      0.3599: real time      0.3634
  RMM-DIIS:  cpu time      1.6404: real time      1.6934
    ORTHCH:  cpu time      0.0633: real time      0.0644
       DOS:  cpu time      0.0005: real time      0.0005
    CHARGE:  cpu time      0.0657: real time      0.0676
    MIXING:  cpu time      0.0011: real time      0.0011
    --------------------------------------------
      LOOP:  cpu time      2.6026: real time      2.6666

 eigenvalue-minimisations  :  3801
 total energy-change (2. order) :-0.1923625E+00  (-0.1950404E+00)
 number of electron     240.0000018 magnetization      -0.8076940
 augmentation part        1.8675442 magnetization      -0.7800740

 Broyden mixing:
  rms(total) = 0.32360E+00    rms(broyden)= 0.32359E+00
  rms(prec ) = 0.35883E+00
  weight for this iteration     100.00

 eigenvalues of (default mixing * dielectric matrix)
  average eigenvalue GAMMA=   1.2663
  2.6040  1.1802  0.6898  0.5913

 Free energy of the ion-electron system (eV)
  ---------------------------------------------------
  alpha Z        PSCENC =       302.19471407
  Ewald energy   TEWEN  =     -8827.87833744
  -Hartree energ DENC   =     -2208.51591748
  -exchange      EXHF   =         0.00000000
  -V(xc)+E(xc)   XCENC  =       538.19780624
  PAW double counting   =      9853.98060457    -9998.54693658
  entropy T*S    EENTRO =        -0.00000000
  eigenvalues    EBANDS =     -2620.94953161
  atomic energy  EATOM  =     12703.13999606
  Solvation  Ediel_sol  =         0.00000000
  ---------------------------------------------------
  free energy    TOTEN  =      -258.37760218 eV

  energy without entropy =     -258.37760218  energy(sigma->0) =     -258.37760218


--------------------------------------------------------------------------------------------------------




--------------------------------------- Iteration      1(  15)  ---------------------------------------


    POTLOK:  cpu time      0.0538: real time      0.0559
    SETDIJ:  cpu time      0.4207: real time      0.4226
    EDDIAG:  cpu time      0.3586: real time      0.3615
  RMM-DIIS:  cpu time      1.2752: real time      1.2874
    ORTHCH:  cpu time      0.0627: real time      0.0632
       DOS:  cpu time      0.0005: real time      0.0005
    CHARGE:  cpu time      0.0655: real time      0.0669
    MIXING:  cpu time      0.0012: real time      0.0012
    --------------------------------------------
      LOOP:  cpu time      2.2382: real time      2.2592

 eigenvalue-minimisations  :  3050
 total energy-change (2. order) : 0.2901846E-01  (-0.3423317E-01)
 number of electron     240.0000018 magnetization      -0.2334723
 augmentation part        1.8196616 magnetization      -0.2060741

 Broyden mixing:
  rms(total) = 0.68872E-01    rms(broyden)= 0.68869E-01
  rms(prec ) = 0.81491E-01
  weight for this iteration     100.00

 eigenvalues of (default mixing * dielectric matrix)
  average eigenvalue GAMMA=   1.2683
  2.5334  1.5761  0.9479  0.6847  0.5994

 Free energy of the ion-electron system (eV)
  ---------------------------------------------------
  alpha Z        PSCENC =       302.19471407
  Ewald energy   TEWEN  =     -8827.87833744
  -Hartree energ DENC   =     -2203.91744518
  -exchange      EXHF   =         0.00000000
  -V(xc)+E(xc)   XCENC  =       537.85557294
  PAW double counting   =      9826.51196008    -9970.90126712
  entropy T*S    EENTRO =        -0.00000000
  eigenvalues    EBANDS =     -2625.35377713
  atomic energy  EATOM  =     12703.13999606
  Solvation  Ediel_sol  =         0.00000000
  ---------------------------------------------------
  free energy    TOTEN  =      -258.34858372 eV

  energy without entropy =     -258.34858372  energy(sigma->0) =     -258.34858372


--------------------------------------------------------------------------------------------------------




--------------------------------------- Iteration      1(  16)  ---------------------------------------


    POTLOK:  cpu time      0.0523: real time      0.0544
    SETDIJ:  cpu time      0.4173: real time      0.4187
    EDDIAG:  cpu time      0.3583: real time      0.3611
  RMM-DIIS:  cpu time      1.3014: real time      1.3358
    ORTHCH:  cpu time      0.0628: real time      0.0632
       DOS:  cpu time      0.0005: real time      0.0005
    CHARGE:  cpu time      0.0656: real time      0.0665
    MIXING:  cpu time      0.0013: real time      0.0013
    --------------------------------------------
      LOOP:  cpu time      2.2594: real time      2.3015

 eigenvalue-minimisations  :  3097
 total energy-change (2. order) :-0.1974668E-01  (-0.1114597E-01)
 number of electron     240.0000018 magnetization      -0.1191361
 augmentation part        1.7974408 magnetization      -0.1043493

 Broyden mixing:
  rms(total) = 0.31433E-01    rms(broyden)= 0.31431E-01
  rms(prec ) = 0.38495E-01
  weight for this iteration     100.00

 eigenvalues of (default mixing * dielectric matrix)
  average eigenvalue GAMMA=   1.2428
  2.4572  1.9098  1.0340  0.6192  0.6994  0.7369

 Free energy of the ion-electron system (eV)
  ---------------------------------------------------
  alpha Z        PSCENC =       302.19471407
  Ewald energy   TEWEN  =     -8827.87833744
  -Hartree energ DENC   =     -2203.40728166
  -exchange      EXHF   =         0.00000000
  -V(xc)+E(xc)   XCENC  =       537.78687600
  PAW double counting   =      9816.63920444    -9960.81678314
  entropy T*S    EENTRO =        -0.00000000
  eigenvalues    EBANDS =     -2626.02671873
  atomic energy  EATOM  =     12703.13999606
[...]
 -0.616   0.633   0.002   0.357  -0.021   0.012   0.003  -0.000   0.000   0.003   0.001   0.005  -0.003  -0.000
 -0.575   0.591   0.002  -0.021   0.370   0.068  -0.000   0.003   0.000  -0.003   0.001  -0.002   0.002  -0.004
 -0.357   0.367   0.001   0.012   0.068   0.632   0.000   0.000   0.005  -0.007  -0.003   0.003  -0.007  -0.006
 -0.005   0.005   0.000   0.003  -0.000   0.000   0.000   0.000   0.000   0.000   0.000   0.000  -0.000  -0.000
 -0.005   0.004   0.000  -0.000   0.003   0.000   0.000   0.000   0.000  -0.000   0.000  -0.000   0.000  -0.000
 -0.002   0.002   0.000   0.000   0.000   0.005   0.000   0.000   0.000  -0.000  -0.000   0.000  -0.000  -0.000
  0.001  -0.001  -0.000   0.003  -0.003  -0.007   0.000  -0.000  -0.000   0.000   0.000   0.000  -0.000   0.000
  0.000  -0.001  -0.000   0.001   0.001  -0.003   0.000   0.000  -0.000   0.000   0.000   0.000   0.000  -0.000
 -0.008   0.008   0.000   0.005  -0.002   0.003   0.000  -0.000   0.000   0.000   0.000   0.000  -0.000  -0.000
  0.009  -0.009  -0.000  -0.003   0.002  -0.007  -0.000   0.000  -0.000  -0.000   0.000  -0.000   0.000   0.000
  0.015  -0.015  -0.000  -0.000  -0.004  -0.006  -0.000  -0.000  -0.000   0.000  -0.000  -0.000   0.000   0.000
 total augmentation occupancy for first ion, spin component:           2
  0.000  -0.000   0.000  -0.000   0.000  -0.000   0.000   0.000  -0.000   0.000  -0.000   0.000   0.000  -0.000
 -0.000   0.000  -0.000   0.000   0.000   0.000  -0.000  -0.000   0.000  -0.000   0.000  -0.000  -0.000   0.000
  0.000  -0.000  -0.000   0.000  -0.000  -0.000   0.000  -0.000  -0.000   0.000   0.000   0.000   0.000   0.000
 -0.000   0.000   0.000  -0.000  -0.000   0.000  -0.000  -0.000   0.000   0.000  -0.000   0.000  -0.000   0.000
  0.000   0.000  -0.000  -0.000  -0.000  -0.000  -0.000  -0.000  -0.000  -0.000  -0.000  -0.000  -0.000  -0.000
 -0.000   0.000  -0.000   0.000  -0.000  -0.000  -0.000  -0.000   0.000  -0.000  -0.000   0.000  -0.000   0.000
  0.000  -0.000   0.000  -0.000  -0.000  -0.000  -0.000  -0.000  -0.000   0.000  -0.000  -0.000   0.000   0.000
  0.000  -0.000  -0.000  -0.000  -0.000  -0.000  -0.000  -0.000  -0.000   0.000   0.000  -0.000   0.000   0.000
 -0.000   0.000  -0.000   0.000  -0.000   0.000  -0.000  -0.000   0.000  -0.000  -0.000   0.000  -0.000  -0.000
  0.000  -0.000   0.000   0.000  -0.000  -0.000   0.000   0.000  -0.000   0.000   0.000   0.000   0.000   0.000
 -0.000   0.000   0.000  -0.000  -0.000  -0.000  -0.000   0.000  -0.000   0.000  -0.000  -0.000   0.000  -0.000
  0.000  -0.000   0.000   0.000  -0.000   0.000  -0.000  -0.000   0.000   0.000  -0.000   0.000  -0.000   0.000
  0.000  -0.000   0.000  -0.000  -0.000  -0.000   0.000   0.000  -0.000   0.000   0.000  -0.000   0.000   0.000
 -0.000   0.000   0.000   0.000  -0.000   0.000   0.000   0.000  -0.000   0.000  -0.000   0.000   0.000   0.000


------------------------ aborting loop because EDIFF is reached ----------------------------------------


    CHARGE:  cpu time      0.0657: real time      0.0666
    FORLOC:  cpu time      0.0040: real time      0.0040
    FORNL :  cpu time      0.3977: real time      0.4005
    STRESS:  cpu time      1.1911: real time      1.1994
    FORCOR:  cpu time      0.0510: real time      0.0513
    FORHAR:  cpu time      0.0090: real time      0.0091
    MIXING:  cpu time      0.0007: real time      0.0007
    OFIELD:  cpu time      0.0000: real time      0.0000

 ---------------------------------------------------------------------------------------------

         DFTD3 V3.0 Rev 1        
 Edisp (eV)  -13.62917

 E6    (eV) :    -8.3983
 E8    (eV) :    -5.2309
 % E8        : 38.38
    FORVDW:  cpu time      0.2970: real time      0.2988

  FORCE on cell =-STRESS in cart. coord.  units (eV):
  Direction    XX          YY          ZZ          XY          YZ          ZX
  --------------------------------------------------------------------------------------
  Alpha Z   302.19471   302.19471   302.19471
  Ewald   -2977.55235 -2914.65826 -2935.80059    43.56619   -20.38230    18.71181
  Hartree   720.67053   748.47830   736.73641    16.93384     8.09013     5.51445
  E(xc)    -947.78355  -947.66562  -947.69922     0.10728    -0.10591     0.05990
  Local   -1452.31240 -1541.12759 -1511.17182   -57.48846     6.41658   -22.11225
  n-local  1480.35523  1481.69895  1482.47682     0.24118    -1.23389     0.44243
  augment  -356.78312  -357.07950  -357.18204     0.01638    -0.17336     0.13701
  Kinetic  3242.99388  3244.29982  3245.59417    -0.83741     5.89444    -3.50918
  Fock        0.00000     0.00000     0.00000     0.00000     0.00000     0.00000
  vdW       -14.41909   -14.34868   -14.40202     0.00788    -0.02479     0.01030
  -------------------------------------------------------------------------------------
  Total      -2.63617     1.79213     0.74642     2.54688    -1.51909    -0.74553
  in kB      -4.70185     3.19643     1.33132     4.54259    -2.70944    -1.32972
  external pressure =       -0.06 kB  Pullay stress =        0.00 kB


 VOLUME and BASIS-vectors are now :
 -----------------------------------------------------------------------------
  energy-cutoff  :      520.00
  volume of cell :      898.29
      direct lattice vectors                 reciprocal lattice vectors
     9.648763521  0.000000000  0.000000000     0.103640223  0.000000000  0.000000000
     0.000000000  9.648763521  0.000000000     0.000000000  0.103640223  0.000000000
     0.000000000  0.000000000  9.648763521     0.000000000  0.000000000  0.103640223

  length of vectors
     9.648763521  9.648763521  9.648763521     0.103640223  0.103640223  0.103640223


 FORCES acting on ions
    electron-ion (+dipol)            ewald-force                    non-local-force                 convergence-correction
 -----------------------------------------------------------------------------------------------
   -.444E+01 -.119E+02 -.967E+01   0.347E+01 0.103E+02 0.822E+01   0.961E+00 0.156E+01 0.145E+01   -.523E-04 -.535E-04 -.185E-04
   -.170E+01 0.134E+01 0.207E+01   0.173E+01 -.219E+00 -.128E+01   -.272E-01 -.113E+01 -.794E+00   -.128E-03 -.154E-03 0.193E-04
   0.553E+01 0.367E+01 0.140E-01   -.379E+01 -.485E+01 0.857E+00   -.174E+01 0.118E+01 -.873E+00   -.111E-03 0.572E-04 0.160E-03
   -.297E+01 0.133E+02 -.479E+01   0.362E+01 -.119E+02 0.379E+01   -.643E+00 -.146E+01 0.999E+00   0.505E-04 0.599E-04 0.218E-04
   -.154E+02 -.569E+01 0.952E+01   0.137E+02 0.413E+01 -.115E+02   0.177E+01 0.156E+01 0.199E+01   0.185E-04 0.548E-04 -.132E-03
   0.334E+01 -.167E+02 -.182E+01   -.217E+01 0.152E+02 0.291E+01   -.117E+01 0.145E+01 -.109E+01   0.949E-04 -.121E-03 -.468E-04
   -.762E+01 -.149E+01 0.587E+01   0.641E+01 0.286E+01 -.494E+01   0.121E+01 -.137E+01 -.932E+00   -.119E-03 0.893E-04 -.132E-03
   0.119E+01 0.103E+02 -.195E+01   -.176E+01 -.110E+02 0.193E+01   0.576E+00 0.627E+00 0.245E-01   -.429E-04 0.866E-04 -.189E-03
   -.266E+00 -.707E+01 0.282E+01   -.920E+00 0.640E+01 -.398E+01   0.119E+01 0.665E+00 0.117E+01   0.878E-04 -.146E-03 -.605E-04
   0.742E+00 -.149E+01 -.139E+02   -.120E+00 0.356E+01 0.119E+02   -.618E+00 -.207E+01 0.200E+01   0.843E-04 -.560E-04 -.137E-03
   -.827E+01 -.831E+01 0.270E+00   0.732E+01 0.801E+01 -.121E+01   0.951E+00 0.303E+00 0.941E+00   0.678E-04 -.652E-04 0.391E-04
   -.106E+02 -.348E+01 -.196E+01   0.949E+01 0.406E+01 0.295E+01   0.111E+01 -.579E+00 -.990E+00   -.892E-04 -.586E-04 0.412E-04
   0.180E+01 -.101E+01 -.472E+01   -.237E+01 -.425E+00 0.413E+01   0.571E+00 0.145E+01 0.581E+00   0.129E-04 0.295E-04 0.328E-04
   -.108E+02 0.618E+01 -.463E+01   0.905E+01 -.452E+01 0.639E+01   0.171E+01 -.166E+01 -.177E+01   -.292E-05 0.130E-04 0.119E-03
   0.616E+01 -.870E+01 0.817E+01   -.474E+01 0.746E+01 -.782E+01   -.142E+01 0.125E+01 -.348E+00   -.973E-04 0.282E-06 0.929E-04
   0.782E+01 0.539E+01 0.228E+01   -.643E+01 -.411E+01 -.275E+01   -.139E+01 -.128E+01 0.462E+00   0.172E-07 0.785E-04 0.340E-04
   -.587E+01 -.164E+01 0.538E+01   0.698E+01 0.141E+00 -.426E+01   -.110E+01 0.149E+01 -.112E+01   -.327E-06 0.937E-06 -.201E-06
   0.978E+01 0.265E+01 0.101E+01   -.103E+02 -.211E+01 0.585E-02   0.570E+00 -.545E+00 -.102E+01   0.573E-04 0.620E-04 -.997E-04
   -.225E+01 -.104E+01 0.809E+01   0.338E+01 0.213E+00 -.690E+01   -.113E+01 0.825E+00 -.119E+01   -.338E-04 0.493E-04 -.897E-04
   0.251E+00 0.614E+01 0.263E+00   -.115E+01 -.628E+01 0.460E+00   0.893E+00 0.137E+00 -.724E+00   0.448E-04 -.594E-04 0.201E-03
   -.103E+01 0.215E+02 -.118E+02   0.120E+01 -.205E+02 0.106E+02   -.166E+00 -.100E+01 0.127E+01   0.808E-04 0.523E-04 -.731E-04
   -.342E+01 -.434E+01 0.422E+01   0.262E+01 0.529E+01 -.334E+01   0.794E+00 -.956E+00 -.886E+00   0.354E-05 -.127E-03 0.284E-04
   -.402E+00 0.733E+01 0.182E+01   0.106E+01 -.834E+01 -.125E+01   -.654E+00 0.102E+01 -.578E+00   0.108E-03 0.371E-04 -.346E-04
   0.993E+01 -.620E+01 0.151E+02   -.953E+01 0.611E+01 -.142E+02   -.392E+00 0.867E-01 -.941E+00   0.207E-04 0.152E-04 0.769E-04
   0.518E+01 0.472E+01 -.192E+01   -.468E+01 -.580E+01 0.279E+01   -.501E+00 0.108E+01 -.851E+00   -.874E-04 0.744E-04 -.699E-04
   0.499E+01 -.101E+02 -.750E+01   -.469E+01 0.104E+02 0.736E+01   -.309E+00 -.337E+00 0.132E+00   0.210E-03 -.333E-04 -.120E-03
   -.686E+00 0.115E+02 0.470E-01   0.975E+00 -.117E+02 -.112E+00   -.289E+00 0.238E+00 0.722E-01   -.142E-03 0.128E-03 -.265E-03
   -.596E+01 -.612E+01 0.498E+01   0.612E+01 0.638E+01 -.522E+01   -.152E+00 -.255E+00 0.227E+00   -.381E-04 -.821E-04 0.233E-03
   -.480E+02 0.243E+02 -.456E+02   0.512E+02 -.268E+02 0.493E+02   -.320E+01 0.253E+01 -.365E+01   -.199E-03 0.117E-03 -.992E-04
   -.289E+02 -.467E+02 0.575E+02   0.314E+02 0.500E+02 -.609E+02   -.248E+01 -.330E+01 0.340E+01   -.129E-03 -.207E-03 0.339E-03
   0.299E+02 0.390E+02 0.422E+02   -.324E+02 -.424E+02 -.453E+02   0.251E+01 0.342E+01 0.306E+01   0.436E-04 0.140E-03 0.270E-03
   0.438E+02 -.511E+02 -.220E+02   -.474E+02 0.544E+02 0.241E+02   0.366E+01 -.333E+01 -.210E+01   0.118E-03 -.246E-03 0.179E-03
   0.267E+02 -.339E+02 -.485E+02   -.287E+02 0.369E+02 0.518E+02   0.204E+01 -.306E+01 -.328E+01   -.814E-04 -.165E-03 -.359E-03
   0.684E+02 0.282E+02 0.285E+02   -.731E+02 -.299E+02 -.310E+02   0.470E+01 0.172E+01 0.249E+01   0.453E-04 0.200E-03 -.216E-03
   -.599E+02 -.330E+02 0.276E+02   0.637E+02 0.359E+02 -.298E+02   -.381E+01 -.290E+01 0.223E+01   -.337E-03 -.519E-04 0.397E-04
   -.232E+02 0.725E+02 -.338E+02   0.253E+02 -.771E+02 0.361E+02   -.209E+01 0.459E+01 -.234E+01   0.127E-04 0.369E-03 -.189E-03
   -.982E+01 -.840E+02 0.472E+02   0.107E+02 0.883E+02 -.510E+02   -.932E+00 -.433E+01 0.383E+01   -.116E-04 -.136E-03 0.116E-03
   -.272E+02 0.259E+02 -.563E+02   0.300E+02 -.285E+02 0.603E+02   -.282E+01 0.260E+01 -.402E+01   -.197E-03 0.742E-04 -.483E-03
   0.602E+02 -.362E+02 -.215E+02   -.643E+02 0.386E+02 0.233E+02   0.414E+01 -.244E+01 -.184E+01   0.452E-03 -.184E-03 -.158E-03
   0.542E+02 0.449E+02 0.264E+02   -.572E+02 -.483E+02 -.284E+02   0.295E+01 0.337E+01 0.203E+01   0.106E-03 -.512E-04 -.105E-03
   -.544E+02 -.255E+02 0.298E+02   0.585E+02 0.279E+02 -.323E+02   -.411E+01 -.242E+01 0.248E+01   -.425E-03 0.337E-04 -.140E-03
   -.155E+02 0.583E+02 -.736E+02   0.164E+02 -.616E+02 0.777E+02   -.882E+00 0.331E+01 -.404E+01   0.147E-03 0.186E-03 0.578E-04
   0.320E+02 -.292E+02 -.459E+02   -.345E+02 0.324E+02 0.494E+02   0.249E+01 -.313E+01 -.354E+01   0.135E-03 -.906E-04 -.110E-03
   0.601E+02 0.376E+02 0.221E+02   -.641E+02 -.406E+02 -.243E+02   0.397E+01 0.302E+01 0.216E+01   0.428E-03 0.377E-03 0.186E-03
   0.431E+01 0.196E+02 -.436E+01   -.453E+01 -.201E+02 0.443E+01   0.216E+00 0.524E+00 -.772E-01   0.170E-03 -.804E-05 0.158E-03
   -.742E+01 0.137E+01 -.102E+02   0.764E+01 -.140E+01 0.105E+02   -.206E+00 0.278E-01 -.315E+00   -.325E-03 0.104E-04 -.158E-03
   0.125E+02 -.298E+01 0.348E+01   -.127E+02 0.301E+01 -.360E+01   0.195E+00 -.255E-01 0.117E+00   0.270E-03 -.406E-04 -.370E-04
   -.272E+02 0.966E+01 -.973E+01   0.278E+02 -.986E+01 0.976E+01   -.547E+00 0.200E+00 -.276E-01   -.677E-04 0.197E-04 -.745E-04
   -.468E+02 -.271E+02 -.205E+02   0.476E+02 0.275E+02 0.209E+02   -.753E+00 -.464E+00 -.386E+00   -.803E-03 -.506E-03 -.670E-03
   -.613E+01 0.182E+02 0.371E+02   0.626E+01 -.186E+02 -.376E+02   -.126E+00 0.379E+00 0.522E+00   -.537E-04 0.522E-03 0.971E-03
   -.565E+01 -.209E+02 0.131E+02   0.588E+01 0.212E+02 -.138E+02   -.239E+00 -.299E+00 0.732E+00   0.564E-04 -.450E-03 0.337E-03
   -.119E+02 0.966E+01 0.544E+02   0.122E+02 -.975E+01 -.551E+02   -.282E+00 0.764E-01 0.729E+00   0.793E-04 0.182E-03 0.367E-03
 -----------------------------------------------------------------------------------------------
   -.501E+01 -.234E+01 0.464E+01   0.110E-12 -.355E-14 -.114E-12   0.500E+01 0.235E+01 -.464E+01   -.567E-03 0.274E-04 -.148E-03
 
 
 POSITION                                       TOTAL-FORCE (eV/Angst)
 -----------------------------------------------------------------------------------
      9.32799      3.05020      3.15789        -0.000048      0.000066      0.000215
      9.37797      6.80334      6.77391         0.000072     -0.000090      0.000037
      9.63555      2.81119      6.84246        -0.000016      0.000069      0.000013
      0.36875      6.45108      3.33019         0.000116     -0.000109      0.000004
      3.05326      3.09123      9.19523         0.000020      0.000221     -0.000205
      1.50987      7.74180      0.50638        -0.000236     -0.000008      0.000144
      7.76510      1.99024      0.09467         0.000704     -0.000068      0.000122
      7.68085      7.54553      9.48626        -0.000170      0.000091      0.000136
      2.93231      9.42208      2.79373         0.000331     -0.000035     -0.000063
      1.80399      0.37212      8.10498         0.000230      0.000137      0.000494
      7.91547      9.41902      7.66188         0.000344      0.000039     -0.000074
      8.01136      0.15812      2.01722         0.000362      0.000074      0.000218
      2.92129      7.66658      4.78302        -0.000203      0.000173      0.000053
      3.02785      1.76152      5.25011        -0.000081     -0.000047     -0.000092
      6.58038      7.78637      4.93544        -0.000213      0.000053     -0.000077
      6.42710      1.72696      4.44403        -0.000274      0.000018     -0.000108
      1.97137      4.58580      6.56070         0.000038     -0.000095     -0.000243
      2.66193      4.96597      1.93865        -0.000144     -0.000054     -0.000254
      6.86776      4.55638      1.75877         0.000125     -0.000021     -0.000302
      7.44794      5.04832      6.27896        -0.000237      0.000129     -0.000854
      5.09567      6.18556      8.14900         0.000109     -0.000107     -0.000116
      4.65750      6.74595      2.03958         0.000146     -0.000073     -0.000030
      4.97438      2.70261      2.00382        -0.000049      0.000103     -0.000222
      5.17672      8.88907      6.96170         0.000092      0.000144      0.000082
      4.80453      4.67535      4.88520        -0.000273     -0.000327     -0.000195
      4.83369      9.57727      0.04991         0.000313      0.000275      0.000491
      9.62936      4.79358      9.63416         0.000485      0.000242      0.000014
      0.00628      9.62717      4.86007         0.000227     -0.000087     -0.000225
      1.17228      8.57521      6.18623        -0.000500      0.000390     -0.000118
      1.16797      1.14934      3.65750        -0.000561     -0.000713      0.000371
      8.56301      8.29773      3.73713         0.000333      0.000302      0.000553
      8.30011      1.17255      5.84456         0.000148     -0.000067     -0.000245
      8.66187      6.02361      1.33430         0.000354     -0.000143     -0.000565
      8.20368      3.90168      8.45111        -0.000188      0.000248      0.000027
      1.22423      5.96442      8.50076        -0.000396     -0.000751      0.000497
      1.05000      3.42944      1.07603        -0.000643      0.000400     -0.000577
      5.93159      1.05271      8.39094        -0.000001     -0.000404      0.000454
      6.03560      8.51010      1.32835        -0.000341      0.000444     -0.000134
      3.50943      1.15941      1.02446         0.000360     -0.000375     -0.000569
      3.61820      8.25746      8.66383         0.000505      0.000141      0.000274
      6.11918      5.77933      3.73137        -0.000075     -0.000524      0.000375
      5.77069      3.38246      6.10518        -0.000539      0.000346     -0.000189
      3.78780      5.99239      6.11107         0.000230     -0.000151     -0.000358
      3.50952      3.59571      3.70992         0.000420      0.000441      0.000236
      7.07061      7.26779      7.21640         0.000085      0.000120      0.000004
      7.23078      2.33650      2.33621        -0.000081      0.000090     -0.000102
      2.44586      7.17981      2.57306         0.000238     -0.000084      0.000061
      2.17696      2.42716      7.23225        -0.000173      0.000086     -0.000067
      9.35245      9.49739      9.57679        -0.000658     -0.000158     -0.000412
      9.59555      4.84559      5.12502         0.000018     -0.000040      0.000567
      4.68526      9.50892      4.74059        -0.000168     -0.000283      0.000237
      4.71375      4.77303      0.46557        -0.000137     -0.000025      0.000716
 -----------------------------------------------------------------------------------
    total drift:                               -0.004256      0.008883      0.001136


--------------------------------------------------------------------------------------------------------



  FREE ENERGIE OF THE ION-ELECTRON SYSTEM (eV)
  ---------------------------------------------------
  free  energy   TOTEN  =      -272.00495174 eV

  energy  without entropy=     -272.00495174  energy(sigma->0) =     -272.00495174
 
 d Force = 0.5199595E-06[ 0.119E-06, 0.921E-06]  d Energy = 0.1177009E-05-0.657E-06
 d Force = 0.4365004E-01[ 0.436E-01, 0.437E-01]  d Ewald  = 0.4365004E-01 0.255E-10


--------------------------------------------------------------------------------------------------------


    POTLOK:  cpu time      0.4754: real time      0.4771


--------------------------------------------------------------------------------------------------------


 stress matrix after NEB project (eV)
     -2.63617      2.54688     -0.74553
      2.54688      1.79213     -1.51909
     -0.74553     -1.51909      0.74642
  FORCES: max atom, RMS     0.000984    0.000508
  FORCE total and by dimension    0.003664    0.000854
  Stress total and by dimension    5.423867    2.636166


--------------------------------------------------------------------------------------------------------


  
 reached required accuracy - stopping structural energy minimisation
     LOOP+:  cpu time      7.8219: real time      7.8945
    4ORBIT:  cpu time      0.0000: real time      0.0000

 total amount of memory used by VASP MPI-rank0    48225. kBytes
=======================================================================

   base      :      30000. kBytes
   nonlr-proj:       6565. kBytes
   fftplans  :       1747. kBytes
   grid      :       5278. kBytes
   one-center:         62. kBytes
   wavefun   :       4573. kBytes
 
  
  
 General timing and accounting informations for this job:
 ========================================================
  
                  Total CPU time used (sec):       96.198
                            User time (sec):       95.133
                          System time (sec):        1.064
                         Elapsed time (sec):       99.972
  
                   Maximum memory used (kb):      384092.
                   Average memory used (kb):          N/A
  
                          Minor page faults:        57980
                          Major page faults:          126
                 Voluntary context switches:         6631
