<?xml version="1.0" encoding="ISO-8859-1"?>
<modeling>
 <generator>
  <i name="program" type="string">vasp </i>
  <i name="version" type="string">6.4.1  </i>
  <i name="subversion" type="string">05Apr23 (build Jun 07 2023 15:38:11) complex                          parallel </i>
  <i name="platform" type="string">LinuxIFC </i>
  <i name="date" type="string">2023 10 20 </i>
  <i name="time" type="string">18:36:33 </i>
 </generator>
 <incar>
  <i type="string" name="PREC">Accu</i>
  <i type="string" name="ALGO">F</i>
  <i type="logical" name="LDIAG"> T  </i>
  <i type="int" name="ISPIN">     2</i>
  <i type="int" name="NELM">   100</i>
  <i type="int" name="NELMDL">   -10</i>
  <i type="int" name="IBRION">     2</i>
  <i name="EDIFF">      0.00000100</i>
  <i name="EDIFFG">     -0.00100000</i>
  <i type="int" name="NSW">  1000</i>
  <i type="int" name="ISIF">     2</i>
  <i name="ENCUT">    520.00000000</i>
  <i name="POTIM">      0.20000000</i>
  <i type="string" name="LREAL">Auto</i>
  <i type="logical" name="LPLANE"> T  </i>
  <i type="int" name="ISMEAR">     0</i>
  <i name="SIGMA">      0.03000000</i>
  <i type="int" name="LMAXMIX">     4</i>
  <i type="logical" name="LWAVE"> F  </i>
  <i type="logical" name="LCHARG"> F  </i>
  <i type="logical" name="LASPH"> T  </i>
  <i type="string" name="GGA">PE</i>
  <i type="int" name="IVDW">    12</i>
 </incar>
 <primitive_cell>
  <structure name="primitive_cell" >
   <crystal>
    <varray name="basis" >
     <v>       9.64876352       0.00000000       0.00000000 </v>
     <v>       0.00000000       9.64876352       0.00000000 </v>
     <v>       0.00000000       0.00000000       9.64876352 </v>
    </varray>
    <i name="volume">    898.28673713 </i>
    <varray name="rec_basis" >
     <v>       0.10364022       0.00000000       0.00000000 </v>
     <v>       0.00000000       0.10364022       0.00000000 </v>
     <v>       0.00000000       0.00000000       0.10364022 </v>
    </varray>
   </crystal>
   <varray name="positions" >
    <v>       0.96675629       0.31612162       0.32727765 </v>
    <v>       0.97193494       0.70510335       0.70204748 </v>
    <v>       0.99863492       0.29134951       0.70915320 </v>
    <v>       0.03821546       0.66859452       0.34514014 </v>
    <v>       0.31644024       0.32037031       0.95299842 </v>
    <v>       0.15648989       0.80236230       0.05247894 </v>
    <v>       0.80476217       0.20627121       0.00981096 </v>
    <v>       0.79604969       0.78201747       0.98315590 </v>
    <v>       0.30389723       0.97650651       0.28954295 </v>
    <v>       0.18696097       0.03856553       0.83999006 </v>
    <v>       0.82035425       0.97618922       0.79408050 </v>
    <v>       0.83029255       0.01638713       0.20906092 </v>
    <v>       0.30276758       0.79456188       0.49570996 </v>
    <v>       0.31380858       0.18256659       0.54412470 </v>
    <v>       0.68199860       0.80697942       0.51151076 </v>
    <v>       0.66611381       0.17898386       0.46058091 </v>
    <v>       0.20431351       0.47527478       0.67995777 </v>
    <v>       0.27588549       0.51467555       0.20092790 </v>
    <v>       0.71177484       0.47222460       0.18228633 </v>
    <v>       0.77191076       0.52320732       0.65076981 </v>
    <v>       0.52811517       0.64107565       0.84456663 </v>
    <v>       0.48270146       0.69915553       0.21138239 </v>
    <v>       0.51554688       0.28009557       0.20768096 </v>
    <v>       0.53651513       0.92126242       0.72150951 </v>
    <v>       0.49794361       0.48455492       0.50630195 </v>
    <v>       0.50096366       0.99259061       0.00517214 </v>
    <v>       0.99799326       0.49680951       0.99848865 </v>
    <v>       0.00065292       0.99776209       0.50369707 </v>
    <v>       0.12149624       0.88873600       0.64113331 </v>
    <v>       0.12104599       0.11911976       0.37907127 </v>
    <v>       0.88747486       0.85998630       0.38731531 </v>
    <v>       0.86023054       0.12151833       0.60573424 </v>
    <v>       0.89771717       0.62428208       0.13828521 </v>
    <v>       0.85024035       0.40436588       0.87587721 </v>
    <v>       0.12687274       0.61815550       0.88102371 </v>
    <v>       0.10882603       0.35543674       0.11151980 </v>
    <v>       0.61474457       0.10909997       0.86963693 </v>
    <v>       0.62552811       0.88198570       0.13765909 </v>
    <v>       0.36372414       0.12015715       0.10617589 </v>
    <v>       0.37498857       0.85581056       0.89791871 </v>
    <v>       0.63418506       0.59897559       0.38671929 </v>
    <v>       0.59808180       0.35056339       0.63273566 </v>
    <v>       0.39257073       0.62104710       0.63335201 </v>
    <v>       0.36373362       0.37266193       0.38450034 </v>
    <v>       0.73279991       0.75323575       0.74790939 </v>
    <v>       0.74939916       0.24215515       0.24212400 </v>
    <v>       0.25348819       0.74411814       0.26667088 </v>
    <v>       0.22562200       0.25155285       0.74955313 </v>
    <v>       0.96928021       0.98430712       0.99253310 </v>
    <v>       0.99448503       0.50220536       0.53116745 </v>
    <v>       0.48558223       0.98550207       0.49131506 </v>
    <v>       0.48853276       0.49467805       0.04825919 </v>
   </varray>
  </structure>
  <varray name="primitive_index" >
   <v type="int" >        1 </v>
   <v type="int" >        2 </v>
   <v type="int" >        3 </v>
   <v type="int" >        4 </v>
   <v type="int" >        5 </v>
   <v type="int" >        6 </v>
   <v type="int" >        7 </v>
   <v type="int" >        8 </v>
   <v type="int" >        9 </v>
   <v type="int" >       10 </v>
   <v type="int" >       11 </v>
   <v type="int" >       12 </v>
   <v type="int" >       13 </v>
   <v type="int" >       14 </v>
   <v type="int" >       15 </v>
   <v type="int" >       16 </v>
   <v type="int" >       17 </v>
   <v type="int" >       18 </v>
   <v type="int" >       19 </v>
   <v type="int" >       20 </v>
   <v type="int" >       21 </v>
   <v type="int" >       22 </v>
   <v type="int" >       23 </v>
   <v type="int" >       24 </v>
   <v type="int" >       25 </v>
   <v type="int" >       26 </v>
   <v type="int" >       27 </v>
   <v type="int" >       28 </v>
   <v type="int" >       29 </v>
   <v type="int" >       30 </v>
   <v type="int" >       31 </v>
   <v type="int" >       32 </v>
   <v type="int" >       33 </v>
   <v type="int" >       34 </v>
   <v type="int" >       35 </v>
   <v type="int" >       36 </v>
   <v type="int" >       37 </v>
   <v type="int" >       38 </v>
   <v type="int" >       39 </v>
   <v type="int" >       40 </v>
   <v type="int" >       41 </v>
   <v type="int" >       42 </v>
   <v type="int" >       43 </v>
   <v type="int" >       44 </v>
   <v type="int" >       45 </v>
   <v type="int" >       46 </v>
   <v type="int" >       47 </v>
   <v type="int" >       48 </v>
   <v type="int" >       49 </v>
   <v type="int" >       50 </v>
   <v type="int" >       51 </v>
   <v type="int" >       52 </v>
  </varray>
 </primitive_cell>
 <kpoints>
  <generation param="Monkhorst-Pack">
   <v type="int" name="divisions">       2        2        2 </v>
   <v name="usershift">      0.00000000       0.00000000       0.00000000 </v>
   <v name="genvec1">      0.50000000       0.00000000       0.00000000 </v>
   <v name="genvec2">      0.00000000       0.50000000       0.00000000 </v>
   <v name="genvec3">      0.00000000       0.00000000       0.50000000 </v>
   <v name="shift">      0.50000000       0.50000000       0.50000000 </v>
  </generation>
  <varray name="kpointlist" >
   <v>       0.25000000       0.25000000       0.25000000 </v>
   <v>      -0.25000000       0.25000000       0.25000000 </v>
   <v>      -0.25000000      -0.25000000       0.25000000 </v>
   <v>       0.25000000      -0.25000000       0.25000000 </v>
  </varray>
  <varray name="weights" >
   <v>       0.25000000 </v>
   <v>       0.25000000 </v>
   <v>       0.25000000 </v>
   <v>       0.25000000 </v>
  </varray>
 </kpoints>
 <parameters>
  <separator name="general" >
   <i type="string" name="SYSTEM">unknown system</i>
   <i type="logical" name="LCOMPAT"> F  </i>
  </separator>
  <separator name="electronic" >
   <i type="string" name="PREC">accu</i>
   <i name="ENMAX">    520.00000000</i>
   <i name="ENAUG">   1041.69900000</i>
   <i name="EDIFF">      0.00000100</i>
   <i type="int" name="IALGO">    68</i>
   <i type="int" name="IWAVPR">    11</i>
   <i type="int" name="NBANDS">   176</i>
   <i type="int" name="NBANDSLOW">    -1</i>
   <i type="int" name="NBANDSHIGH">    -1</i>
   <i name="NELECT">    240.00000000</i>
   <i type="int" name="TURBO">     0</i>
   <i type="int" name="IRESTART">     0</i>
   <i type="int" name="NREBOOT">     0</i>
   <i type="int" name="NMIN">     0</i>
   <i name="EREF">      0.00000000</i>
   <separator name="electronic smearing" >
    <i type="int" name="ISMEAR">     0</i>
    <i name="SIGMA">      0.03000000</i>
    <i name="KSPACING">      0.50000000</i>
    <i type="logical" name="KGAMMA"> T  </i>
    <i type="logical" name="KBLOWUP"> T  </i>
   </separator>
   <separator name="electronic projectors" >
    <i type="logical" name="LREAL"> T  </i>
    <v name="ROPT">     -0.00025000     -0.00025000     -0.00025000     -0.00025000</v>
    <i type="int" name="LMAXPAW">  -100</i>
    <i type="int" name="LMAXMIX">     4</i>
    <i type="logical" name="NLSPLINE"> F  </i>
   </separator>
   <separator name="electronic startup" >
    <i type="int" name="ISTART">     0</i>
    <i type="int" name="ICHARG">     2</i>
    <i type="int" name="INIWAV">     1</i>
   </separator>
   <separator name="electronic spin" >
    <i type="int" name="ISPIN">     2</i>
    <i type="logical" name="LNONCOLLINEAR"> F  </i>
    <v name="MAGMOM">      1.00000000      1.00000000      1.00000000      1.00000000      1.00000000      1.00000000      1.00000000      1.00000000      1.00000000      1.00000000      1.00000000      1.00000000      1.00000000      1.00000000      1.00000000      1.00000000      1.00000000      1.00000000      1.00000000      1.00000000
      1.00000000      1.00000000      1.00000000      1.00000000      1.00000000      1.00000000      1.00000000      1.00000000      1.00000000      1.00000000      1.00000000      1.00000000      1.00000000      1.00000000      1.00000000      1.00000000      1.00000000      1.00000000      1.00000000      1.00000000
      1.00000000      1.00000000      1.00000000      1.00000000      1.00000000      1.00000000      1.00000000      1.00000000      1.00000000      1.00000000      1.00000000      1.00000000</v>
    <i name="NUPDOWN">     -1.00000000</i>
    <i type="logical" name="LSORBIT"> F  </i>
    <v name="SAXIS">      0.00000000      0.00000000      1.00000000</v>
    <i type="logical" name="LSPIRAL"> F  </i>
    <v name="QSPIRAL">      0.00000000      0.00000000      0.00000000</v>
    <i type="logical" name="LZEROZ"> F  </i>
   </separator>
   <separator name="electronic exchange-correlation" >
    <i type="logical" name="LASPH"> T  </i>
    <i type="logical" name="LMETAGGA"> F  </i>
   </separator>
   <separator name="electronic convergence" >
    <i type="int" name="NELM">   100</i>
    <i type="int" name="NELMDL">   -10</i>
    <i type="int" name="NELMIN">     2</i>
    <i name="ENINI">    520.00000000</i>
    <separator name="electronic convergence detail" >
     <i type="logical" name="LDIAG"> T  </i>
     <i type="logical" name="LSUBROT"> F  </i>
     <i name="WEIMIN">      0.00100000</i>
     <i name="EBREAK">      0.00000000</i>
     <i name="DEPER">      0.30000000</i>
     <i type="int" name="NRMM">     4</i>
     <i name="TIME">      0.40000000</i>
    </separator>
   </separator>
   <separator name="electronic mixer" >
    <i name="AMIX">      0.40000000</i>
    <i name="BMIX">      1.00000000</i>
    <i name="AMIN">      0.10000000</i>
    <i name="AMIX_MAG">      1.60000000</i>
    <i name="BMIX_MAG">      1.00000000</i>
    <separator name="electronic mixer details" >
     <i type="int" name="IMIX">     4</i>
     <i type="logical" name="MIXFIRST"> F  </i>
     <i type="int" name="MAXMIX">   -45</i>
     <i name="WC">    100.00000000</i>
     <i type="int" name="INIMIX">     1</i>
     <i type="int" name="MIXPRE">     1</i>
     <i type="int" name="MREMOVE">     5</i>
    </separator>
   </separator>
   <separator name="electronic dipolcorrection" >
    <i type="logical" name="LDIPOL"> F  </i>
    <i type="logical" name="LMONO"> F  </i>
    <i type="int" name="IDIPOL">     0</i>
    <i name="EPSILON">      1.00000000</i>
    <v name="DIPOL">   -100.00000000   -100.00000000   -100.00000000</v>
    <i name="EFIELD">      0.00000000</i>
   </separator>
  </separator>
  <separator name="grids" >
   <i type="int" name="NGX">    72</i>
   <i type="int" name="NGY">    72</i>
   <i type="int" name="NGZ">    72</i>
   <i type="int" name="NGXF">   144</i>
   <i type="int" name="NGYF">   144</i>
   <i type="int" name="NGZF">   144</i>
   <i type="logical" name="ADDGRID"> F  </i>
  </separator>
  <separator name="ionic" >
   <i type="int" name="NSW">  1000</i>
   <i type="int" name="IBRION">     2</i>
   <i type="int" name="MDALGO">     0</i>
   <i type="int" name="ISIF">     2</i>
   <i name="PSTRESS">      0.00000000</i>
   <i name="EDIFFG">     -0.00100000</i>
   <i type="int" name="NFREE">     1</i>
   <i name="POTIM">      0.20000000</i>
   <i name="SMASS">     -3.00000000</i>
   <i name="SCALEE">      1.00000000</i>
  </separator>
  <separator name="ionic md" >
   <i name="TEBEG">      0.00010000</i>
   <i name="TEEND">      0.00010000</i>
   <i type="int" name="NBLOCK">     1</i>
   <i type="int" name="KBLOCK">  1000</i>
   <i type="int" name="NPACO">   256</i>
   <i name="APACO">     10.00000000</i>
  </separator>
  <separator name="symmetry" >
   <i type="int" name="ISYM">     2</i>
   <i name="SYMPREC">      0.00001000</i>
  </separator>
  <separator name="dos" >
   <i type="int" name="LORBIT">     0</i>
   <v name="RWIGS">     -1.00000000     -1.00000000     -1.00000000     -1.00000000</v>
   <i type="int" name="NEDOS">   301</i>
   <i name="EMIN">     10.00000000</i>
   <i name="EMAX">    -10.00000000</i>
   <i name="EFERMI">      0.00000000</i>
  </separator>
  <separator name="writing" >
   <i type="int" name="NWRITE">     2</i>
   <i type="logical" name="LWAVE"> F  </i>
   <i type="logical" name="LDOWNSAMPLE"> F  </i>
   <i type="logical" name="LCHARG"> F  </i>
   <i type="logical" name="LPARD"> F  </i>
   <i type="logical" name="LVTOT"> F  </i>
   <i type="logical" name="LVHAR"> F  </i>
   <i type="logical" name="LELF"> F  </i>
   <i type="logical" name="LOPTICS"> F  </i>
   <v name="STM">      0.00000000      0.00000000      0.00000000      0.00000000      0.00000000      0.00000000      0.00000000</v>
  </separator>
  <separator name="performance" >
   <i type="int" name="NPAR">     4</i>
   <i type="int" name="NSIM">     4</i>
   <i type="int" name="NBLK">    -1</i>
   <i type="logical" name="LPLANE"> T  </i>
   <i type="logical" name="LSCALAPACK"> T  </i>
   <i type="logical" name="LSCAAWARE"> F  </i>
   <i type="logical" name="LSCALU"> F  </i>
   <i type="logical" name="LASYNC"> F  </i>
   <i type="logical" name="LORBITALREAL"> F  </i>
  </separator>
  <separator name="miscellaneous" >
   <i type="int" name="IDIOT">     3</i>
   <i type="int" name="PHON_NSTRUCT">    -1</i>
   <i type="logical" name="LMUSIC"> F  </i>
   <v name="POMASS">      7.01000000     30.97400000     32.06600000     35.45300000</v>
   <v name="DARWINR">      0.00000000      0.00000000      0.00000000      0.00000000</v>
   <v name="DARWINV">      1.00000000      1.00000000      1.00000000      1.00000000</v>
   <i type="logical" name="LCORR"> T  </i>
  </separator>
  <i type="logical" name="GGA_COMPAT"> T  </i>
  <i type="logical" name="LBERRY"> F  </i>
  <i type="int" name="ICORELEVEL">     0</i>
  <i type="logical" name="LDAU"> F  </i>
  <i type="int" name="I_CONSTRAINED_M">     0</i>
  <separator name="electronic exchange-correlation" >
   <i type="string" name="GGA">PE</i>
   <i type="int" name="VOSKOWN">     0</i>
   <i type="logical" name="LHFCALC"> F  </i>
   <i type="string" name="PRECFOCK"></i>
   <i type="logical" name="LSYMGRAD"> F  </i>
   <i type="logical" name="LHFONE"> F  </i>
   <i type="logical" name="LRHFCALC"> F  </i>
   <i type="logical" name="LTHOMAS"> F  </i>
   <i type="logical" name="LMODELHF"> F  </i>
   <i type="logical" name="LFOCKACE"> F  </i>
   <i name="ENCUT4O">     -1.00000000</i>
   <i type="int" name="EXXOEP">     0</i>
   <i type="int" name="FOURORBIT">     0</i>
   <i name="AEXX">      0.00000000</i>
   <i name="HFALPHA">      0.00000000</i>
   <i name="MCALPHA">      0.00000000</i>
   <i name="ALDAX">      1.00000000</i>
   <i name="AGGAX">      1.00000000</i>
   <i name="ALDAC">      1.00000000</i>
   <i name="AGGAC">      1.00000000</i>
   <i type="int" name="NKREDX">     1</i>
   <i type="int" name="NKREDY">     1</i>
   <i type="int" name="NKREDZ">     1</i>
   <i type="logical" name="SHIFTRED"> F  </i>
   <i type="logical" name="ODDONLY"> F  </i>
   <i type="logical" name="EVENONLY"> F  </i>
   <i type="int" name="LMAXFOCK">     0</i>
   <i type="int" name="NMAXFOCKAE">     0</i>
   <i type="logical" name="LFOCKAEDFT"> F  </i>
   <i name="HFSCREEN">      0.00000000</i>
   <i name="HFSCREENC">      0.00000000</i>
   <i type="int" name="NBANDSGWLOW">     0</i>
  </separator>
  <separator name="vdW DFT" >
   <i type="logical" name="LUSE_VDW"> F  </i>
   <i type="int" name="IVDW_NL">     1</i>
   <i type="logical" name="LSPIN_VDW"> F  </i>
   <i name="Zab_VDW">     -0.84910000</i>
   <i name="PARAM1">      0.12340000</i>
   <i name="PARAM2">      1.00000000</i>
   <i name="PARAM3">      0.00000000</i>
  </separator>
  <separator name="model GW" >
   <i type="int" name="MODEL_GW">     0</i>
   <i name="MODEL_EPS0">     10.36484697</i>
   <i name="MODEL_ALPHA">      1.00000000</i>
  </separator>
  <separator name="linear response parameters" >
   <i type="logical" name="LEPSILON"> F  </i>
   <i type="logical" name="LRPA"> F  </i>
   <i type="logical" name="LNABLA"> F  </i>
   <i type="logical" name="LVEL"> F  </i>
   <i name="CSHIFT">      0.10000000</i>
   <i name="OMEGAMAX">     -1.00000000</i>
   <i name="DEG_THRESHOLD">      0.00200000</i>
   <i name="RTIME">     -0.10000000</i>
   <i name="WPLASMAI">      0.00000000</i>
   <v name="DFIELD">      0.00000000      0.00000000      0.00000000</v>
   <v name="WPLASMA">      0.00000000      0.00000000      0.00000000      0.00000000      0.00000000      0.00000000      0.00000000      0.00000000      0.00000000</v>
  </separator>
  <separator name="orbital magnetization" >
   <i type="logical" name="NUCIND"> F  </i>
   <v name="MAGPOS">      0.00000000      0.00000000      0.00000000</v>
   <i type="logical" name="LNICSALL"> T  </i>
   <i type="logical" name="ORBITALMAG"> F  </i>
   <i type="logical" name="LMAGBLOCH"> F  </i>
   <i type="logical" name="LCHIMAG"> F  </i>
   <i type="logical" name="LGAUGE"> T  </i>
   <i type="int" name="MAGATOM">     0</i>
   <v name="MAGDIPOL">      0.00000000      0.00000000      0.00000000</v>
   <v name="AVECCONST">      0.00000000      0.00000000      0.00000000</v>
  </separator>
  <separator name="response functions" >
   <i type="logical" name="LALL_IN_ONE"> F  </i>
   <i type="int" name="IALL_IN_ONE">    -1</i>
   <i type="int" name="NBANDS_WAVE">    -1</i>
   <i type="logical" name="LFINITE_TEMPERATURE"> F  </i>
   <i type="logical" name="LADDER"> F  </i>
   <i type="logical" name="LRPAFORCE"> F  </i>
   <i type="logical" name="LFXC"> F  </i>
   <i type="logical" name="LHARTREE"> T  </i>
   <i type="int" name="IBSE">     0</i>
   <v type="int" name="KPOINT">    -1     0     0     0</v>
   <i type="logical" name="LTCTC"> F  </i>
   <i type="logical" name="LTCTE"> F  </i>
   <i type="logical" name="LTETE"> F  </i>
   <i type="logical" name="LTRIPLET"> F  </i>
   <i type="logical" name="LFXCEPS"> F  </i>
   <i type="logical" name="LFXHEG"> F  </i>
   <i type="int" name="NATURALO">     2</i>
   <i type="logical" name="LHOLEGF"> F  </i>
   <i type="logical" name="L2ORDER"> F  </i>
   <i type="logical" name="LDMP1"> F  </i>
   <i type="logical" name="LMP2LT"> F  </i>
   <i type="logical" name="LSMP2LT"> F  </i>
   <i type="logical" name="LGWLF"> F  </i>
   <i name="ENCUTGW">     -1.60000002</i>
   <i name="ENCUTGWSOFT">     -1.60000002</i>
   <i name="ENCUTLF">     -1.00000000</i>
   <i type="logical" name="LESF_SPLINES"> F  </i>
   <i type="int" name="LMAXMP2">    -1</i>
   <i name="SCISSOR">      0.00000000</i>
   <i type="int" name="NOMEGA">     0</i>
   <i type="int" name="NOMEGAR">     0</i>
   <i type="int" name="NBANDSGW">    -1</i>
   <i type="int" name="NBANDSO">    -1</i>
   <i type="int" name="NBANDSV">    -1</i>
   <i type="int" name="NELMGW">     1</i>
   <i type="int" name="NELMHF">     1</i>
   <i type="int" name="DIM">     3</i>
   <i type="int" name="IESPILON">     4</i>
   <i type="int" name="ANTIRES">     0</i>
   <i name="OMEGAMAX">    -30.00000000</i>
   <i name="OMEGAMIN">    -30.00000000</i>
   <i name="OMEGATL">   -200.00000000</i>
   <i type="int" name="OMEGAGRID">     0</i>
   <i name="CSHIFT">     -0.10000000</i>
   <i type="logical" name="LSELFENERGY"> F  </i>
   <i type="logical" name="LSPECTRAL"> F  </i>
   <i type="logical" name="LSPECTRALGW"> F  </i>
   <i type="logical" name="LSINGLES"> F  </i>
   <i type="logical" name="LFERMIGW"> F  </i>
   <i type="logical" name="ODDONLYGW"> F  </i>
   <i type="logical" name="EVENONLYGW"> F  </i>
   <i type="int" name="NKREDLFX">     1</i>
   <i type="int" name="NKREDLFY">     1</i>
   <i type="int" name="NKREDLFZ">     1</i>
   <i type="int" name="MAXMEM">  2800</i>
   <i type="int" name="TELESCOPE">     0</i>
   <i type="int" name="NTAUPAR">    -1</i>
   <i type="int" name="NOMEGAPAR">    -1</i>
   <i name="DAMP_NEWTON">      0.80000001</i>
   <i name="LAMBDA">      1.00000000</i>
  </separator>
  <separator name="External order field" >
   <i name="OFIELD_KAPPA">      0.00000000</i>
   <v name="OFIELD_K">      0.00000000      0.00000000      0.00000000</v>
   <i name="OFIELD_Q6_NEAR">      0.00000000</i>
   <i name="OFIELD_Q6_FAR">      0.00000000</i>
   <i name="OFIELD_A">      0.00000000</i>
  </separator>
  <separator name="optional k-points parameters" >
   <i type="int" name="KPOINTS_OPT_MODE">     1</i>
   <i type="logical" name="LKPOINTS_OPT"> F  </i>
  </separator>
 </parameters>
 <atominfo>
  <atoms>      52 </atoms>
  <types>       4 </types>
  <array name="atoms" >
   <dimension dim="1">ion</dimension>
   <field type="string">element</field>
   <field type="int">atomtype</field>
   <set>
    <rc><c>Li</c><c>   1</c></rc>
    <rc><c>Li</c><c>   1</c></rc>
    <rc><c>Li</c><c>   1</c></rc>
    <rc><c>Li</c><c>   1</c></rc>
    <rc><c>Li</c><c>   1</c></rc>
    <rc><c>Li</c><c>   1</c></rc>
    <rc><c>Li</c><c>   1</c></rc>
    <rc><c>Li</c><c>   1</c></rc>
    <rc><c>Li</c><c>   1</c></rc>
    <rc><c>Li</c><c>   1</c></rc>
    <rc><c>Li</c><c>   1</c></rc>
    <rc><c>Li</c><c>   1</c></rc>
    <rc><c>Li</c><c>   1</c></rc>
    <rc><c>Li</c><c>   1</c></rc>
    <rc><c>Li</c><c>   1</c></rc>
    <rc><c>Li</c><c>   1</c></rc>
    <rc><c>Li</c><c>   1</c></rc>
    <rc><c>Li</c><c>   1</c></rc>
    <rc><c>Li</c><c>   1</c></rc>
    <rc><c>Li</c><c>   1</c></rc>
    <rc><c>Li</c><c>   1</c></rc>
    <rc><c>Li</c><c>   1</c></rc>
    <rc><c>Li</c><c>   1</c></rc>
    <rc><c>Li</c><c>   1</c></rc>
    <rc><c>P </c><c>   2</c></rc>
    <rc><c>P </c><c>   2</c></rc>
    <rc><c>P </c><c>   2</c></rc>
    <rc><c>P </c><c>   2</c></rc>
    <rc><c>S </c><c>   3</c></rc>
    <rc><c>S </c><c>   3</c></rc>
    <rc><c>S </c><c>   3</c></rc>
    <rc><c>S </c><c>   3</c></rc>
    <rc><c>S </c><c>   3</c></rc>
    <rc><c>S </c><c>   3</c></rc>
    <rc><c>S </c><c>   3</c></rc>
    <rc><c>S </c><c>   3</c></rc>
    <rc><c>S </c><c>   3</c></rc>
    <rc><c>S </c><c>   3</c></rc>
    <rc><c>S </c><c>   3</c></rc>
    <rc><c>S </c><c>   3</c></rc>
    <rc><c>S </c><c>   3</c></rc>
    <rc><c>S </c><c>   3</c></rc>
    <rc><c>S </c><c>   3</c></rc>
    <rc><c>S </c><c>   3</c></rc>
    <rc><c>S </c><c>   3</c></rc>
    <rc><c>S </c><c>   3</c></rc>
    <rc><c>S </c><c>   3</c></rc>
    <rc><c>S </c><c>   3</c></rc>
    <rc><c>Cl</c><c>   4</c></rc>
    <rc><c>Cl</c><c>   4</c></rc>
    <rc><c>Cl</c><c>   4</c></rc>
    <rc><c>Cl</c><c>   4</c></rc>
   </set>
  </array>
  <array name="atomtypes" >
   <dimension dim="1">type</dimension>
   <field type="int">atomspertype</field>
   <field type="string">element</field>
   <field>mass</field>
   <field>valence</field>
   <field type="string">pseudopotential</field>
   <set>
    <rc><c>  24</c><c>Li</c><c>      7.01000000</c><c>      3.00000000</c><c>  PAW_PBE Li_sv_GW 25Mar2010            </c></rc>
    <rc><c>   4</c><c>P </c><c>     30.97400000</c><c>      5.00000000</c><c>  PAW_PBE P_GW 19Mar2012                </c></rc>
    <rc><c>  20</c><c>S </c><c>     32.06600000</c><c>      6.00000000</c><c>  PAW_PBE S_GW 19Mar2012                </c></rc>
    <rc><c>   4</c><c>Cl</c><c>     35.45300000</c><c>      7.00000000</c><c>  PAW_PBE Cl_GW 19Mar2012               </c></rc>
   </set>
  </array>
 </atominfo>
 <structure name="initialpos" >
  <crystal>
   <varray name="basis" >
    <v>       9.64876352       0.00000000       0.00000000 </v>
    <v>       0.00000000       9.64876352       0.00000000 </v>
    <v>       0.00000000       0.00000000       9.64876352 </v>
   </varray>
   <i name="volume">    898.28673713 </i>
   <varray name="rec_basis" >
    <v>       0.10364022       0.00000000       0.00000000 </v>
    <v>       0.00000000       0.10364022       0.00000000 </v>
    <v>       0.00000000       0.00000000       0.10364022 </v>
   </varray>
  </crystal>
  <varray name="positions" >
   <v>       0.96675629       0.31612162       0.32727765 </v>
   <v>       0.97193494       0.70510335       0.70204748 </v>
   <v>       0.99863492       0.29134951       0.70915320 </v>
   <v>       0.03821546       0.66859452       0.34514014 </v>
   <v>       0.31644024       0.32037031       0.95299842 </v>
   <v>       0.15648989       0.80236230       0.05247894 </v>
   <v>       0.80476217       0.20627121       0.00981096 </v>
   <v>       0.79604969       0.78201747       0.98315590 </v>
   <v>       0.30389723       0.97650651       0.28954295 </v>
   <v>       0.18696097       0.03856553       0.83999006 </v>
   <v>       0.82035425       0.97618922       0.79408050 </v>
   <v>       0.83029255       0.01638713       0.20906092 </v>
   <v>       0.30276758       0.79456188       0.49570996 </v>
   <v>       0.31380858       0.18256659       0.54412470 </v>
   <v>       0.68199860       0.80697942       0.51151076 </v>
   <v>       0.66611381       0.17898386       0.46058091 </v>
   <v>       0.20431351       0.47527478       0.67995777 </v>
   <v>       0.27588549       0.51467555       0.20092790 </v>
   <v>       0.71177484       0.47222460       0.18228633 </v>
   <v>       0.77191076       0.52320732       0.65076981 </v>
   <v>       0.52811517       0.64107565       0.84456663 </v>
   <v>       0.48270146       0.69915553       0.21138239 </v>
   <v>       0.51554688       0.28009557       0.20768096 </v>
   <v>       0.53651513       0.92126242       0.72150951 </v>
   <v>       0.49794361       0.48455492       0.50630195 </v>
   <v>       0.50096366       0.99259061       0.00517214 </v>
   <v>       0.99799326       0.49680951       0.99848865 </v>
   <v>       0.00065292       0.99776209       0.50369707 </v>
   <v>       0.12149624       0.88873600       0.64113331 </v>
   <v>       0.12104599       0.11911976       0.37907127 </v>
   <v>       0.88747486       0.85998630       0.38731531 </v>
   <v>       0.86023054       0.12151833       0.60573424 </v>
   <v>       0.89771717       0.62428208       0.13828521 </v>
   <v>       0.85024035       0.40436588       0.87587721 </v>
   <v>       0.12687274       0.61815550       0.88102371 </v>
   <v>       0.10882603       0.35543674       0.11151980 </v>
   <v>       0.61474457       0.10909997       0.86963693 </v>
   <v>       0.62552811       0.88198570       0.13765909 </v>
   <v>       0.36372414       0.12015715       0.10617589 </v>
   <v>       0.37498857       0.85581056       0.89791871 </v>
   <v>       0.63418506       0.59897559       0.38671929 </v>
   <v>       0.59808180       0.35056339       0.63273566 </v>
   <v>       0.39257073       0.62104710       0.63335201 </v>
   <v>       0.36373362       0.37266193       0.38450034 </v>
   <v>       0.73279991       0.75323575       0.74790939 </v>
   <v>       0.74939916       0.24215515       0.24212400 </v>
   <v>       0.25348819       0.74411814       0.26667088 </v>
   <v>       0.22562200       0.25155285       0.74955313 </v>
   <v>       0.96928021       0.98430712       0.99253310 </v>
   <v>       0.99448503       0.50220536       0.53116745 </v>
   <v>       0.48558223       0.98550207       0.49131506 </v>
   <v>       0.48853276       0.49467805       0.04825919 </v>
  </varray>
 </structure>
 <calculation>
  <scstep>
   <time name="dav">    2.23    2.29</time>
   <time name="total">    2.71    2.80</time>
   <energy>
    <i name="alphaZ">    302.19471407 </i>
    <i name="ewald">  -8827.87833744 </i>
    <i name="hartreedc">  -2107.37388458 </i>
    <i name="XCdc">    534.42304292 </i>
    <i name="pawpsdc">   8141.38806575 </i>
    <i name="pawaedc">  -8271.61346273 </i>
    <i name="eentropy">     -0.00529804 </i>
    <i name="bandstr">   -880.73666653 </i>
    <i name="atom">  12703.13999606 </i>
    <i name="e_fr_energy">   1593.53816947 </i>
    <i name="e_wo_entrp">   1593.54346751 </i>
    <i name="e_0_energy">   1593.54081849 </i>
   </energy>
  </scstep>
  <scstep>
   <time name="dav">    2.60    2.62</time>
   <time name="total">    2.60    2.62</time>
   <energy>
    <i name="e_fr_energy">    -55.84413255 </i>
    <i name="e_wo_entrp">    -55.84413255 </i>
    <i name="e_0_energy">    -55.84413255 </i>
   </energy>
  </scstep>
  <scstep>
   <time name="dav">    2.59    2.61</time>
   <time name="total">    2.59    2.61</time>
   <energy>
    <i name="e_fr_energy">   -227.86179119 </i>
    <i name="e_wo_entrp">   -227.86179119 </i>
    <i name="e_0_energy">   -227.86179119 </i>
   </energy>
  </scstep>
  <scstep>
   <time name="dav">    3.11    3.13</time>
   <time name="total">    3.11    3.13</time>
   <energy>
    <i name="e_fr_energy">   -241.56628776 </i>
    <i name="e_wo_entrp">   -241.56628776 </i>
    <i name="e_0_energy">   -241.56628776 </i>
   </energy>
  </scstep>
  <scstep>
   <time name="dav">    2.91    2.93</time>
   <time name="total">    2.91    2.93</time>
   <energy>
    <i name="e_fr_energy">   -241.79638636 </i>
    <i name="e_wo_entrp">   -241.79638636 </i>
    <i name="e_0_energy">   -241.79638636 </i>
   </energy>
  </scstep>
  <scstep>
   <time name="dav">    3.01    3.03</time>
   <time name="total">    3.01    3.03</time>
   <energy>
    <i name="e_fr_energy">   -241.80875582 </i>
    <i name="e_wo_entrp">   -241.80875582 </i>
    <i name="e_0_energy">   -241.80875582 </i>
   </energy>
  </scstep>
  <scstep>
   <time name="dav">    3.00    3.03</time>
   <time name="total">    3.01    3.03</time>
   <energy>
    <i name="e_fr_energy">   -241.80914395 </i>
    <i name="e_wo_entrp">   -241.80914395 </i>
    <i name="e_0_energy">   -241.80914395 </i>
   </energy>
  </scstep>
  <scstep>
   <time name="dav">    3.12    3.16</time>
   <time name="total">    3.12    3.16</time>
   <energy>
    <i name="e_fr_energy">   -241.80916636 </i>
    <i name="e_wo_entrp">   -241.80916636 </i>
    <i name="e_0_energy">   -241.80916636 </i>
   </energy>
  </scstep>
  <scstep>
   <time name="dav">    3.73    3.77</time>
   <time name="total">    3.73    3.77</time>
   <energy>
    <i name="e_fr_energy">   -241.80916780 </i>
    <i name="e_wo_entrp">   -241.80916780 </i>
    <i name="e_0_energy">   -241.80916780 </i>
   </energy>
  </scstep>
  <scstep>
   <time name="dav">    1.94    1.95</time>
   <time name="total">    2.01    2.03</time>
   <energy>
    <i name="e_fr_energy">   -241.80916786 </i>
    <i name="e_wo_entrp">   -241.80916786 </i>
    <i name="e_0_energy">   -241.80916786 </i>
   </energy>
  </scstep>
  <scstep>
   <time name="diag">    0.36    0.36</time>
   <time name="diis">    1.25    1.26</time>
   <time name="orth">    0.06    0.07</time>
   <time name="total">    2.22    2.26</time>
   <energy>
    <i name="e_fr_energy">   -236.25352004 </i>
    <i name="e_wo_entrp">   -236.25352004 </i>
    <i name="e_0_energy">   -236.25352004 </i>
   </energy>
  </scstep>
  <scstep>
   <time name="diag">    4.49    4.53</time>
   <time name="diis">    1.22    1.23</time>
   <time name="orth">    0.06    0.07</time>
   <time name="total">    6.31    6.37</time>
   <energy>
    <i name="e_fr_energy">   -255.68430034 </i>
    <i name="e_wo_entrp">   -255.68430034 </i>
    <i name="e_0_energy">   -255.68430034 </i>
   </energy>
  </scstep>
  <scstep>
   <time name="diag">    0.47    0.49</time>
   <time name="diis">    1.19    1.20</time>
   <time name="orth">    0.06    0.07</time>
   <time name="total">    2.26    2.30</time>
   <energy>
    <i name="e_fr_energy">   -258.18523964 </i>
    <i name="e_wo_entrp">   -258.18523964 </i>
    <i name="e_0_energy">   -258.18523964 </i>
   </energy>
  </scstep>
  <scstep>
   <time name="diag">    0.36    0.36</time>
   <time name="diis">    1.64    1.69</time>
   <time name="orth">    0.06    0.06</time>
   <time name="total">    2.60    2.67</time>
   <energy>
    <i name="e_fr_energy">   -258.37760218 </i>
    <i name="e_wo_entrp">   -258.37760218 </i>
    <i name="e_0_energy">   -258.37760218 </i>
   </energy>
  </scstep>
  <scstep>
   <time name="diag">    0.36    0.36</time>
   <time name="diis">    1.28    1.29</time>
   <time name="orth">    0.06    0.06</time>
   <time name="total">    2.24    2.26</time>
   <energy>
    <i name="e_fr_energy">   -258.34858372 </i>
    <i name="e_wo_entrp">   -258.34858372 </i>
    <i name="e_0_energy">   -258.34858372 </i>
   </energy>
  </scstep>
  <scstep>
   <time name="diag">    0.36    0.36</time>
   <time name="diis">    1.30    1.34</time>
   <time name="orth">    0.06    0.06</time>
   <time name="total">    2.26    2.30</time>
   <energy>
    <i name="e_fr_energy">   -258.36833040 </i>
    <i name="e_wo_entrp">   -258.36833040 </i>
    <i name="e_0_energy">   -258.36833040 </i>
   </energy>
  </scstep>
  <scstep>
   <time name="diag">    0.36    0.36</time>
   <time name="diis">    1.46    1.47</time>
   <time name="orth">    0.06    0.06</time>
   <time name="total">    2.42    2.44</time>
   <energy>
    <i name="e_fr_energy">   -258.37400406 </i>
    <i name="e_wo_entrp">   -258.37400406 </i>
    <i name="e_0_energy">   -258.37400406 </i>
   </energy>
  </scstep>
  <scstep>
   <time name="diag">    0.36    0.36</time>
   <time name="diis">    1.50    1.52</time>
   <time name="orth">    0.06    0.06</time>
   <time name="total">    2.46    2.50</time>
   <energy>
    <i name="e_fr_energy">   -258.37520023 </i>
    <i name="e_wo_entrp">   -258.37520023 </i>
    <i name="e_0_energy">   -258.37520023 </i>
   </energy>
  </scstep>
  <scstep>
   <time name="diag">    0.36    0.36</time>
   <time name="diis">    1.57    1.58</time>
   <time name="orth">    0.06    0.07</time>
   <time name="total">    2.53    2.55</time>
   <energy>
    <i name="e_fr_energy">   -258.37565959 </i>
    <i name="e_wo_entrp">   -258.37565959 </i>
    <i name="e_0_energy">   -258.37565959 </i>
   </energy>
  </scstep>
  <scstep>
   <time name="diag">    0.36    0.36</time>
   <time name="diis">    1.59    1.60</time>
   <time name="orth">    0.06    0.06</time>
   <time name="total">    2.55    2.57</time>
   <energy>
    <i name="e_fr_energy">   -258.37575251 </i>
    <i name="e_wo_entrp">   -258.37575251 </i>
    <i name="e_0_energy">   -258.37575251 </i>
   </energy>
  </scstep>
  <scstep>
   <time name="diag">    0.36    0.36</time>
   <time name="diis">    1.37    1.38</time>
   <time name="orth">    0.06    0.06</time>
   <time name="total">    2.33    2.35</time>
   <energy>
    <i name="e_fr_energy">   -258.37576892 </i>
    <i name="e_wo_entrp">   -258.37576892 </i>
    <i name="e_0_energy">   -258.37576892 </i>
   </energy>
  </scstep>
  <scstep>
   <time name="diag">    0.36    0.36</time>
   <time name="diis">    1.59    1.60</time>
   <time name="orth">    0.06    0.07</time>
   <time name="total">    2.55    2.57</time>
   <energy>
    <i name="e_fr_energy">   -258.37577637 </i>
    <i name="e_wo_entrp">   -258.37577637 </i>
    <i name="e_0_energy">   -258.37577637 </i>
   </energy>
  </scstep>
  <scstep>
   <time name="diag">    0.36    0.36</time>
   <time name="diis">    1.30    1.31</time>
   <time name="orth">    0.07    0.07</time>
   <time name="total">    2.26    2.28</time>
   <energy>
    <i name="e_fr_energy">   -258.37577614 </i>
    <i name="e_wo_entrp">   -258.37577614 </i>
    <i name="e_0_energy">   -258.37577614 </i>
   </energy>
  </scstep>
  <scstep>
   <time name="diag">    0.36    0.36</time>
   <time name="diis">    0.99    1.00</time>
   <time name="orth">    0.06    0.07</time>
   <time name="total">    1.89    1.90</time>
   <energy>
    <i name="alphaZ">    302.19471407 </i>
    <i name="ewald">  -8827.87833744 </i>
    <i name="hartreedc">  -2205.95926780 </i>
    <i name="XCdc">    537.88445607 </i>
    <i name="pawpsdc">   9814.46150109 </i>
    <i name="pawaedc">  -9958.40233120 </i>
    <i name="eentropy">     -0.00000000 </i>
    <i name="bandstr">  -2623.81650611 </i>
    <i name="atom">  12703.13999606 </i>
    <i name="e_fr_energy">   -258.37577526 </i>
    <i name="e_wo_entrp">   -258.37577526 </i>
    <i name="e_0_energy">   -258.37577526 </i>
   </energy>
  </scstep>
  <structure>
   <crystal>
    <varray name="basis" >
     <v>       9.64876352       0.00000000       0.00000000 </v>
     <v>       0.00000000       9.64876352       0.00000000 </v>
     <v>       0.00000000       0.00000000       9.64876352 </v>
    </varray>
    <i name="volume">    898.28673713 </i>
    <varray name="rec_basis" >
     <v>       0.10364022       0.00000000       0.00000000 </v>
     <v>       0.00000000       0.10364022       0.00000000 </v>
     <v>       0.00000000       0.00000000       0.10364022 </v>
    </varray>
   </crystal>
   <varray name="positions" >
    <v>       0.96675629       0.31612162       0.32727765 </v>
    <v>       0.97193494       0.70510335       0.70204748 </v>
    <v>       0.99863492       0.29134951       0.70915320 </v>
    <v>       0.03821546       0.66859452       0.34514014 </v>
    <v>       0.31644024       0.32037031       0.95299842 </v>
    <v>       0.15648989       0.80236230       0.05247894 </v>
    <v>       0.80476217       0.20627121       0.00981096 </v>
    <v>       0.79604969       0.78201747       0.98315590 </v>
    <v>       0.30389723       0.97650651       0.28954295 </v>
    <v>       0.18696097       0.03856553       0.83999006 </v>
    <v>       0.82035425       0.97618922       0.79408050 </v>
    <v>       0.83029255       0.01638713       0.20906092 </v>
    <v>       0.30276758       0.79456188       0.49570996 </v>
    <v>       0.31380858       0.18256659       0.54412470 </v>
    <v>       0.68199860       0.80697942       0.51151076 </v>
    <v>       0.66611381       0.17898386       0.46058091 </v>
    <v>       0.20431351       0.47527478       0.67995777 </v>
    <v>       0.27588549       0.51467555       0.20092790 </v>
    <v>       0.71177484       0.47222460       0.18228633 </v>
    <v>       0.77191076       0.52320732       0.65076981 </v>
    <v>       0.52811517       0.64107565       0.84456663 </v>
    <v>       0.48270146       0.69915553       0.21138239 </v>
    <v>       0.51554688       0.28009557       0.20768096 </v>
    <v>       0.53651513       0.92126242       0.72150951 </v>
    <v>       0.49794361       0.48455492       0.50630195 </v>
    <v>       0.50096366       0.99259061       0.00517214 </v>
    <v>       0.99799326       0.49680951       0.99848865 </v>
    <v>       0.00065292       0.99776209       0.50369707 </v>
    <v>       0.12149624       0.88873600       0.64113331 </v>
    <v>       0.12104599       0.11911976       0.37907127 </v>
    <v>       0.88747486       0.85998630       0.38731531 </v>
    <v>       0.86023054       0.12151833       0.60573424 </v>
    <v>       0.89771717       0.62428208       0.13828521 </v>
    <v>       0.85024035       0.40436588       0.87587721 </v>
    <v>       0.12687274       0.61815550       0.88102371 </v>
    <v>       0.10882603       0.35543674       0.11151980 </v>
    <v>       0.61474457       0.10909997       0.86963693 </v>
    <v>       0.62552811       0.88198570       0.13765909 </v>
    <v>       0.36372414       0.12015715       0.10617589 </v>
    <v>       0.37498857       0.85581056       0.89791871 </v>
    <v>       0.63418506       0.59897559       0.38671929 </v>
    <v>       0.59808180       0.35056339       0.63273566 </v>
    <v>       0.39257073       0.62104710       0.63335201 </v>
    <v>       0.36373362       0.37266193       0.38450034 </v>
    <v>       0.73279991       0.75323575       0.74790939 </v>
    <v>       0.74939916       0.24215515       0.24212400 </v>
    <v>       0.25348819       0.74411814       0.26667088 </v>
    <v>       0.22562200       0.25155285       0.74955313 </v>
    <v>       0.96928021       0.98430712       0.99253310 </v>
    <v>       0.99448503       0.50220536       0.53116745 </v>
    <v>       0.48558223       0.98550207       0.49131506 </v>
    <v>       0.48853276       0.49467805       0.04825919 </v>
   </varray>
  </structure>
  <varray name="forces" >
   <v>      -0.00011388       0.00024308       0.00090172 </v>
   <v>       0.00003910      -0.00053241       0.00021893 </v>
   <v>      -0.00057430       0.00036152       0.00004865 </v>
   <v>       0.00023650      -0.00047839       0.00023533 </v>
   <v>       0.00003708       0.00073183      -0.00042992 </v>
   <v>      -0.00082267      -0.00003523       0.00037936 </v>
   <v>       0.00189435      -0.00033382       0.00013813 </v>
   <v>      -0.00057380       0.00040517       0.00024602 </v>
   <v>       0.00103316       0.00001248       0.00004114 </v>
   <v>       0.00061415       0.00009290       0.00151630 </v>
   <v>       0.00088554      -0.00000293      -0.00023495 </v>
   <v>       0.00091040       0.00011971       0.00060126 </v>
   <v>      -0.00065173       0.00055675       0.00045488 </v>
   <v>      -0.00017517      -0.00036566      -0.00030917 </v>
   <v>      -0.00086591       0.00026536      -0.00012572 </v>
   <v>      -0.00097361      -0.00011266      -0.00011109 </v>
   <v>      -0.00005169      -0.00014129      -0.00068434 </v>
   <v>      -0.00036117      -0.00012879      -0.00074983 </v>
   <v>       0.00023222      -0.00005119      -0.00097375 </v>
   <v>      -0.00066847       0.00023820      -0.00221137 </v>
   <v>       0.00020729      -0.00038360      -0.00025814 </v>
   <v>       0.00037907      -0.00044970       0.00007473 </v>
   <v>      -0.00016066       0.00045174      -0.00060393 </v>
   <v>       0.00023059       0.00033833       0.00038230 </v>
   <v>      -0.00016105      -0.00003430       0.00010040 </v>
   <v>       0.00018306      -0.00001293       0.00010439 </v>
   <v>      -0.00057477      -0.00022330      -0.00026979 </v>
   <v>      -0.00023114      -0.00002623       0.00027837 </v>
   <v>      -0.00006179       0.00012845       0.00124469 </v>
   <v>       0.00029659      -0.00023237      -0.00093524 </v>
   <v>      -0.00028019      -0.00105028       0.00023584 </v>
   <v>      -0.00067146       0.00060309      -0.00035377 </v>
   <v>       0.00013806       0.00079862       0.00032242 </v>
   <v>      -0.00123407       0.00065487      -0.00027944 </v>
   <v>       0.00093446      -0.00017007      -0.00037039 </v>
   <v>      -0.00051284      -0.00115406       0.00003929 </v>
   <v>       0.00095904       0.00037510       0.00026569 </v>
   <v>       0.00043625       0.00041780       0.00149295 </v>
   <v>      -0.00080114       0.00061229      -0.00013251 </v>
   <v>       0.00030304      -0.00069805       0.00035592 </v>
   <v>       0.00108187      -0.00055984       0.00007107 </v>
   <v>      -0.00083947      -0.00062511       0.00084200 </v>
   <v>      -0.00024567       0.00068655       0.00008249 </v>
   <v>      -0.00079183      -0.00023427      -0.00050001 </v>
   <v>       0.00001609      -0.00000122      -0.00006552 </v>
   <v>       0.00004234       0.00005465       0.00011005 </v>
   <v>       0.00012766      -0.00008220       0.00019119 </v>
   <v>      -0.00024090      -0.00025947      -0.00015592 </v>
   <v>       0.00126665       0.00065929       0.00095396 </v>
   <v>       0.00003009      -0.00094793      -0.00118516 </v>
   <v>      -0.00006556       0.00053622       0.00003851 </v>
   <v>       0.00019027      -0.00001674      -0.00102801 </v>
  </varray>
  <varray name="stress" >
   <v>      -4.66988478       4.54327301      -1.32975868 </v>
   <v>       4.54327425       3.22770634      -2.71094003 </v>
   <v>      -1.32975845      -2.71094063       1.36302381 </v>
  </varray>
  <energy>
   <i name="e_fr_energy">   -272.00494856 </i>
   <i name="e_wo_entrp">   -272.00494856 </i>
   <i name="e_0_energy">   -272.00494856 </i>
  </energy>
  <time name="totalsc">   68.80   69.63</time>
 </calculation>
 <calculation>
  <scstep>
   <time name="dav">    2.49    2.52</time>
   <time name="total">    3.03    3.06</time>
   <energy>
    <i name="alphaZ">    302.19471407 </i>
    <i name="ewald">  -8827.90208906 </i>
    <i name="hartreedc">  -2205.94352674 </i>
    <i name="XCdc">    537.88397482 </i>
    <i name="pawpsdc">   9814.43799844 </i>
    <i name="pawaedc">  -9958.37870283 </i>
    <i name="eentropy">     -0.00000000 </i>
    <i name="bandstr">  -2623.80814082 </i>
    <i name="atom">  12703.13999606 </i>
    <i name="e_fr_energy">   -258.37577606 </i>
    <i name="e_wo_entrp">   -258.37577606 </i>
    <i name="e_0_energy">   -258.37577606 </i>
   </energy>
  </scstep>
  <scstep>
   <time name="diag">    0.36    0.37</time>
   <time name="diis">    0.82    0.83</time>
   <time name="orth">    0.07    0.07</time>
   <time name="total">    1.72    1.74</time>
   <energy>
    <i name="alphaZ">    302.19471407 </i>
    <i name="ewald">  -8827.90208906 </i>
    <i name="hartreedc">  -2205.94498526 </i>
    <i name="XCdc">    537.88378497 </i>
    <i name="pawpsdc">   9814.40139429 </i>
    <i name="pawaedc">  -9958.34160096 </i>
    <i name="eentropy">     -0.00000000 </i>
    <i name="bandstr">  -2623.80699037 </i>
    <i name="atom">  12703.13999606 </i>
    <i name="e_fr_energy">   -258.37577626 </i>
    <i name="e_wo_entrp">   -258.37577626 </i>
    <i name="e_0_energy">   -258.37577626 </i>
   </energy>
  </scstep>
  <structure>
   <crystal>
    <varray name="basis" >
     <v>       9.64876352       0.00000000       0.00000000 </v>
     <v>       0.00000000       9.64876352       0.00000000 </v>
     <v>       0.00000000       0.00000000       9.64876352 </v>
    </varray>
    <i name="volume">    898.28673713 </i>
    <varray name="rec_basis" >
     <v>       0.10364022       0.00000000       0.00000000 </v>
     <v>       0.00000000       0.10364022       0.00000000 </v>
     <v>       0.00000000       0.00000000       0.10364022 </v>
    </varray>
   </crystal>
   <varray name="positions" >
    <v>       0.96675606       0.31612210       0.32727945 </v>
    <v>       0.97193502       0.70510229       0.70204791 </v>
    <v>       0.99863377       0.29135024       0.70915330 </v>
    <v>       0.03821593       0.66859356       0.34514061 </v>
    <v>       0.31644031       0.32037177       0.95299756 </v>
    <v>       0.15648824       0.80236223       0.05247970 </v>
    <v>       0.80476596       0.20627054       0.00981124 </v>
    <v>       0.79604854       0.78201828       0.98315639 </v>
    <v>       0.30389930       0.97650654       0.28954304 </v>
    <v>       0.18696220       0.03856571       0.83999310 </v>
    <v>       0.82035602       0.97618922       0.79408003 </v>
    <v>       0.83029437       0.01638737       0.20906213 </v>
    <v>       0.30276627       0.79456299       0.49571087 </v>
    <v>       0.31380823       0.18256586       0.54412409 </v>
    <v>       0.68199687       0.80697995       0.51151050 </v>
    <v>       0.66611187       0.17898363       0.46058068 </v>
    <v>       0.20431340       0.47527450       0.67995640 </v>
    <v>       0.27588477       0.51467529       0.20092640 </v>
    <v>       0.71177531       0.47222450       0.18228438 </v>
    <v>       0.77190942       0.52320779       0.65076538 </v>
    <v>       0.52811558       0.64107489       0.84456611 </v>
    <v>       0.48270222       0.69915464       0.21138254 </v>
    <v>       0.51554656       0.28009648       0.20767976 </v>
    <v>       0.53651559       0.92126309       0.72151028 </v>
    <v>       0.49794329       0.48455485       0.50630215 </v>
    <v>       0.50096403       0.99259058       0.00517235 </v>
    <v>       0.99799211       0.49680907       0.99848811 </v>
    <v>       0.00065246       0.99776204       0.50369762 </v>
    <v>       0.12149611       0.88873626       0.64113580 </v>
    <v>       0.12104659       0.11911929       0.37906940 </v>
    <v>       0.88747430       0.85998420       0.38731578 </v>
    <v>       0.86022920       0.12151954       0.60573353 </v>
    <v>       0.89771745       0.62428368       0.13828586 </v>
    <v>       0.85023788       0.40436719       0.87587665 </v>
    <v>       0.12687461       0.61815516       0.88102297 </v>
    <v>       0.10882500       0.35543443       0.11151988 </v>
    <v>       0.61474649       0.10910072       0.86963746 </v>
    <v>       0.62552898       0.88198654       0.13766207 </v>
    <v>       0.36372254       0.12015837       0.10617562 </v>
    <v>       0.37498918       0.85580917       0.89791942 </v>
    <v>       0.63418723       0.59897447       0.38671943 </v>
    <v>       0.59808012       0.35056214       0.63273734 </v>
    <v>       0.39257024       0.62104847       0.63335217 </v>
    <v>       0.36373203       0.37266146       0.38449934 </v>
    <v>       0.73279994       0.75323575       0.74790926 </v>
    <v>       0.74939924       0.24215526       0.24212422 </v>
    <v>       0.25348845       0.74411798       0.26667126 </v>
    <v>       0.22562152       0.25155233       0.74955281 </v>
    <v>       0.96928274       0.98430844       0.99253501 </v>
    <v>       0.99448509       0.50220346       0.53116508 </v>
    <v>       0.48558210       0.98550314       0.49131513 </v>
    <v>       0.48853314       0.49467802       0.04825714 </v>
   </varray>
  </structure>
  <varray name="forces" >
   <v>      -0.00008046       0.00015014       0.00051207 </v>
   <v>       0.00005575      -0.00029257       0.00009729 </v>
   <v>      -0.00027818       0.00022900       0.00002026 </v>
   <v>       0.00015466      -0.00023696       0.00008892 </v>
   <v>       0.00005107       0.00046761      -0.00028954 </v>
   <v>      -0.00046450      -0.00002513       0.00022509 </v>
   <v>       0.00119705      -0.00018728       0.00009354 </v>
   <v>      -0.00028689       0.00020828       0.00014201 </v>
   <v>       0.00066538      -0.00001691      -0.00001680 </v>
   <v>       0.00040031       0.00011181       0.00090613 </v>
   <v>       0.00054506       0.00002318      -0.00015680 </v>
   <v>       0.00058269       0.00008905       0.00035598 </v>
   <v>      -0.00037255       0.00034216       0.00023116 </v>
   <v>      -0.00010456      -0.00020122      -0.00020205 </v>
   <v>      -0.00051097       0.00016350      -0.00009575 </v>
   <v>      -0.00056313      -0.00003270      -0.00011030 </v>
   <v>      -0.00001113      -0.00009572      -0.00044505 </v>
   <v>      -0.00019288      -0.00007786      -0.00045394 </v>
   <v>       0.00016650      -0.00002085      -0.00059961 </v>
   <v>      -0.00040042       0.00018306      -0.00138467 </v>
   <v>       0.00015473      -0.00021015      -0.00017533 </v>
   <v>       0.00024861      -0.00026099       0.00000333 </v>
   <v>      -0.00008506       0.00026478      -0.00038477 </v>
   <v>       0.00015133       0.00023277       0.00019304 </v>
   <v>      -0.00011425      -0.00011341      -0.00005195 </v>
   <v>       0.00032255       0.00002453       0.00011320 </v>
   <v>      -0.00024113      -0.00008857      -0.00025021 </v>
   <v>      -0.00007045      -0.00004949       0.00016539 </v>
   <v>      -0.00011084       0.00010742       0.00067263 </v>
   <v>       0.00010853      -0.00026200      -0.00042139 </v>
   <v>      -0.00011047      -0.00051832       0.00023538 </v>
   <v>      -0.00033099       0.00034724      -0.00012541 </v>
   <v>       0.00011393       0.00046842      -0.00000007 </v>
   <v>      -0.00069650       0.00033504      -0.00025932 </v>
   <v>       0.00042445      -0.00027199      -0.00014899 </v>
   <v>      -0.00033698      -0.00048183      -0.00013486 </v>
   <v>       0.00064474       0.00002671       0.00021021 </v>
   <v>       0.00026823       0.00023385       0.00072795 </v>
   <v>      -0.00036129       0.00033476      -0.00013085 </v>
   <v>       0.00037102      -0.00034117       0.00016935 </v>
   <v>       0.00054125      -0.00042774       0.00007076 </v>
   <v>      -0.00047722      -0.00023928       0.00033840 </v>
   <v>      -0.00011746       0.00042182      -0.00006263 </v>
   <v>      -0.00029770      -0.00003726      -0.00037001 </v>
   <v>       0.00010449       0.00014473      -0.00001777 </v>
   <v>      -0.00009465       0.00008478      -0.00007032 </v>
   <v>       0.00026141      -0.00010407       0.00010788 </v>
   <v>      -0.00026302      -0.00002448      -0.00013123 </v>
   <v>      -0.00031761       0.00001026      -0.00011809 </v>
   <v>       0.00004888      -0.00028885       0.00024340 </v>
   <v>      -0.00018826      -0.00009035       0.00026129 </v>
   <v>      -0.00010306      -0.00000777       0.00042306 </v>
  </varray>
  <varray name="stress" >
   <v>      -4.68226234       4.54319273      -1.32976712 </v>
   <v>       4.54319386       3.21564426      -2.71056267 </v>
   <v>      -1.32976694      -2.71056347       1.35087750 </v>
  </varray>
  <energy>
   <i name="e_fr_energy">   -272.00494986 </i>
   <i name="e_wo_entrp">   -272.00494986 </i>
   <i name="e_0_energy">   -272.00494986 </i>
  </energy>
  <time name="totalsc">    7.87    7.97</time>
 </calculation>
 <calculation>
  <scstep>
   <time name="dav">    2.16    2.18</time>
   <time name="total">    2.70    2.72</time>
   <energy>
    <i name="alphaZ">    302.19471407 </i>
    <i name="ewald">  -8827.92391526 </i>
    <i name="hartreedc">  -2205.92786823 </i>
    <i name="XCdc">    537.88324459 </i>
    <i name="pawpsdc">   9814.37730990 </i>
    <i name="pawaedc">  -9958.31706368 </i>
    <i name="eentropy">     -0.00000000 </i>
    <i name="bandstr">  -2623.80219408 </i>
    <i name="atom">  12703.13999606 </i>
    <i name="e_fr_energy">   -258.37577662 </i>
    <i name="e_wo_entrp">   -258.37577662 </i>
    <i name="e_0_energy">   -258.37577662 </i>
   </energy>
  </scstep>
  <scstep>
   <time name="diag">    0.37    0.37</time>
   <time name="diis">    0.82    0.83</time>
   <time name="orth">    0.07    0.07</time>
   <time name="total">    1.73    1.75</time>
   <energy>
    <i name="alphaZ">    302.19471407 </i>
    <i name="ewald">  -8827.92391526 </i>
    <i name="hartreedc">  -2205.92667672 </i>
    <i name="XCdc">    537.88308666 </i>
    <i name="pawpsdc">   9814.34503791 </i>
    <i name="pawaedc">  -9958.28452546 </i>
    <i name="eentropy">     -0.00000000 </i>
    <i name="bandstr">  -2623.80349395 </i>
    <i name="atom">  12703.13999606 </i>
    <i name="e_fr_energy">   -258.37577668 </i>
    <i name="e_wo_entrp">   -258.37577668 </i>
    <i name="e_0_energy">   -258.37577668 </i>
   </energy>
  </scstep>
  <structure>
   <crystal>
    <varray name="basis" >
     <v>       9.64876352       0.00000000       0.00000000 </v>
     <v>       0.00000000       9.64876352       0.00000000 </v>
     <v>       0.00000000       0.00000000       9.64876352 </v>
    </varray>
    <i name="volume">    898.28673713 </i>
    <varray name="rec_basis" >
     <v>       0.10364022       0.00000000       0.00000000 </v>
     <v>       0.00000000       0.10364022       0.00000000 </v>
     <v>       0.00000000       0.00000000       0.10364022 </v>
    </varray>
   </crystal>
   <varray name="positions" >
    <v>       0.96675585       0.31612255       0.32728111 </v>
    <v>       0.97193509       0.70510131       0.70204832 </v>
    <v>       0.99863272       0.29135090       0.70915339 </v>
    <v>       0.03821637       0.66859268       0.34514104 </v>
    <v>       0.31644038       0.32037312       0.95299677 </v>
    <v>       0.15648673       0.80236217       0.05248040 </v>
    <v>       0.80476944       0.20626993       0.00981149 </v>
    <v>       0.79604749       0.78201903       0.98315685 </v>
    <v>       0.30390119       0.97650656       0.28954311 </v>
    <v>       0.18696333       0.03856588       0.83999588 </v>
    <v>       0.82035765       0.97618921       0.79407959 </v>
    <v>       0.83029604       0.01638759       0.20906323 </v>
    <v>       0.30276508       0.79456402       0.49571171 </v>
    <v>       0.31380791       0.18256519       0.54412352 </v>
    <v>       0.68199528       0.80698044       0.51151027 </v>
    <v>       0.66611008       0.17898343       0.46058048 </v>
    <v>       0.20431331       0.47527424       0.67995514 </v>
    <v>       0.27588411       0.51467506       0.20092503 </v>
    <v>       0.71177573       0.47222440       0.18228259 </v>
    <v>       0.77190819       0.52320823       0.65076132 </v>
    <v>       0.52811596       0.64107418       0.84456564 </v>
    <v>       0.48270291       0.69915381       0.21138267 </v>
    <v>       0.51554626       0.28009731       0.20767865 </v>
    <v>       0.53651602       0.92126371       0.72151098 </v>
    <v>       0.49794299       0.48455479       0.50630234 </v>
    <v>       0.50096436       0.99259056       0.00517254 </v>
    <v>       0.99799106       0.49680866       0.99848762 </v>
    <v>       0.00065204       0.99776199       0.50369814 </v>
    <v>       0.12149600       0.88873650       0.64113809 </v>
    <v>       0.12104713       0.11911887       0.37906768 </v>
    <v>       0.88747379       0.85998227       0.38731622 </v>
    <v>       0.86022797       0.12152065       0.60573288 </v>
    <v>       0.89771770       0.62428515       0.13828645 </v>
    <v>       0.85023562       0.40436839       0.87587614 </v>
    <v>       0.12687632       0.61815484       0.88102229 </v>
    <v>       0.10882406       0.35543231       0.11151995 </v>
    <v>       0.61474825       0.10910141       0.86963795 </v>
    <v>       0.62552979       0.88198730       0.13766482 </v>
    <v>       0.36372107       0.12015950       0.10617538 </v>
    <v>       0.37498973       0.85580788       0.89792007 </v>
    <v>       0.63418921       0.59897344       0.38671956 </v>
    <v>       0.59807858       0.35056099       0.63273889 </v>
    <v>       0.39256978       0.62104973       0.63335232 </v>
    <v>       0.36373058       0.37266103       0.38449842 </v>
    <v>       0.73279997       0.75323574       0.74790914 </v>
    <v>       0.74939932       0.24215536       0.24212442 </v>
    <v>       0.25348868       0.74411783       0.26667161 </v>
    <v>       0.22562108       0.25155185       0.74955253 </v>
    <v>       0.96928507       0.98430965       0.99253676 </v>
    <v>       0.99448514       0.50220172       0.53116290 </v>
    <v>       0.48558198       0.98550413       0.49131520 </v>
    <v>       0.48853349       0.49467799       0.04825525 </v>
   </varray>
  </structure>
  <varray name="forces" >
   <v>      -0.00008866       0.00016010       0.00054145 </v>
   <v>       0.00005376      -0.00026480       0.00009771 </v>
   <v>      -0.00024292       0.00020302       0.00002650 </v>
   <v>       0.00015477      -0.00025921       0.00009449 </v>
   <v>       0.00004682       0.00046646      -0.00031008 </v>
   <v>      -0.00049738      -0.00001650       0.00024438 </v>
   <v>       0.00138352      -0.00021752       0.00013121 </v>
   <v>      -0.00033169       0.00021362       0.00017639 </v>
   <v>       0.00073650      -0.00002252      -0.00002062 </v>
   <v>       0.00044251       0.00013622       0.00105479 </v>
   <v>       0.00058431       0.00002984      -0.00016165 </v>
   <v>       0.00067630       0.00010478       0.00042372 </v>
   <v>      -0.00042447       0.00037475       0.00024848 </v>
   <v>      -0.00011508      -0.00019978      -0.00019620 </v>
   <v>      -0.00053652       0.00016376      -0.00010615 </v>
   <v>      -0.00065677      -0.00004851      -0.00012441 </v>
   <v>      -0.00000122      -0.00011306      -0.00045514 </v>
   <v>      -0.00023354      -0.00008802      -0.00047429 </v>
   <v>       0.00019094      -0.00002950      -0.00068148 </v>
   <v>      -0.00048201       0.00020611      -0.00160586 </v>
   <v>       0.00015792      -0.00024491      -0.00017340 </v>
   <v>       0.00024751      -0.00023820      -0.00000006 </v>
   <v>      -0.00009974       0.00026028      -0.00040478 </v>
   <v>       0.00014372       0.00023051       0.00018835 </v>
   <v>      -0.00017767      -0.00018430      -0.00008302 </v>
   <v>       0.00029187       0.00011106       0.00026775 </v>
   <v>       0.00000319       0.00002369      -0.00013669 </v>
   <v>       0.00002508      -0.00006284       0.00002376 </v>
   <v>      -0.00025818       0.00022678       0.00054684 </v>
   <v>      -0.00011758      -0.00044291      -0.00025138 </v>
   <v>       0.00000616      -0.00034251       0.00037971 </v>
   <v>      -0.00024200       0.00026161      -0.00023106 </v>
   <v>       0.00020486       0.00032297      -0.00015918 </v>
   <v>      -0.00067277       0.00037083      -0.00015402 </v>
   <v>       0.00024134      -0.00045305       0.00005259 </v>
   <v>      -0.00051941      -0.00032208      -0.00027388 </v>
   <v>       0.00048582      -0.00004136       0.00034103 </v>
   <v>       0.00006751       0.00036685       0.00059513 </v>
   <v>      -0.00019033       0.00012633      -0.00030599 </v>
   <v>       0.00041973      -0.00025743       0.00025495 </v>
   <v>       0.00044296      -0.00051467       0.00019628 </v>
   <v>      -0.00059476      -0.00010664       0.00026719 </v>
   <v>      -0.00002225       0.00027016      -0.00015050 </v>
   <v>      -0.00014372       0.00010814      -0.00018288 </v>
   <v>       0.00007846       0.00009997      -0.00001887 </v>
   <v>      -0.00007189       0.00008224      -0.00005143 </v>
   <v>       0.00025480      -0.00010492       0.00012264 </v>
   <v>      -0.00024464      -0.00004635      -0.00012233 </v>
   <v>      -0.00014963       0.00010000      -0.00002619 </v>
   <v>       0.00002811      -0.00037014       0.00008975 </v>
   <v>      -0.00019159      -0.00001048       0.00024969 </v>
   <v>      -0.00006205      -0.00001786       0.00024673 </v>
  </varray>
  <varray name="stress" >
   <v>      -4.69087617       4.54302620      -1.32971064 </v>
   <v>       4.54302733       3.20715594      -2.71018509 </v>
   <v>      -1.32971049      -2.71018565       1.34221138 </v>
  </varray>
  <energy>
   <i name="e_fr_energy">   -272.00495057 </i>
   <i name="e_wo_entrp">   -272.00495057 </i>
   <i name="e_0_energy">   -272.00495057 </i>
  </energy>
  <time name="totalsc">    7.55    7.63</time>
 </calculation>
 <calculation>
  <scstep>
   <time name="dav">    2.40    2.42</time>
   <time name="total">    2.93    2.96</time>
   <energy>
    <i name="alphaZ">    302.19471407 </i>
    <i name="ewald">  -8827.96756530 </i>
    <i name="hartreedc">  -2205.89058568 </i>
    <i name="XCdc">    537.88221675 </i>
    <i name="pawpsdc">   9814.32744252 </i>
    <i name="pawaedc">  -9958.26680127 </i>
    <i name="eentropy">     -0.00000000 </i>
    <i name="bandstr">  -2623.79519397 </i>
    <i name="atom">  12703.13999606 </i>
    <i name="e_fr_energy">   -258.37577682 </i>
    <i name="e_wo_entrp">   -258.37577682 </i>
    <i name="e_0_energy">   -258.37577682 </i>
   </energy>
  </scstep>
  <scstep>
   <time name="diag">    0.36    0.36</time>
   <time name="diis">    1.07    1.08</time>
   <time name="orth">    0.07    0.07</time>
   <time name="total">    1.97    1.98</time>
   <energy>
    <i name="alphaZ">    302.19471407 </i>
    <i name="ewald">  -8827.96756530 </i>
    <i name="hartreedc">  -2205.88843302 </i>
    <i name="XCdc">    537.88208378 </i>
    <i name="pawpsdc">   9814.28667113 </i>
    <i name="pawaedc">  -9958.22586765 </i>
    <i name="eentropy">     -0.00000000 </i>
    <i name="bandstr">  -2623.79737636 </i>
    <i name="atom">  12703.13999606 </i>
    <i name="e_fr_energy">   -258.37577729 </i>
    <i name="e_wo_entrp">   -258.37577729 </i>
    <i name="e_0_energy">   -258.37577729 </i>
   </energy>
  </scstep>
  <structure>
   <crystal>
    <varray name="basis" >
     <v>       9.64876352       0.00000000       0.00000000 </v>
     <v>       0.00000000       9.64876352       0.00000000 </v>
     <v>       0.00000000       0.00000000       9.64876352 </v>
    </varray>
    <i name="volume">    898.28673713 </i>
    <varray name="rec_basis" >
     <v>       0.10364022       0.00000000       0.00000000 </v>
     <v>       0.00000000       0.10364022       0.00000000 </v>
     <v>       0.00000000       0.00000000       0.10364022 </v>
    </varray>
   </crystal>
   <varray name="positions" >
    <v>       0.96675544       0.31612344       0.32728443 </v>
    <v>       0.97193523       0.70509935       0.70204912 </v>
    <v>       0.99863061       0.29135223       0.70915357 </v>
    <v>       0.03821723       0.66859092       0.34514191 </v>
    <v>       0.31644051       0.32037581       0.95299519 </v>
    <v>       0.15648371       0.80236204       0.05248179 </v>
    <v>       0.80477641       0.20626870       0.00981200 </v>
    <v>       0.79604538       0.78202052       0.98315775 </v>
    <v>       0.30390499       0.97650661       0.28954326 </v>
    <v>       0.18696559       0.03856622       0.84000146 </v>
    <v>       0.82036090       0.97618920       0.79407873 </v>
    <v>       0.83029939       0.01638803       0.20906544 </v>
    <v>       0.30276268       0.79456606       0.49571338 </v>
    <v>       0.31380727       0.18256384       0.54412238 </v>
    <v>       0.68199209       0.80698141       0.51150981 </v>
    <v>       0.66610650       0.17898301       0.46058007 </v>
    <v>       0.20431312       0.47527372       0.67995263 </v>
    <v>       0.27588278       0.51467458       0.20092227 </v>
    <v>       0.71177659       0.47222421       0.18227902 </v>
    <v>       0.77190573       0.52320911       0.65075319 </v>
    <v>       0.52811672       0.64107277       0.84456469 </v>
    <v>       0.48270431       0.69915216       0.21138295 </v>
    <v>       0.51554567       0.28009897       0.20767643 </v>
    <v>       0.53651687       0.92126496       0.72151239 </v>
    <v>       0.49794240       0.48455466       0.50630271 </v>
    <v>       0.50096504       0.99259051       0.00517293 </v>
    <v>       0.99798894       0.49680783       0.99848663 </v>
    <v>       0.00065119       0.99776189       0.50369916 </v>
    <v>       0.12149577       0.88873697       0.64114266 </v>
    <v>       0.12104822       0.11911801       0.37906424 </v>
    <v>       0.88747276       0.85997840       0.38731708 </v>
    <v>       0.86022550       0.12152286       0.60573158 </v>
    <v>       0.89771821       0.62428809       0.13828763 </v>
    <v>       0.85023108       0.40437080       0.87587511 </v>
    <v>       0.12687976       0.61815422       0.88102092 </v>
    <v>       0.10882217       0.35542807       0.11152010 </v>
    <v>       0.61475178       0.10910279       0.86963892 </v>
    <v>       0.62553139       0.88198884       0.13767030 </v>
    <v>       0.36371812       0.12016175       0.10617489 </v>
    <v>       0.37499085       0.85580532       0.89792138 </v>
    <v>       0.63419319       0.59897138       0.38671983 </v>
    <v>       0.59807550       0.35055869       0.63274198 </v>
    <v>       0.39256888       0.62105226       0.63335263 </v>
    <v>       0.36372767       0.37266017       0.38449659 </v>
    <v>       0.73280003       0.75323574       0.74790890 </v>
    <v>       0.74939948       0.24215556       0.24212483 </v>
    <v>       0.25348915       0.74411753       0.26667231 </v>
    <v>       0.22562019       0.25155090       0.74955195 </v>
    <v>       0.96928973       0.98431207       0.99254026 </v>
    <v>       0.99448525       0.50219824       0.53115854 </v>
    <v>       0.48558174       0.98550610       0.49131534 </v>
    <v>       0.48853419       0.49467793       0.04825147 </v>
   </varray>
  </structure>
  <varray name="forces" >
   <v>      -0.00004799       0.00006627       0.00021540 </v>
   <v>       0.00007219      -0.00008995       0.00003696 </v>
   <v>      -0.00001577       0.00006899       0.00001263 </v>
   <v>       0.00011637      -0.00010864       0.00000390 </v>
   <v>       0.00002036       0.00022116      -0.00020513 </v>
   <v>      -0.00023598      -0.00000773       0.00014351 </v>
   <v>       0.00070432      -0.00006786       0.00012163 </v>
   <v>      -0.00016970       0.00009107       0.00013625 </v>
   <v>       0.00033063      -0.00003507      -0.00006263 </v>
   <v>       0.00022961       0.00013711       0.00049390 </v>
   <v>       0.00034400       0.00003859      -0.00007390 </v>
   <v>       0.00036211       0.00007392       0.00021829 </v>
   <v>      -0.00020337       0.00017329       0.00005321 </v>
   <v>      -0.00008096      -0.00004698      -0.00009204 </v>
   <v>      -0.00021334       0.00005296      -0.00007687 </v>
   <v>      -0.00027411       0.00001764      -0.00010794 </v>
   <v>       0.00003838      -0.00009522      -0.00024323 </v>
   <v>      -0.00014381      -0.00005351      -0.00025426 </v>
   <v>       0.00012512      -0.00002074      -0.00030154 </v>
   <v>      -0.00023740       0.00012884      -0.00085385 </v>
   <v>       0.00010914      -0.00010712      -0.00011561 </v>
   <v>       0.00014625      -0.00007319      -0.00002959 </v>
   <v>      -0.00004912       0.00010321      -0.00022203 </v>
   <v>       0.00009203       0.00014424       0.00008211 </v>
   <v>      -0.00027282      -0.00032711      -0.00019488 </v>
   <v>       0.00031320       0.00027450       0.00049085 </v>
   <v>       0.00048491       0.00024176       0.00001355 </v>
   <v>       0.00022730      -0.00008734      -0.00022508 </v>
   <v>      -0.00049958       0.00038963      -0.00011764 </v>
   <v>      -0.00056100      -0.00071344       0.00037092 </v>
   <v>       0.00033272       0.00030157       0.00055296 </v>
   <v>       0.00014825      -0.00006745      -0.00024487 </v>
   <v>       0.00035361      -0.00014344      -0.00056465 </v>
   <v>      -0.00018828       0.00024797       0.00002676 </v>
   <v>      -0.00039582      -0.00075074       0.00049716 </v>
   <v>      -0.00064342       0.00039965      -0.00057686 </v>
   <v>      -0.00000147      -0.00040430       0.00045428 </v>
   <v>      -0.00034074       0.00044358      -0.00013430 </v>
   <v>       0.00035955      -0.00037467      -0.00056922 </v>
   <v>       0.00050497       0.00014078       0.00027401 </v>
   <v>      -0.00007463      -0.00052379       0.00037482 </v>
   <v>      -0.00053856       0.00034565      -0.00018878 </v>
   <v>       0.00022996      -0.00015150      -0.00035763 </v>
   <v>       0.00041973       0.00044111       0.00023647 </v>
   <v>       0.00008462       0.00012002       0.00000380 </v>
   <v>      -0.00008137       0.00009008      -0.00010233 </v>
   <v>       0.00023830      -0.00008396       0.00006091 </v>
   <v>      -0.00017276       0.00008563      -0.00006706 </v>
   <v>      -0.00065849      -0.00015804      -0.00041228 </v>
   <v>       0.00001801      -0.00003951       0.00056665 </v>
   <v>      -0.00016849      -0.00028336       0.00023697 </v>
   <v>      -0.00013667      -0.00002457       0.00071632 </v>
  </varray>
  <varray name="stress" >
   <v>      -4.70184526       4.54258900      -1.32971829 </v>
   <v>       4.54259015       3.19642908      -2.70944412 </v>
   <v>      -1.32971818      -2.70944476       1.33131747 </v>
  </varray>
  <energy>
   <i name="e_fr_energy">   -272.00495174 </i>
   <i name="e_wo_entrp">   -272.00495174 </i>
   <i name="e_0_energy">   -272.00495174 </i>
  </energy>
  <time name="totalsc">    7.82    7.89</time>
  <eigenvalues>
   <array>
    <dimension dim="1">band</dimension>
    <dimension dim="2">kpoint</dimension>
    <dimension dim="3">spin</dimension>
    <field>eigene</field>
    <field>occ</field>
    <set>
     <set comment="spin 1">
      <set comment="kpoint 1">
       <r>  -42.7456    1.0000 </r>
       <r>  -42.7088    1.0000 </r>
       <r>  -42.6596    1.0000 </r>
       <r>  -42.5935    1.0000 </r>
       <r>  -42.5637    1.0000 </r>
       <r>  -42.5358    1.0000 </r>
       <r>  -42.5303    1.0000 </r>
       <r>  -42.4761    1.0000 </r>
       <r>  -42.4225    1.0000 </r>
       <r>  -42.3916    1.0000 </r>
       <r>  -42.3636    1.0000 </r>
       <r>  -42.3591    1.0000 </r>
       <r>  -42.3454    1.0000 </r>
       <r>  -42.3411    1.0000 </r>
       <r>  -42.3358    1.0000 </r>
       <r>  -42.3137    1.0000 </r>
       <r>  -42.3041    1.0000 </r>
       <r>  -42.2953    1.0000 </r>
       <r>  -42.2776    1.0000 </r>
       <r>  -42.2661    1.0000 </r>
       <r>  -42.2102    1.0000 </r>
       <r>  -42.0774    1.0000 </r>
       <r>  -41.9939    1.0000 </r>
       <r>  -41.9115    1.0000 </r>
       <r>  -13.0196    1.0000 </r>
       <r>  -12.9779    1.0000 </r>
       <r>  -12.9286    1.0000 </r>
       <r>  -12.8670    1.0000 </r>
       <r>  -12.7828    1.0000 </r>
       <r>  -12.7182    1.0000 </r>
       <r>  -12.6599    1.0000 </r>
       <r>  -12.6362    1.0000 </r>
       <r>  -10.2377    1.0000 </r>
       <r>  -10.2201    1.0000 </r>
       <r>  -10.1894    1.0000 </r>
       <r>  -10.0530    1.0000 </r>
       <r>  -10.0175    1.0000 </r>
       <r>   -9.9923    1.0000 </r>
       <r>   -9.9484    1.0000 </r>
       <r>   -9.9253    1.0000 </r>
       <r>   -9.9150    1.0000 </r>
       <r>   -9.8905    1.0000 </r>
       <r>   -9.8743    1.0000 </r>
       <r>   -9.7285    1.0000 </r>
       <r>   -8.6249    1.0000 </r>
       <r>   -8.3737    1.0000 </r>
       <r>   -8.2961    1.0000 </r>
       <r>   -7.6381    1.0000 </r>
       <r>   -6.0706    1.0000 </r>
       <r>   -5.6603    1.0000 </r>
       <r>   -5.6112    1.0000 </r>
       <r>   -5.5175    1.0000 </r>
       <r>   -3.1698    1.0000 </r>
       <r>   -3.1574    1.0000 </r>
       <r>   -3.1334    1.0000 </r>
       <r>   -2.7940    1.0000 </r>
       <r>   -2.6595    1.0000 </r>
       <r>   -2.6274    1.0000 </r>
       <r>   -2.5175    1.0000 </r>
       <r>   -2.4362    1.0000 </r>
       <r>   -2.4014    1.0000 </r>
       <r>   -2.3453    1.0000 </r>
       <r>   -2.2620    1.0000 </r>
       <r>   -2.1877    1.0000 </r>
       <r>   -1.6560    1.0000 </r>
       <r>   -1.5967    1.0000 </r>
       <r>   -1.5451    1.0000 </r>
       <r>   -1.4988    1.0000 </r>
       <r>   -1.4591    1.0000 </r>
       <r>   -1.4422    1.0000 </r>
       <r>   -1.3368    1.0000 </r>
       <r>   -1.3046    1.0000 </r>
       <r>   -1.2397    1.0000 </r>
       <r>   -1.1897    1.0000 </r>
       <r>   -1.1733    1.0000 </r>
       <r>   -1.1324    1.0000 </r>
       <r>   -0.5437    1.0000 </r>
       <r>   -0.5144    1.0000 </r>
       <r>   -0.4594    1.0000 </r>
       <r>   -0.3467    1.0000 </r>
       <r>   -0.3034    1.0000 </r>
       <r>   -0.1227    1.0000 </r>
       <r>   -0.1031    1.0000 </r>
       <r>   -0.0585    1.0000 </r>
       <r>   -0.0501    1.0000 </r>
       <r>    0.0235    1.0000 </r>
       <r>    0.0394    1.0000 </r>
       <r>    0.0814    1.0000 </r>
       <r>    0.1279    1.0000 </r>
       <r>    0.1600    1.0000 </r>
       <r>    0.2013    1.0000 </r>
       <r>    0.2248    1.0000 </r>
       <r>    0.2888    1.0000 </r>
       <r>    0.3718    1.0000 </r>
       <r>    0.3952    1.0000 </r>
       <r>    0.4432    1.0000 </r>
       <r>    0.7660    1.0000 </r>
       <r>    0.8319    1.0000 </r>
       <r>    0.8798    1.0000 </r>
       <r>    0.9004    1.0000 </r>
       <r>    0.9577    1.0000 </r>
       <r>    0.9975    1.0000 </r>
       <r>    1.0647    1.0000 </r>
       <r>    1.0995    1.0000 </r>
       <r>    1.1557    1.0000 </r>
       <r>    1.2175    1.0000 </r>
       <r>    1.2481    1.0000 </r>
       <r>    1.3111    1.0000 </r>
       <r>    1.3453    1.0000 </r>
       <r>    1.3859    1.0000 </r>
       <r>    1.4076    1.0000 </r>
       <r>    1.4408    1.0000 </r>
       <r>    1.4922    1.0000 </r>
       <r>    1.5388    1.0000 </r>
       <r>    1.5558    1.0000 </r>
       <r>    1.5876    1.0000 </r>
       <r>    1.7689    1.0000 </r>
       <r>    1.8408    1.0000 </r>
       <r>    1.9879    1.0000 </r>
       <r>    2.1317    1.0000 </r>
       <r>    4.4878    0.0000 </r>
       <r>    5.2582    0.0000 </r>
       <r>    5.3321    0.0000 </r>
       <r>    5.4386    0.0000 </r>
       <r>    5.9346    0.0000 </r>
       <r>    6.0355    0.0000 </r>
       <r>    6.0834    0.0000 </r>
       <r>    6.1466    0.0000 </r>
       <r>    6.1901    0.0000 </r>
       <r>    6.3172    0.0000 </r>
       <r>    6.5278    0.0000 </r>
       <r>    6.5878    0.0000 </r>
       <r>    6.6555    0.0000 </r>
       <r>    6.8789    0.0000 </r>
       <r>    6.8848    0.0000 </r>
       <r>    6.9821    0.0000 </r>
       <r>    7.1364    0.0000 </r>
       <r>    7.4032    0.0000 </r>
       <r>    7.4483    0.0000 </r>
       <r>    7.5865    0.0000 </r>
       <r>    7.7026    0.0000 </r>
       <r>    7.7324    0.0000 </r>
       <r>    7.8564    0.0000 </r>
       <r>    7.8943    0.0000 </r>
       <r>    8.0316    0.0000 </r>
       <r>    8.0540    0.0000 </r>
       <r>    8.1710    0.0000 </r>
       <r>    8.2360    0.0000 </r>
       <r>    8.2665    0.0000 </r>
       <r>    8.3350    0.0000 </r>
       <r>    8.4260    0.0000 </r>
       <r>    8.5365    0.0000 </r>
       <r>    8.5910    0.0000 </r>
       <r>    8.6706    0.0000 </r>
       <r>    8.7219    0.0000 </r>
       <r>    8.7432    0.0000 </r>
       <r>    8.8182    0.0000 </r>
       <r>    8.8746    0.0000 </r>
       <r>    8.9723    0.0000 </r>
       <r>    9.0231    0.0000 </r>
       <r>    9.1128    0.0000 </r>
       <r>    9.1460    0.0000 </r>
       <r>    9.1989    0.0000 </r>
       <r>    9.2326    0.0000 </r>
       <r>    9.2788    0.0000 </r>
       <r>    9.3234    0.0000 </r>
       <r>    9.3625    0.0000 </r>
       <r>    9.4144    0.0000 </r>
       <r>    9.4933    0.0000 </r>
       <r>    9.5710    0.0000 </r>
       <r>    9.6254    0.0000 </r>
       <r>    9.6929    0.0000 </r>
       <r>    9.7518    0.0000 </r>
       <r>    9.8167    0.0000 </r>
       <r>    9.8904    0.0000 </r>
       <r>    9.9318    0.0000 </r>
      </set>
      <set comment="kpoint 2">
       <r>  -42.7456    1.0000 </r>
[...]
       <r>     8.0033    10.6536   144.3226 </r>
       <r>     8.1967    14.4187   147.1117 </r>
       <r>     8.3901    13.6008   149.7425 </r>
       <r>     8.5835    14.7101   152.5891 </r>
       <r>     8.7770    13.9741   155.2956 </r>
       <r>     8.9704    18.0929   158.7994 </r>
       <r>     9.1638    16.5172   161.9963 </r>
       <r>     9.3573    20.8139   166.0261 </r>
       <r>     9.5507    17.1235   169.3385 </r>
       <r>     9.7441    16.2625   172.4855 </r>
       <r>     9.9375    13.0326   175.0120 </r>
       <r>    10.1310     5.0831   176.0000 </r>
       <r>    10.3244     0.0000   176.0000 </r>
       <r>    10.5178     0.0000   176.0000 </r>
       <r>    10.7113     0.0000   176.0000 </r>
       <r>    10.9047     0.0000   176.0000 </r>
       <r>    11.0981     0.0000   176.0000 </r>
       <r>    11.2916     0.0000   176.0000 </r>
       <r>    11.4850     0.0000   176.0000 </r>
       <r>    11.6784     0.0000   176.0000 </r>
       <r>    11.8718     0.0000   176.0000 </r>
       <r>    12.0653     0.0000   176.0000 </r>
       <r>    12.2587     0.0000   176.0000 </r>
       <r>    12.4521     0.0000   176.0000 </r>
       <r>    12.6456     0.0000   176.0000 </r>
      </set>
      <set comment="spin 2">
       <r>   -45.3833     0.0000     0.0000 </r>
       <r>   -45.1898     0.0000     0.0000 </r>
       <r>   -44.9964     0.0000     0.0000 </r>
       <r>   -44.8030     0.0000     0.0000 </r>
       <r>   -44.6096     0.0000     0.0000 </r>
       <r>   -44.4161     0.0000     0.0000 </r>
       <r>   -44.2227     0.0000     0.0000 </r>
       <r>   -44.0293     0.0000     0.0000 </r>
       <r>   -43.8358     0.0000     0.0000 </r>
       <r>   -43.6424     0.0000     0.0000 </r>
       <r>   -43.4490     0.0000     0.0000 </r>
       <r>   -43.2555     0.0000     0.0000 </r>
       <r>   -43.0621     0.0000     0.0000 </r>
       <r>   -42.8687     0.0000     0.0000 </r>
       <r>   -42.6753    11.2360     2.1734 </r>
       <r>   -42.4818    26.9132     7.3796 </r>
       <r>   -42.2884    53.3129    17.7086 </r>
       <r>   -42.0950    17.9494    21.2040 </r>
       <r>   -41.9015    12.8008    23.6801 </r>
       <r>   -41.7081     1.6540    24.0000 </r>
       <r>   -41.5147     0.0000    24.0000 </r>
       <r>   -41.3213     0.0000    24.0000 </r>
       <r>   -41.1278     0.0000    24.0000 </r>
       <r>   -40.9344     0.0000    24.0000 </r>
       <r>   -40.7410     0.0000    24.0000 </r>
       <r>   -40.5475     0.0000    24.0000 </r>
       <r>   -40.3541     0.0000    24.0000 </r>
       <r>   -40.1607     0.0000    24.0000 </r>
       <r>   -39.9672     0.0000    24.0000 </r>
       <r>   -39.7738     0.0000    24.0000 </r>
       <r>   -39.5804     0.0000    24.0000 </r>
       <r>   -39.3870     0.0000    24.0000 </r>
       <r>   -39.1935     0.0000    24.0000 </r>
       <r>   -39.0001     0.0000    24.0000 </r>
       <r>   -38.8067     0.0000    24.0000 </r>
       <r>   -38.6132     0.0000    24.0000 </r>
       <r>   -38.4198     0.0000    24.0000 </r>
       <r>   -38.2264     0.0000    24.0000 </r>
       <r>   -38.0330     0.0000    24.0000 </r>
       <r>   -37.8395     0.0000    24.0000 </r>
       <r>   -37.6461     0.0000    24.0000 </r>
       <r>   -37.4527     0.0000    24.0000 </r>
       <r>   -37.2592     0.0000    24.0000 </r>
       <r>   -37.0658     0.0000    24.0000 </r>
       <r>   -36.8724     0.0000    24.0000 </r>
       <r>   -36.6789     0.0000    24.0000 </r>
       <r>   -36.4855     0.0000    24.0000 </r>
       <r>   -36.2921     0.0000    24.0000 </r>
       <r>   -36.0987     0.0000    24.0000 </r>
       <r>   -35.9052     0.0000    24.0000 </r>
       <r>   -35.7118     0.0000    24.0000 </r>
       <r>   -35.5184     0.0000    24.0000 </r>
       <r>   -35.3249     0.0000    24.0000 </r>
       <r>   -35.1315     0.0000    24.0000 </r>
       <r>   -34.9381     0.0000    24.0000 </r>
       <r>   -34.7447     0.0000    24.0000 </r>
       <r>   -34.5512     0.0000    24.0000 </r>
       <r>   -34.3578     0.0000    24.0000 </r>
       <r>   -34.1644     0.0000    24.0000 </r>
       <r>   -33.9709     0.0000    24.0000 </r>
       <r>   -33.7775     0.0000    24.0000 </r>
       <r>   -33.5841     0.0000    24.0000 </r>
       <r>   -33.3906     0.0000    24.0000 </r>
       <r>   -33.1972     0.0000    24.0000 </r>
       <r>   -33.0038     0.0000    24.0000 </r>
       <r>   -32.8104     0.0000    24.0000 </r>
       <r>   -32.6169     0.0000    24.0000 </r>
       <r>   -32.4235     0.0000    24.0000 </r>
       <r>   -32.2301     0.0000    24.0000 </r>
       <r>   -32.0366     0.0000    24.0000 </r>
       <r>   -31.8432     0.0000    24.0000 </r>
       <r>   -31.6498     0.0000    24.0000 </r>
       <r>   -31.4564     0.0000    24.0000 </r>
       <r>   -31.2629     0.0000    24.0000 </r>
       <r>   -31.0695     0.0000    24.0000 </r>
       <r>   -30.8761     0.0000    24.0000 </r>
       <r>   -30.6826     0.0000    24.0000 </r>
       <r>   -30.4892     0.0000    24.0000 </r>
       <r>   -30.2958     0.0000    24.0000 </r>
       <r>   -30.1023     0.0000    24.0000 </r>
       <r>   -29.9089     0.0000    24.0000 </r>
       <r>   -29.7155     0.0000    24.0000 </r>
       <r>   -29.5221     0.0000    24.0000 </r>
       <r>   -29.3286     0.0000    24.0000 </r>
       <r>   -29.1352     0.0000    24.0000 </r>
       <r>   -28.9418     0.0000    24.0000 </r>
       <r>   -28.7483     0.0000    24.0000 </r>
       <r>   -28.5549     0.0000    24.0000 </r>
       <r>   -28.3615     0.0000    24.0000 </r>
       <r>   -28.1681     0.0000    24.0000 </r>
       <r>   -27.9746     0.0000    24.0000 </r>
       <r>   -27.7812     0.0000    24.0000 </r>
       <r>   -27.5878     0.0000    24.0000 </r>
       <r>   -27.3943     0.0000    24.0000 </r>
       <r>   -27.2009     0.0000    24.0000 </r>
       <r>   -27.0075     0.0000    24.0000 </r>
       <r>   -26.8140     0.0000    24.0000 </r>
       <r>   -26.6206     0.0000    24.0000 </r>
       <r>   -26.4272     0.0000    24.0000 </r>
       <r>   -26.2338     0.0000    24.0000 </r>
       <r>   -26.0403     0.0000    24.0000 </r>
       <r>   -25.8469     0.0000    24.0000 </r>
       <r>   -25.6535     0.0000    24.0000 </r>
       <r>   -25.4600     0.0000    24.0000 </r>
       <r>   -25.2666     0.0000    24.0000 </r>
       <r>   -25.0732     0.0000    24.0000 </r>
       <r>   -24.8798     0.0000    24.0000 </r>
       <r>   -24.6863     0.0000    24.0000 </r>
       <r>   -24.4929     0.0000    24.0000 </r>
       <r>   -24.2995     0.0000    24.0000 </r>
       <r>   -24.1060     0.0000    24.0000 </r>
       <r>   -23.9126     0.0000    24.0000 </r>
       <r>   -23.7192     0.0000    24.0000 </r>
       <r>   -23.5257     0.0000    24.0000 </r>
       <r>   -23.3323     0.0000    24.0000 </r>
       <r>   -23.1389     0.0000    24.0000 </r>
       <r>   -22.9455     0.0000    24.0000 </r>
       <r>   -22.7520     0.0000    24.0000 </r>
       <r>   -22.5586     0.0000    24.0000 </r>
       <r>   -22.3652     0.0000    24.0000 </r>
       <r>   -22.1717     0.0000    24.0000 </r>
       <r>   -21.9783     0.0000    24.0000 </r>
       <r>   -21.7849     0.0000    24.0000 </r>
       <r>   -21.5915     0.0000    24.0000 </r>
       <r>   -21.3980     0.0000    24.0000 </r>
       <r>   -21.2046     0.0000    24.0000 </r>
       <r>   -21.0112     0.0000    24.0000 </r>
       <r>   -20.8177     0.0000    24.0000 </r>
       <r>   -20.6243     0.0000    24.0000 </r>
       <r>   -20.4309     0.0000    24.0000 </r>
       <r>   -20.2374     0.0000    24.0000 </r>
       <r>   -20.0440     0.0000    24.0000 </r>
       <r>   -19.8506     0.0000    24.0000 </r>
       <r>   -19.6572     0.0000    24.0000 </r>
       <r>   -19.4637     0.0000    24.0000 </r>
       <r>   -19.2703     0.0000    24.0000 </r>
       <r>   -19.0769     0.0000    24.0000 </r>
       <r>   -18.8834     0.0000    24.0000 </r>
       <r>   -18.6900     0.0000    24.0000 </r>
       <r>   -18.4966     0.0000    24.0000 </r>
       <r>   -18.3032     0.0000    24.0000 </r>
       <r>   -18.1097     0.0000    24.0000 </r>
       <r>   -17.9163     0.0000    24.0000 </r>
       <r>   -17.7229     0.0000    24.0000 </r>
       <r>   -17.5294     0.0000    24.0000 </r>
       <r>   -17.3360     0.0000    24.0000 </r>
       <r>   -17.1426     0.0000    24.0000 </r>
       <r>   -16.9491     0.0000    24.0000 </r>
       <r>   -16.7557     0.0000    24.0000 </r>
       <r>   -16.5623     0.0000    24.0000 </r>
       <r>   -16.3689     0.0000    24.0000 </r>
       <r>   -16.1754     0.0000    24.0000 </r>
       <r>   -15.9820     0.0000    24.0000 </r>
       <r>   -15.7886     0.0000    24.0000 </r>
       <r>   -15.5951     0.0000    24.0000 </r>
       <r>   -15.4017     0.0000    24.0000 </r>
       <r>   -15.2083     0.0000    24.0000 </r>
       <r>   -15.0149     0.0000    24.0000 </r>
       <r>   -14.8214     0.0000    24.0000 </r>
       <r>   -14.6280     0.0000    24.0000 </r>
       <r>   -14.4346     0.0000    24.0000 </r>
       <r>   -14.2411     0.0000    24.0000 </r>
       <r>   -14.0477     0.0000    24.0000 </r>
       <r>   -13.8543     0.0000    24.0000 </r>
       <r>   -13.6608     0.0000    24.0000 </r>
       <r>   -13.4674     0.0000    24.0000 </r>
       <r>   -13.2740     0.0000    24.0000 </r>
       <r>   -13.0806     0.0101    24.0020 </r>
       <r>   -12.8871    16.2454    27.1443 </r>
       <r>   -12.6937    14.4323    29.9359 </r>
       <r>   -12.5003    10.6708    32.0000 </r>
       <r>   -12.3068     0.0000    32.0000 </r>
       <r>   -12.1134     0.0000    32.0000 </r>
       <r>   -11.9200     0.0000    32.0000 </r>
       <r>   -11.7266     0.0000    32.0000 </r>
       <r>   -11.5331     0.0000    32.0000 </r>
       <r>   -11.3397     0.0000    32.0000 </r>
       <r>   -11.1463     0.0000    32.0000 </r>
       <r>   -10.9528     0.0000    32.0000 </r>
       <r>   -10.7594     0.0000    32.0000 </r>
       <r>   -10.5660     0.0000    32.0000 </r>
       <r>   -10.3725     0.0000    32.0000 </r>
       <r>   -10.1791    12.9416    34.5033 </r>
       <r>    -9.9857    14.6365    37.3360 </r>
       <r>    -9.7923    29.2919    43.0022 </r>
       <r>    -9.5988     5.1582    44.0000 </r>
       <r>    -9.4054     0.0000    44.0000 </r>
       <r>    -9.2120     0.0000    44.0000 </r>
       <r>    -9.0185     0.0000    44.0000 </r>
       <r>    -8.8251     0.0000    44.0000 </r>
       <r>    -8.6317     1.9329    44.3739 </r>
       <r>    -8.4382     3.2428    45.0011 </r>
       <r>    -8.2448    10.2943    46.9923 </r>
       <r>    -8.0514     0.0000    47.0000 </r>
       <r>    -7.8580     0.0000    47.0000 </r>
       <r>    -7.6645     0.5631    47.1089 </r>
       <r>    -7.4711     4.6068    48.0000 </r>
       <r>    -7.2777     0.0000    48.0000 </r>
       <r>    -7.0842     0.0000    48.0000 </r>
       <r>    -6.8908     0.0000    48.0000 </r>
       <r>    -6.6974     0.0000    48.0000 </r>
       <r>    -6.5040     0.0000    48.0000 </r>
       <r>    -6.3105     0.0000    48.0000 </r>
       <r>    -6.1171     0.0534    48.0103 </r>
       <r>    -5.9237     5.1165    49.0000 </r>
       <r>    -5.7302     0.0701    49.0136 </r>
       <r>    -5.5368    11.5009    51.2382 </r>
       <r>    -5.3434     3.9207    52.0000 </r>
       <r>    -5.1499     0.0000    52.0000 </r>
       <r>    -4.9565     0.0000    52.0000 </r>
       <r>    -4.7631     0.0000    52.0000 </r>
       <r>    -4.5697     0.0000    52.0000 </r>
       <r>    -4.3762     0.0000    52.0000 </r>
       <r>    -4.1828     0.0000    52.0000 </r>
       <r>    -3.9894     0.0000    52.0000 </r>
       <r>    -3.7959     0.0000    52.0000 </r>
       <r>    -3.6025     0.0000    52.0000 </r>
       <r>    -3.4091     0.0000    52.0000 </r>
       <r>    -3.2157     0.2190    52.0424 </r>
       <r>    -3.0222    15.2905    55.0000 </r>
       <r>    -2.8288     0.6739    55.1303 </r>
       <r>    -2.6354    12.4824    57.5448 </r>
       <r>    -2.4419     9.6645    59.4142 </r>
       <r>    -2.2485    18.2304    62.9421 </r>
       <r>    -2.0551     5.4567    64.0000 </r>
       <r>    -1.8616     0.0000    64.0000 </r>
       <r>    -1.6682     1.1113    64.2150 </r>
       <r>    -1.4748    20.6914    68.2173 </r>
       <r>    -1.2814    17.7896    71.6605 </r>
       <r>    -1.0879    22.3366    75.9832 </r>
       <r>    -0.8945     0.0753    76.0000 </r>
       <r>    -0.7011     0.0000    76.0000 </r>
       <r>    -0.5076     8.4938    77.6430 </r>
       <r>    -0.3142    11.6082    79.8917 </r>
       <r>    -0.1208    12.4435    82.2987 </r>
       <r>     0.0726    26.7093    87.4665 </r>
       <r>     0.2661    22.3489    91.7949 </r>
       <r>     0.4595    18.7939    95.4311 </r>
       <r>     0.6529     2.9366    96.0001 </r>
       <r>     0.8464    10.2824    97.9890 </r>
       <r>     1.0398    20.0097   101.8596 </r>
       <r>     1.2332    22.6817   106.2495 </r>
       <r>     1.4267    25.2504   111.1351 </r>
       <r>     1.6201    21.2754   115.2515 </r>
       <r>     1.8135    11.4726   117.4739 </r>
       <r>     2.0069     5.8428   118.6053 </r>
       <r>     2.2004     7.2089   119.9998 </r>
       <r>     2.3938     0.0000   120.0000 </r>
       <r>     2.5872     0.0000   120.0000 </r>
       <r>     2.7807     0.0000   120.0000 </r>
       <r>     2.9741     0.0000   120.0000 </r>
       <r>     3.1675     0.0000   120.0000 </r>
       <r>     3.3609     0.0000   120.0000 </r>
       <r>     3.5544     0.0000   120.0000 </r>
       <r>     3.7478     0.0000   120.0000 </r>
       <r>     3.9412     0.0000   120.0000 </r>
       <r>     4.1347     0.0000   120.0000 </r>
       <r>     4.3281     0.0000   120.0000 </r>
       <r>     4.5215     4.9211   120.9519 </r>
       <r>     4.7150     0.2487   121.0000 </r>
       <r>     4.9084     0.0000   121.0000 </r>
       <r>     5.1018     0.0000   121.0000 </r>
       <r>     5.2952     3.7025   121.7162 </r>
       <r>     5.4887    11.7843   123.9965 </r>
       <r>     5.6821     0.0000   124.0000 </r>
       <r>     5.8755     0.0055   124.0011 </r>
       <r>     6.0690    11.6149   126.2477 </r>
       <r>     6.2624    16.2761   129.3984 </r>
       <r>     6.4558     3.1119   130.0015 </r>
       <r>     6.6492    11.1422   132.1567 </r>
       <r>     6.8427     7.6860   133.6442 </r>
       <r>     7.0361    12.1722   135.9986 </r>
       <r>     7.2295     5.1643   136.9989 </r>
       <r>     7.4230     5.1514   137.9964 </r>
       <r>     7.6164     9.8755   139.9088 </r>
       <r>     7.8098    12.1561   142.2601 </r>
       <r>     8.0033    10.6536   144.3226 </r>
       <r>     8.1967    14.4187   147.1117 </r>
       <r>     8.3901    13.6008   149.7425 </r>
       <r>     8.5835    14.7099   152.5891 </r>
       <r>     8.7770    13.9736   155.2954 </r>
       <r>     8.9704    18.0925   158.7992 </r>
       <r>     9.1638    16.5208   161.9968 </r>
       <r>     9.3573    20.8008   166.0240 </r>
       <r>     9.5507    17.1413   169.3398 </r>
       <r>     9.7441    16.2668   172.4876 </r>
       <r>     9.9375    14.3213   175.2611 </r>
       <r>    10.1310     3.8054   176.0000 </r>
       <r>    10.3244     0.0000   176.0000 </r>
       <r>    10.5178     0.0000   176.0000 </r>
       <r>    10.7113     0.0000   176.0000 </r>
       <r>    10.9047     0.0000   176.0000 </r>
       <r>    11.0981     0.0000   176.0000 </r>
       <r>    11.2916     0.0000   176.0000 </r>
       <r>    11.4850     0.0000   176.0000 </r>
       <r>    11.6784     0.0000   176.0000 </r>
       <r>    11.8718     0.0000   176.0000 </r>
       <r>    12.0653     0.0000   176.0000 </r>
       <r>    12.2587     0.0000   176.0000 </r>
       <r>    12.4521     0.0000   176.0000 </r>
       <r>    12.6456     0.0000   176.0000 </r>
      </set>
     </set>
    </array>
   </total>
  </dos>
 </calculation>
 <structure name="finalpos" >
  <crystal>
   <varray name="basis" >
    <v>       9.64876352       0.00000000       0.00000000 </v>
    <v>       0.00000000       9.64876352       0.00000000 </v>
    <v>       0.00000000       0.00000000       9.64876352 </v>
   </varray>
   <i name="volume">    898.28673713 </i>
   <varray name="rec_basis" >
    <v>       0.10364022       0.00000000       0.00000000 </v>
    <v>       0.00000000       0.10364022       0.00000000 </v>
    <v>       0.00000000       0.00000000       0.10364022 </v>
   </varray>
  </crystal>
  <varray name="positions" >
   <v>       0.96675544       0.31612344       0.32728443 </v>
   <v>       0.97193523       0.70509935       0.70204912 </v>
   <v>       0.99863061       0.29135223       0.70915357 </v>
   <v>       0.03821723       0.66859092       0.34514191 </v>
   <v>       0.31644051       0.32037581       0.95299519 </v>
   <v>       0.15648371       0.80236204       0.05248179 </v>
   <v>       0.80477641       0.20626870       0.00981200 </v>
   <v>       0.79604538       0.78202052       0.98315775 </v>
   <v>       0.30390499       0.97650661       0.28954326 </v>
   <v>       0.18696559       0.03856622       0.84000146 </v>
   <v>       0.82036090       0.97618920       0.79407873 </v>
   <v>       0.83029939       0.01638803       0.20906544 </v>
   <v>       0.30276268       0.79456606       0.49571338 </v>
   <v>       0.31380727       0.18256384       0.54412238 </v>
   <v>       0.68199209       0.80698141       0.51150981 </v>
   <v>       0.66610650       0.17898301       0.46058007 </v>
   <v>       0.20431312       0.47527372       0.67995263 </v>
   <v>       0.27588278       0.51467458       0.20092227 </v>
   <v>       0.71177659       0.47222421       0.18227902 </v>
   <v>       0.77190573       0.52320911       0.65075319 </v>
   <v>       0.52811672       0.64107277       0.84456469 </v>
   <v>       0.48270431       0.69915216       0.21138295 </v>
   <v>       0.51554567       0.28009897       0.20767643 </v>
   <v>       0.53651687       0.92126496       0.72151239 </v>
   <v>       0.49794240       0.48455466       0.50630271 </v>
   <v>       0.50096504       0.99259051       0.00517293 </v>
   <v>       0.99798894       0.49680783       0.99848663 </v>
   <v>       0.00065119       0.99776189       0.50369916 </v>
   <v>       0.12149577       0.88873697       0.64114266 </v>
   <v>       0.12104822       0.11911801       0.37906424 </v>
   <v>       0.88747276       0.85997840       0.38731708 </v>
   <v>       0.86022550       0.12152286       0.60573158 </v>
   <v>       0.89771821       0.62428809       0.13828763 </v>
   <v>       0.85023108       0.40437080       0.87587511 </v>
   <v>       0.12687976       0.61815422       0.88102092 </v>
   <v>       0.10882217       0.35542807       0.11152010 </v>
   <v>       0.61475178       0.10910279       0.86963892 </v>
   <v>       0.62553139       0.88198884       0.13767030 </v>
   <v>       0.36371812       0.12016175       0.10617489 </v>
   <v>       0.37499085       0.85580532       0.89792138 </v>
   <v>       0.63419319       0.59897138       0.38671983 </v>
   <v>       0.59807550       0.35055869       0.63274198 </v>
   <v>       0.39256888       0.62105226       0.63335263 </v>
   <v>       0.36372767       0.37266017       0.38449659 </v>
   <v>       0.73280003       0.75323574       0.74790890 </v>
   <v>       0.74939948       0.24215556       0.24212483 </v>
   <v>       0.25348915       0.74411753       0.26667231 </v>
   <v>       0.22562019       0.25155090       0.74955195 </v>
   <v>       0.96928973       0.98431207       0.99254026 </v>
   <v>       0.99448525       0.50219824       0.53115854 </v>
   <v>       0.48558174       0.98550610       0.49131534 </v>
   <v>       0.48853419       0.49467793       0.04825147 </v>
  </varray>
 </structure>
</modeling>
