  52  52   0   4
  0.1735991E+02  0.9664594E-09  0.9664594E-09  0.9664594E-09  0.2000000E-15
  1.000000000000000E-004
  CAR 
 unknown system                          
     12.56078618    -45.32923829  301      1.99585671      1.00000000
    -45.329  0.0000E+00  0.0000E+00  0.0000E+00  0.0000E+00
    -45.136  0.0000E+00  0.0000E+00  0.0000E+00  0.0000E+00
    -44.943  0.0000E+00  0.0000E+00  0.0000E+00  0.0000E+00
    -44.750  0.0000E+00  0.0000E+00  0.0000E+00  0.0000E+00
    -44.557  0.0000E+00  0.0000E+00  0.0000E+00  0.0000E+00
    -44.364  0.0000E+00  0.0000E+00  0.0000E+00  0.0000E+00
    -44.171  0.0000E+00  0.0000E+00  0.0000E+00  0.0000E+00
    -43.978  0.0000E+00  0.0000E+00  0.0000E+00  0.0000E+00
    -43.786  0.0000E+00  0.0000E+00  0.0000E+00  0.0000E+00
    -43.593  0.0000E+00  0.0000E+00  0.0000E+00  0.0000E+00
    -43.400  0.0000E+00  0.0000E+00  0.0000E+00  0.0000E+00
    -43.207  0.0000E+00  0.0000E+00  0.0000E+00  0.0000E+00
    -43.014  0.0000E+00  0.0000E+00  0.0000E+00  0.0000E+00
    -42.821  0.1837E-10  0.1837E-10  0.3546E-11  0.3546E-11
    -42.628  0.5180E-02  0.5180E-02  0.9996E-03  0.9996E-03
    -42.435  0.4288E-01  0.4288E-01  0.9275E-02  0.9275E-02
    -42.242  0.6518E-01  0.6518E-01  0.2185E-01  0.2185E-01
    -42.049  0.1104E-01  0.1104E-01  0.2400E-01  0.2400E-01
    -41.856  0.0000E+00  0.0000E+00  0.2400E-01  0.2400E-01
    -41.663  0.0000E+00  0.0000E+00  0.2400E-01  0.2400E-01
    -41.470  0.0000E+00  0.0000E+00  0.2400E-01  0.2400E-01
    -41.277  0.0000E+00  0.0000E+00  0.2400E-01  0.2400E-01
    -41.084  0.0000E+00  0.0000E+00  0.2400E-01  0.2400E-01
    -40.891  0.0000E+00  0.0000E+00  0.2400E-01  0.2400E-01
    -40.698  0.0000E+00  0.0000E+00  0.2400E-01  0.2400E-01
    -40.505  0.0000E+00  0.0000E+00  0.2400E-01  0.2400E-01
    -40.312  0.0000E+00  0.0000E+00  0.2400E-01  0.2400E-01
    -40.119  0.0000E+00  0.0000E+00  0.2400E-01  0.2400E-01
    -39.926  0.0000E+00  0.0000E+00  0.2400E-01  0.2400E-01
    -39.733  0.0000E+00  0.0000E+00  0.2400E-01  0.2400E-01
    -39.540  0.0000E+00  0.0000E+00  0.2400E-01  0.2400E-01
    -39.347  0.0000E+00  0.0000E+00  0.2400E-01  0.2400E-01
    -39.154  0.0000E+00  0.0000E+00  0.2400E-01  0.2400E-01
    -38.961  0.0000E+00  0.0000E+00  0.2400E-01  0.2400E-01
    -38.768  0.0000E+00  0.0000E+00  0.2400E-01  0.2400E-01
    -38.575  0.0000E+00  0.0000E+00  0.2400E-01  0.2400E-01
    -38.382  0.0000E+00  0.0000E+00  0.2400E-01  0.2400E-01
    -38.189  0.0000E+00  0.0000E+00  0.2400E-01  0.2400E-01
    -37.997  0.0000E+00  0.0000E+00  0.2400E-01  0.2400E-01
    -37.804  0.0000E+00  0.0000E+00  0.2400E-01  0.2400E-01
    -37.611  0.0000E+00  0.0000E+00  0.2400E-01  0.2400E-01
    -37.418  0.0000E+00  0.0000E+00  0.2400E-01  0.2400E-01
    -37.225  0.0000E+00  0.0000E+00  0.2400E-01  0.2400E-01
    -37.032  0.0000E+00  0.0000E+00  0.2400E-01  0.2400E-01
    -36.839  0.0000E+00  0.0000E+00  0.2400E-01  0.2400E-01
    -36.646  0.0000E+00  0.0000E+00  0.2400E-01  0.2400E-01
    -36.453  0.0000E+00  0.0000E+00  0.2400E-01  0.2400E-01
    -36.260  0.0000E+00  0.0000E+00  0.2400E-01  0.2400E-01
    -36.067  0.0000E+00  0.0000E+00  0.2400E-01  0.2400E-01
    -35.874  0.0000E+00  0.0000E+00  0.2400E-01  0.2400E-01
    -35.681  0.0000E+00  0.0000E+00  0.2400E-01  0.2400E-01
    -35.488  0.0000E+00  0.0000E+00  0.2400E-01  0.2400E-01
    -35.295  0.0000E+00  0.0000E+00  0.2400E-01  0.2400E-01
    -35.102  0.0000E+00  0.0000E+00  0.2400E-01  0.2400E-01
    -34.909  0.0000E+00  0.0000E+00  0.2400E-01  0.2400E-01
    -34.716  0.0000E+00  0.0000E+00  0.2400E-01  0.2400E-01
    -34.523  0.0000E+00  0.0000E+00  0.2400E-01  0.2400E-01
    -34.330  0.0000E+00  0.0000E+00  0.2400E-01  0.2400E-01
    -34.137  0.0000E+00  0.0000E+00  0.2400E-01  0.2400E-01
    -33.944  0.0000E+00  0.0000E+00  0.2400E-01  0.2400E-01
    -33.751  0.0000E+00  0.0000E+00  0.2400E-01  0.2400E-01
    -33.558  0.0000E+00  0.0000E+00  0.2400E-01  0.2400E-01
    -33.365  0.0000E+00  0.0000E+00  0.2400E-01  0.2400E-01
    -33.172  0.0000E+00  0.0000E+00  0.2400E-01  0.2400E-01
    -32.979  0.0000E+00  0.0000E+00  0.2400E-01  0.2400E-01
    -32.786  0.0000E+00  0.0000E+00  0.2400E-01  0.2400E-01
    -32.593  0.0000E+00  0.0000E+00  0.2400E-01  0.2400E-01
    -32.400  0.0000E+00  0.0000E+00  0.2400E-01  0.2400E-01
    -32.207  0.0000E+00  0.0000E+00  0.2400E-01  0.2400E-01
    -32.015  0.0000E+00  0.0000E+00  0.2400E-01  0.2400E-01
    -31.822  0.0000E+00  0.0000E+00  0.2400E-01  0.2400E-01
    -31.629  0.0000E+00  0.0000E+00  0.2400E-01  0.2400E-01
    -31.436  0.0000E+00  0.0000E+00  0.2400E-01  0.2400E-01
    -31.243  0.0000E+00  0.0000E+00  0.2400E-01  0.2400E-01
    -31.050  0.0000E+00  0.0000E+00  0.2400E-01  0.2400E-01
    -30.857  0.0000E+00  0.0000E+00  0.2400E-01  0.2400E-01
    -30.664  0.0000E+00  0.0000E+00  0.2400E-01  0.2400E-01
    -30.471  0.0000E+00  0.0000E+00  0.2400E-01  0.2400E-01
    -30.278  0.0000E+00  0.0000E+00  0.2400E-01  0.2400E-01
    -30.085  0.0000E+00  0.0000E+00  0.2400E-01  0.2400E-01
    -29.892  0.0000E+00  0.0000E+00  0.2400E-01  0.2400E-01
    -29.699  0.0000E+00  0.0000E+00  0.2400E-01  0.2400E-01
    -29.506  0.0000E+00  0.0000E+00  0.2400E-01  0.2400E-01
    -29.313  0.0000E+00  0.0000E+00  0.2400E-01  0.2400E-01
    -29.120  0.0000E+00  0.0000E+00  0.2400E-01  0.2400E-01
    -28.927  0.0000E+00  0.0000E+00  0.2400E-01  0.2400E-01
    -28.734  0.0000E+00  0.0000E+00  0.2400E-01  0.2400E-01
    -28.541  0.0000E+00  0.0000E+00  0.2400E-01  0.2400E-01
    -28.348  0.0000E+00  0.0000E+00  0.2400E-01  0.2400E-01
    -28.155  0.0000E+00  0.0000E+00  0.2400E-01  0.2400E-01
    -27.962  0.0000E+00  0.0000E+00  0.2400E-01  0.2400E-01
    -27.769  0.0000E+00  0.0000E+00  0.2400E-01  0.2400E-01
    -27.576  0.0000E+00  0.0000E+00  0.2400E-01  0.2400E-01
    -27.383  0.0000E+00  0.0000E+00  0.2400E-01  0.2400E-01
    -27.190  0.0000E+00  0.0000E+00  0.2400E-01  0.2400E-01
    -26.997  0.0000E+00  0.0000E+00  0.2400E-01  0.2400E-01
    -26.804  0.0000E+00  0.0000E+00  0.2400E-01  0.2400E-01
    -26.611  0.0000E+00  0.0000E+00  0.2400E-01  0.2400E-01
    -26.418  0.0000E+00  0.0000E+00  0.2400E-01  0.2400E-01
    -26.226  0.0000E+00  0.0000E+00  0.2400E-01  0.2400E-01
    -26.033  0.0000E+00  0.0000E+00  0.2400E-01  0.2400E-01
    -25.840  0.0000E+00  0.0000E+00  0.2400E-01  0.2400E-01
    -25.647  0.0000E+00  0.0000E+00  0.2400E-01  0.2400E-01
    -25.454  0.0000E+00  0.0000E+00  0.2400E-01  0.2400E-01
    -25.261  0.0000E+00  0.0000E+00  0.2400E-01  0.2400E-01
    -25.068  0.0000E+00  0.0000E+00  0.2400E-01  0.2400E-01
    -24.875  0.0000E+00  0.0000E+00  0.2400E-01  0.2400E-01
    -24.682  0.0000E+00  0.0000E+00  0.2400E-01  0.2400E-01
    -24.489  0.0000E+00  0.0000E+00  0.2400E-01  0.2400E-01
    -24.296  0.0000E+00  0.0000E+00  0.2400E-01  0.2400E-01
    -24.103  0.0000E+00  0.0000E+00  0.2400E-01  0.2400E-01
    -23.910  0.0000E+00  0.0000E+00  0.2400E-01  0.2400E-01
    -23.717  0.0000E+00  0.0000E+00  0.2400E-01  0.2400E-01
    -23.524  0.0000E+00  0.0000E+00  0.2400E-01  0.2400E-01
    -23.331  0.0000E+00  0.0000E+00  0.2400E-01  0.2400E-01
    -23.138  0.0000E+00  0.0000E+00  0.2400E-01  0.2400E-01
    -22.945  0.0000E+00  0.0000E+00  0.2400E-01  0.2400E-01
    -22.752  0.0000E+00  0.0000E+00  0.2400E-01  0.2400E-01
    -22.559  0.0000E+00  0.0000E+00  0.2400E-01  0.2400E-01
    -22.366  0.0000E+00  0.0000E+00  0.2400E-01  0.2400E-01
    -22.173  0.0000E+00  0.0000E+00  0.2400E-01  0.2400E-01
    -21.980  0.0000E+00  0.0000E+00  0.2400E-01  0.2400E-01
    -21.787  0.0000E+00  0.0000E+00  0.2400E-01  0.2400E-01
    -21.594  0.0000E+00  0.0000E+00  0.2400E-01  0.2400E-01
    -21.401  0.0000E+00  0.0000E+00  0.2400E-01  0.2400E-01
    -21.208  0.0000E+00  0.0000E+00  0.2400E-01  0.2400E-01
    -21.015  0.0000E+00  0.0000E+00  0.2400E-01  0.2400E-01
    -20.822  0.0000E+00  0.0000E+00  0.2400E-01  0.2400E-01
    -20.629  0.0000E+00  0.0000E+00  0.2400E-01  0.2400E-01
    -20.437  0.0000E+00  0.0000E+00  0.2400E-01  0.2400E-01
    -20.244  0.0000E+00  0.0000E+00  0.2400E-01  0.2400E-01
    -20.051  0.0000E+00  0.0000E+00  0.2400E-01  0.2400E-01
    -19.858  0.0000E+00  0.0000E+00  0.2400E-01  0.2400E-01
    -19.665  0.0000E+00  0.0000E+00  0.2400E-01  0.2400E-01
    -19.472  0.0000E+00  0.0000E+00  0.2400E-01  0.2400E-01
    -19.279  0.0000E+00  0.0000E+00  0.2400E-01  0.2400E-01
    -19.086  0.0000E+00  0.0000E+00  0.2400E-01  0.2400E-01
    -18.893  0.0000E+00  0.0000E+00  0.2400E-01  0.2400E-01
    -18.700  0.0000E+00  0.0000E+00  0.2400E-01  0.2400E-01
    -18.507  0.0000E+00  0.0000E+00  0.2400E-01  0.2400E-01
    -18.314  0.0000E+00  0.0000E+00  0.2400E-01  0.2400E-01
    -18.121  0.0000E+00  0.0000E+00  0.2400E-01  0.2400E-01
    -17.928  0.0000E+00  0.0000E+00  0.2400E-01  0.2400E-01
    -17.735  0.0000E+00  0.0000E+00  0.2400E-01  0.2400E-01
    -17.542  0.0000E+00  0.0000E+00  0.2400E-01  0.2400E-01
    -17.349  0.0000E+00  0.0000E+00  0.2400E-01  0.2400E-01
    -17.156  0.0000E+00  0.0000E+00  0.2400E-01  0.2400E-01
    -16.963  0.0000E+00  0.0000E+00  0.2400E-01  0.2400E-01
    -16.770  0.0000E+00  0.0000E+00  0.2400E-01  0.2400E-01
    -16.577  0.0000E+00  0.0000E+00  0.2400E-01  0.2400E-01
    -16.384  0.0000E+00  0.0000E+00  0.2400E-01  0.2400E-01
    -16.191  0.0000E+00  0.0000E+00  0.2400E-01  0.2400E-01
    -15.998  0.0000E+00  0.0000E+00  0.2400E-01  0.2400E-01
    -15.805  0.0000E+00  0.0000E+00  0.2400E-01  0.2400E-01
    -15.612  0.0000E+00  0.0000E+00  0.2400E-01  0.2400E-01
    -15.419  0.0000E+00  0.0000E+00  0.2400E-01  0.2400E-01
    -15.226  0.0000E+00  0.0000E+00  0.2400E-01  0.2400E-01
    -15.033  0.0000E+00  0.0000E+00  0.2400E-01  0.2400E-01
    -14.840  0.0000E+00  0.0000E+00  0.2400E-01  0.2400E-01
    -14.648  0.0000E+00  0.0000E+00  0.2400E-01  0.2400E-01
    -14.455  0.0000E+00  0.0000E+00  0.2400E-01  0.2400E-01
    -14.262  0.0000E+00  0.0000E+00  0.2400E-01  0.2400E-01
    -14.069  0.0000E+00  0.0000E+00  0.2400E-01  0.2400E-01
    -13.876  0.0000E+00  0.0000E+00  0.2400E-01  0.2400E-01
    -13.683  0.0000E+00  0.0000E+00  0.2400E-01  0.2400E-01
    -13.490  0.0000E+00  0.0000E+00  0.2400E-01  0.2400E-01
    -13.297  0.0000E+00  0.0000E+00  0.2400E-01  0.2400E-01
    -13.104  0.4788E-04  0.4788E-04  0.2401E-01  0.2401E-01
    -12.911  0.1973E-01  0.1973E-01  0.2782E-01  0.2782E-01
    -12.718  0.3233E-02  0.3233E-02  0.2844E-01  0.2844E-01
    -12.525  0.1840E-01  0.1840E-01  0.3199E-01  0.3199E-01
    -12.332  0.0000E+00  0.0000E+00  0.3200E-01  0.3200E-01
    -12.139  0.0000E+00  0.0000E+00  0.3200E-01  0.3200E-01
    -11.946  0.0000E+00  0.0000E+00  0.3200E-01  0.3200E-01
    -11.753  0.0000E+00  0.0000E+00  0.3200E-01  0.3200E-01
    -11.560  0.0000E+00  0.0000E+00  0.3200E-01  0.3200E-01
    -11.367  0.0000E+00  0.0000E+00  0.3200E-01  0.3200E-01
    -11.174  0.0000E+00  0.0000E+00  0.3200E-01  0.3200E-01
    -10.981  0.0000E+00  0.0000E+00  0.3200E-01  0.3200E-01
    -10.788  0.0000E+00  0.0000E+00  0.3200E-01  0.3200E-01
    -10.595  0.0000E+00  0.0000E+00  0.3200E-01  0.3200E-01
    -10.402  0.1147E-09  0.1147E-09  0.3200E-01  0.3200E-01
    -10.209  0.1411E-01  0.1411E-01  0.3472E-01  0.3472E-01
    -10.016  0.1600E-01  0.1600E-01  0.3781E-01  0.3781E-01
     -9.823  0.3129E-01  0.3129E-01  0.4385E-01  0.4385E-01
     -9.630  0.7828E-03  0.7828E-03  0.4400E-01  0.4400E-01
     -9.437  0.0000E+00  0.0000E+00  0.4400E-01  0.4400E-01
     -9.244  0.0000E+00  0.0000E+00  0.4400E-01  0.4400E-01
     -9.051  0.0000E+00  0.0000E+00  0.4400E-01  0.4400E-01
     -8.859  0.0000E+00  0.0000E+00  0.4400E-01  0.4400E-01
     -8.666  0.0000E+00  0.0000E+00  0.4400E-01  0.4400E-01
     -8.473  0.1093E-08  0.1093E-08  0.4400E-01  0.4400E-01
     -8.280  0.1902E-01  0.1902E-01  0.4767E-01  0.4767E-01
     -8.087  0.1678E-02  0.1678E-02  0.4800E-01  0.4800E-01
     -7.894  0.0000E+00  0.0000E+00  0.4800E-01  0.4800E-01
     -7.701  0.0000E+00  0.0000E+00  0.4800E-01  0.4800E-01
     -7.508  0.0000E+00  0.0000E+00  0.4800E-01  0.4800E-01
     -7.315  0.0000E+00  0.0000E+00  0.4800E-01  0.4800E-01
     -7.122  0.0000E+00  0.0000E+00  0.4800E-01  0.4800E-01
     -6.929  0.0000E+00  0.0000E+00  0.4800E-01  0.4800E-01
     -6.736  0.0000E+00  0.0000E+00  0.4800E-01  0.4800E-01
     -6.543  0.0000E+00  0.0000E+00  0.4800E-01  0.4800E-01
     -6.350  0.0000E+00  0.0000E+00  0.4800E-01  0.4800E-01
     -6.157  0.5963E-04  0.5963E-04  0.4801E-01  0.4801E-01
     -5.964  0.5123E-02  0.5123E-02  0.4900E-01  0.4900E-01
     -5.771  0.9946E-05  0.9946E-05  0.4900E-01  0.4900E-01
     -5.578  0.1399E-01  0.1399E-01  0.5170E-01  0.5170E-01
     -5.385  0.1533E-02  0.1534E-02  0.5200E-01  0.5200E-01
     -5.192  0.0000E+00  0.0000E+00  0.5200E-01  0.5200E-01
     -4.999  0.0000E+00  0.0000E+00  0.5200E-01  0.5200E-01
     -4.806  0.0000E+00  0.0000E+00  0.5200E-01  0.5200E-01
     -4.613  0.0000E+00  0.0000E+00  0.5200E-01  0.5200E-01
     -4.420  0.0000E+00  0.0000E+00  0.5200E-01  0.5200E-01
     -4.227  0.0000E+00  0.0000E+00  0.5200E-01  0.5200E-01
     -4.034  0.0000E+00  0.0000E+00  0.5200E-01  0.5200E-01
     -3.841  0.0000E+00  0.0000E+00  0.5200E-01  0.5200E-01
     -3.648  0.0000E+00  0.0000E+00  0.5200E-01  0.5200E-01
     -3.455  0.0000E+00  0.0000E+00  0.5200E-01  0.5200E-01
     -3.262  0.3555E-03  0.3555E-03  0.5207E-01  0.5207E-01
     -3.070  0.1519E-01  0.1519E-01  0.5500E-01  0.5500E-01
     -2.877  0.2266E-03  0.2266E-03  0.5504E-01  0.5504E-01
     -2.684  0.1060E-01  0.1060E-01  0.5709E-01  0.5709E-01
     -2.491  0.1060E-01  0.1060E-01  0.5913E-01  0.5913E-01
     -2.298  0.2041E-01  0.2041E-01  0.6308E-01  0.6308E-01
     -2.105  0.4770E-02  0.4770E-02  0.6400E-01  0.6400E-01
     -1.912  0.0000E+00  0.0000E+00  0.6400E-01  0.6400E-01
     -1.719  0.0000E+00  0.0000E+00  0.6400E-01  0.6400E-01
     -1.526  0.3129E-02  0.3129E-02  0.6460E-01  0.6460E-01
     -1.333  0.3125E-01  0.3125E-01  0.7063E-01  0.7063E-01
     -1.140  0.2007E-01  0.2007E-01  0.7451E-01  0.7451E-01
     -0.947  0.7718E-02  0.7718E-02  0.7600E-01  0.7600E-01
     -0.754  0.0000E+00  0.0000E+00  0.7600E-01  0.7600E-01
     -0.561  0.3091E-02  0.3091E-02  0.7660E-01  0.7660E-01
     -0.368  0.1325E-01  0.1325E-01  0.7915E-01  0.7915E-01
     -0.175  0.1211E-01  0.1211E-01  0.8149E-01  0.8149E-01
      0.018  0.2421E-01  0.2421E-01  0.8616E-01  0.8616E-01
      0.211  0.2696E-01  0.2696E-01  0.9137E-01  0.9137E-01
      0.404  0.1985E-01  0.1985E-01  0.9520E-01  0.9520E-01
      0.597  0.4134E-02  0.4135E-02  0.9600E-01  0.9600E-01
      0.790  0.7027E-02  0.7027E-02  0.9736E-01  0.9736E-01
      0.983  0.2042E-01  0.2042E-01  0.1013E+00  0.1013E+00
      1.176  0.2231E-01  0.2231E-01  0.1056E+00  0.1056E+00
      1.369  0.2647E-01  0.2647E-01  0.1107E+00  0.1107E+00
      1.562  0.3151E-01  0.3151E-01  0.1168E+00  0.1168E+00
      1.755  0.1346E-01  0.1346E-01  0.1194E+00  0.1194E+00
      1.948  0.3096E-02  0.3096E-02  0.1200E+00  0.1200E+00
      2.141  0.0000E+00  0.0000E+00  0.1200E+00  0.1200E+00
      2.334  0.0000E+00  0.0000E+00  0.1200E+00  0.1200E+00
      2.527  0.0000E+00  0.0000E+00  0.1200E+00  0.1200E+00
      2.719  0.0000E+00  0.0000E+00  0.1200E+00  0.1200E+00
      2.912  0.0000E+00  0.0000E+00  0.1200E+00  0.1200E+00
      3.105  0.0000E+00  0.0000E+00  0.1200E+00  0.1200E+00
      3.298  0.0000E+00  0.0000E+00  0.1200E+00  0.1200E+00
      3.491  0.0000E+00  0.0000E+00  0.1200E+00  0.1200E+00
      3.684  0.0000E+00  0.0000E+00  0.1200E+00  0.1200E+00
      3.877  0.0000E+00  0.0000E+00  0.1200E+00  0.1200E+00
      4.070  0.0000E+00  0.0000E+00  0.1200E+00  0.1200E+00
      4.263  0.0000E+00  0.0000E+00  0.1200E+00  0.1200E+00
      4.456  0.3495E-02  0.3495E-02  0.1207E+00  0.1207E+00
      4.649  0.1687E-02  0.1687E-02  0.1210E+00  0.1210E+00
      4.842  0.0000E+00  0.0000E+00  0.1210E+00  0.1210E+00
      5.035  0.0000E+00  0.0000E+00  0.1210E+00  0.1210E+00
      5.228  0.1408E-02  0.1408E-02  0.1213E+00  0.1213E+00
      5.421  0.1387E-01  0.1387E-01  0.1239E+00  0.1239E+00
      5.614  0.2445E-03  0.2445E-03  0.1240E+00  0.1240E+00
      5.807  0.4342E-06  0.4342E-06  0.1240E+00  0.1240E+00
      6.000  0.1098E-01  0.1098E-01  0.1261E+00  0.1261E+00
      6.193  0.1226E-01  0.1226E-01  0.1285E+00  0.1285E+00
      6.386  0.7839E-02  0.7839E-02  0.1300E+00  0.1300E+00
      6.579  0.8783E-02  0.8783E-02  0.1317E+00  0.1317E+00
      6.772  0.7979E-02  0.7979E-02  0.1332E+00  0.1332E+00
      6.965  0.1424E-01  0.1424E-01  0.1360E+00  0.1360E+00
      7.158  0.5157E-02  0.5157E-02  0.1370E+00  0.1370E+00
      7.351  0.2387E-03  0.2387E-03  0.1370E+00  0.1370E+00
      7.544  0.1300E-01  0.1300E-01  0.1395E+00  0.1395E+00
      7.737  0.1247E-01  0.1247E-01  0.1419E+00  0.1419E+00
      7.930  0.9672E-02  0.9672E-02  0.1438E+00  0.1438E+00
      8.123  0.1106E-01  0.1106E-01  0.1459E+00  0.1459E+00
      8.316  0.1563E-01  0.1563E-01  0.1490E+00  0.1490E+00
      8.508  0.1601E-01  0.1601E-01  0.1521E+00  0.1521E+00
      8.701  0.1514E-01  0.1514E-01  0.1550E+00  0.1550E+00
      8.894  0.1560E-01  0.1560E-01  0.1580E+00  0.1580E+00
      9.087  0.1599E-01  0.1599E-01  0.1611E+00  0.1611E+00
      9.280  0.1806E-01  0.1806E-01  0.1646E+00  0.1646E+00
      9.473  0.1901E-01  0.1901E-01  0.1682E+00  0.1682E+00
      9.666  0.1857E-01  0.1860E-01  0.1718E+00  0.1718E+00
      9.859  0.1648E-01  0.1616E-01  0.1750E+00  0.1749E+00
     10.052  0.5167E-02  0.5453E-02  0.1760E+00  0.1760E+00
     10.245  0.0000E+00  0.0000E+00  0.1760E+00  0.1760E+00
     10.438  0.0000E+00  0.0000E+00  0.1760E+00  0.1760E+00
     10.631  0.0000E+00  0.0000E+00  0.1760E+00  0.1760E+00
     10.824  0.0000E+00  0.0000E+00  0.1760E+00  0.1760E+00
     11.017  0.0000E+00  0.0000E+00  0.1760E+00  0.1760E+00
     11.210  0.0000E+00  0.0000E+00  0.1760E+00  0.1760E+00
     11.403  0.0000E+00  0.0000E+00  0.1760E+00  0.1760E+00
     11.596  0.0000E+00  0.0000E+00  0.1760E+00  0.1760E+00
     11.789  0.0000E+00  0.0000E+00  0.1760E+00  0.1760E+00
     11.982  0.0000E+00  0.0000E+00  0.1760E+00  0.1760E+00
     12.175  0.0000E+00  0.0000E+00  0.1760E+00  0.1760E+00
     12.368  0.0000E+00  0.0000E+00  0.1760E+00  0.1760E+00
     12.561  0.0000E+00  0.0000E+00  0.1760E+00  0.1760E+00
