 vasp.6.4.1 05Apr23 (build Jun 07 2023 15:38:11) complex                        
  
 executed on             LinuxIFC date 2023.10.23  15:07:43
 running  128 mpi-ranks, with    1 threads/rank, on    1 nodes
 distrk:  each k-point on  128 cores,    1 groups
 distr:  one band on NCORE=  32 cores,    4 groups


--------------------------------------------------------------------------------------------------------


 INCAR:
   GGA = PE
   PREC = Accu
   EDIFF = 1.e-6
   EDIFFG = -1.e-3
   ENCUT = 520.
   NELM = 100
   NELMDL = -10
   LASPH = .TRUE.
   LREAL = Auto
   LMAXMIX = 4
   ISPIN = 2
   LDIAG = .TRUE.
   LPLANE = .TRUE.
   IVDW = 12
   SIGMA = 0.03
   ISMEAR = 0
   NSW = 1000    number of steps for IOM
   IBRION = 2    ionic relax: 0-MD 1-quasi-New 2-CG
   ISIF = 2    ionic relaxation + stress tensor calcn.
   LCHARG = .FALSE.
   LWAVE = .FALSE.
   ALGO = F
   KPAR = 1
   NPAR = 4
   POTIM = 0.2

 POTCAR:    PAW_PBE Li_sv_GW 25Mar2010            
 POTCAR:    PAW_PBE P_GW 19Mar2012                
 POTCAR:    PAW_PBE S_GW 19Mar2012                
 POTCAR:    PAW_PBE Cl_GW 19Mar2012               
 -----------------------------------------------------------------------------
|                                                                             |
|           W    W    AA    RRRRR   N    N  II  N    N   GGGG   !!!           |
|           W    W   A  A   R    R  NN   N  II  NN   N  G    G  !!!           |
|           W    W  A    A  R    R  N N  N  II  N N  N  G       !!!           |
|           W WW W  AAAAAA  RRRRR   N  N N  II  N  N N  G  GGG   !            |
|           WW  WW  A    A  R   R   N   NN  II  N   NN  G    G                |
|           W    W  A    A  R    R  N    N  II  N    N   GGGG   !!!           |
|                                                                             |
|     You use a magnetic or noncollinear calculation, but did not specify     |
|     the initial magnetic moment with the MAGMOM tag. Note that a            |
|     default of 1 will be used for all atoms. This ferromagnetic setup       |
|     may break the symmetry of the crystal, in particular it may rule        |
|     out finding an antiferromagnetic solution. Thence, we recommend         |
|     setting the initial magnetic moment manually or verifying carefully     |
|     that this magnetic setup is desired.                                    |
|                                                                             |
 -----------------------------------------------------------------------------

 POTCAR:    PAW_PBE Li_sv_GW 25Mar2010            
   SHA256 =  24a6ace15a582615486b36ce4dc781b048409f4015b7684ed1273ae395fa2fdc Li_sv_GW/POTCAR       
   COPYR  = (c) Copyright 25Mar2010 Georg Kresse                                                    
   COPYR  = This file is part of the software VASP. Any use, copying, and all other rights are regul
   COPYR  = If you do not have a valid VASP license, you may not use, copy or distribute this file. 
   VRHFIN =Li: 1s2s                                                                                 
   LEXCH  = PE                                                                                      
   EATOM  =   200.9989 eV,   14.7730 Ry                                                             
                                                                                                    
   TITEL  = PAW_PBE Li_sv_GW 25Mar2010                                                              
   LULTRA =        F    use ultrasoft PP ?                                                          
   IUNSCR =        0    unscreen: 0-lin 1-nonlin 2-no                                               
   RPACOR =    0.000    partial core radius                                                         
   POMASS =    7.010; ZVAL   =    3.000    mass and valenz                                          
   RCORE  =    1.500    outmost cutoff radius                                                       
   RWIGS  =    1.600; RWIGS  =    0.847    wigner-seitz radius (au A)                               
   ENMAX  =  433.699; ENMIN  =  325.274 eV                                                          
   RCLOC  =    1.003    cutoff for local pot                                                        
   LCOR   =        T    correct aug charges                                                         
   LPAW   =        T    paw PP                                                                      
   EAUG   = 1041.699                                                                                
   RMAX   =    1.536    core radius for proj-oper                                                   
   RAUG   =    1.300    factor for augmentation sphere                                              
   RDEP   =    1.520    radius for radial grids                                                     
   RDEPT  =    1.300    core radius for aug-charge                                                  
                                                                                                    
   Atomic configuration                                                                             
    4 entries                                                                                       
     n  l   j            E        occ.                                                              
     1  0  0.50       -53.3604   2.0000                                                             
     1  0  0.50       -52.0001   0.0000                                                             
     2  1  0.50        -1.5636   1.0000                                                             
     3  2  1.50        -1.3606   0.0000                                                             
   Description                                                                                      
     l       E           TYP  RCUT    TYP  RCUT                                                     
     0    -53.3603633     23  1.200                                                                 
     0    -52.0001064     23  1.200                                                                 
     0    176.8757380     23  1.300                                                                 
     1     -1.5635925     23  1.500                                                                 
     1    108.8466080     23  1.500                                                                 
     2     81.6349560     23  1.500                                                                 
  local pseudopotential read in
  kinetic energy density of atom read in
  atomic valenz-charges read in
  non local Contribution for L=           0  read in
    real space projection operators read in
  non local Contribution for L=           0  read in
    real space projection operators read in
  non local Contribution for L=           0  read in
    real space projection operators read in
  non local Contribution for L=           1  read in
    real space projection operators read in
  non local Contribution for L=           1  read in
    real space projection operators read in
  non local Contribution for L=           2  read in
    real space projection operators read in
    PAW grid and wavefunctions read in
 
   number of l-projection  operators is LMAX  =           6
   number of lm-projection operators is LMMAX =          14
 
 POTCAR:    PAW_PBE P_GW 19Mar2012                
   SHA256 =  715c28f2291d37b61637ce89646c59f66f71c8b8d8bfba631e5feb9f7b42defe P_GW/POTCAR           
   COPYR  = (c) Copyright 19Mar2012 Georg Kresse                                                    
   COPYR  = This file is part of the software VASP. Any use, copying, and all other rights are regul
   COPYR  = If you do not have a valid VASP license, you may not use, copy or distribute this file. 
   VRHFIN =P : s2p3                                                                                 
   LEXCH  = PE                                                                                      
   EATOM  =   176.0430 eV,   12.9388 Ry                                                             
                                                                                                    
   TITEL  = PAW_PBE P_GW 19Mar2012                                                                  
   LULTRA =        F    use ultrasoft PP ?                                                          
   IUNSCR =        1    unscreen: 0-lin 1-nonlin 2-no                                               
   RPACOR =    1.400    partial core radius                                                         
   POMASS =   30.974; ZVAL   =    5.000    mass and valenz                                          
   RCORE  =    2.000    outmost cutoff radius                                                       
   RWIGS  =    1.900; RWIGS  =    1.005    wigner-seitz radius (au A)                               
   ENMAX  =  255.040; ENMIN  =  191.280 eV                                                          
   ICORE  =        3    local potential                                                             
   LCOR   =        T    correct aug charges                                                         
   LPAW   =        T    paw PP                                                                      
   EAUG   =  499.732                                                                                
   DEXC   =    0.000                                                                                
   RMAX   =    2.047    core radius for proj-oper                                                   
   RAUG   =    1.300    factor for augmentation sphere                                              
   RDEP   =    2.059    radius for radial grids                                                     
   RDEPT  =    1.900    core radius for aug-charge                                                  
                                                                                                    
   Atomic configuration                                                                             
    7 entries                                                                                       
     n  l   j            E        occ.                                                              
     1  0  0.50     -2084.0982   2.0000                                                             
     2  0  0.50      -173.9859   2.0000                                                             
     2  1  1.50      -124.4865   6.0000                                                             
     3  0  0.50       -13.9692   2.0000                                                             
     3  1  0.50        -5.5067   3.0000                                                             
     3  2  1.50        -6.8029   0.0000                                                             
     4  3  2.50        -1.3606   0.0000                                                             
   Description                                                                                      
     l       E           TYP  RCUT    TYP  RCUT                                                     
     0    -13.9691528     23  1.900                                                                 
     0    102.0436950     23  1.900                                                                 
     1     -5.5066939     23  1.900                                                                 
     1    102.0436950     23  1.900                                                                 
     2     -8.1634956     23  2.000                                                                 
     2     81.6349560     23  2.000                                                                 
     3     27.2116520     23  2.000                                                                 
  local pseudopotential read in
  partial core-charges read in
  partial kinetic energy density read in
  kinetic energy density of atom read in
  atomic valenz-charges read in
  non local Contribution for L=           0  read in
    real space projection operators read in
  non local Contribution for L=           0  read in
    real space projection operators read in
  non local Contribution for L=           1  read in
    real space projection operators read in
  non local Contribution for L=           1  read in
    real space projection operators read in
  non local Contribution for L=           2  read in
    real space projection operators read in
  non local Contribution for L=           2  read in
    real space projection operators read in
    PAW grid and wavefunctions read in
 
   number of l-projection  operators is LMAX  =           6
   number of lm-projection operators is LMMAX =          18
 
 POTCAR:    PAW_PBE S_GW 19Mar2012                
   SHA256 =  357db9cfb0783579b2eebe03197c2d807131fea8ea663b1fcfb6ce2fa75af011 S_GW/POTCAR           
   COPYR  = (c) Copyright 19Mar2012 Georg Kresse                                                    
   COPYR  = This file is part of the software VASP. Any use, copying, and all other rights are regul
   COPYR  = If you do not have a valid VASP license, you may not use, copy or distribute this file. 
   VRHFIN =S : s2p4                                                                                 
   LEXCH  = PE                                                                                      
   EATOM  =   276.8230 eV,   20.3459 Ry                                                             
                                                                                                    
   TITEL  = PAW_PBE S_GW 19Mar2012                                                                  
   LULTRA =        F    use ultrasoft PP ?                                                          
   IUNSCR =        1    unscreen: 0-lin 1-nonlin 2-no                                               
   RPACOR =    1.400    partial core radius                                                         
   POMASS =   32.066; ZVAL   =    6.000    mass and valenz                                          
   RCORE  =    1.900    outmost cutoff radius                                                       
   RWIGS  =    1.900; RWIGS  =    1.005    wigner-seitz radius (au A)                               
   ENMAX  =  258.689; ENMIN  =  194.016 eV                                                          
   ICORE  =        3    local potential                                                             
   LCOR   =        T    correct aug charges                                                         
   LPAW   =        T    paw PP                                                                      
   EAUG   =  488.319                                                                                
   DEXC   =    0.000                                                                                
   RMAX   =    1.942    core radius for proj-oper                                                   
   RAUG   =    1.300    factor for augmentation sphere                                              
   RDEP   =    1.954    radius for radial grids                                                     
   RDEPT  =    1.900    core radius for aug-charge                                                  
                                                                                                    
   Atomic configuration                                                                             
    7 entries                                                                                       
     n  l   j            E        occ.                                                              
     1  0  0.50     -2405.8406   2.0000                                                             
     2  0  0.50      -211.7007   2.0000                                                             
     2  1  1.50      -156.4958   6.0000                                                             
     3  0  0.50       -17.2562   2.0000                                                             
     3  1  0.50        -7.0085   4.0000                                                             
     3  2  1.50        -8.1635   0.0000                                                             
     4  3  2.50        -1.3606   0.0000                                                             
   Description                                                                                      
     l       E           TYP  RCUT    TYP  RCUT                                                     
     0    -17.2561639     23  1.700                                                                 
     0     88.4378690     23  1.900                                                                 
     1     -7.0085399     23  1.900                                                                 
     1     88.4378690     23  1.900                                                                 
     2    -10.8846608     23  1.900                                                                 
     2     54.4233040     23  1.900                                                                 
     3     27.2116520     23  1.800                                                                 
  local pseudopotential read in
  partial core-charges read in
  partial kinetic energy density read in
  kinetic energy density of atom read in
  atomic valenz-charges read in
  non local Contribution for L=           0  read in
    real space projection operators read in
  non local Contribution for L=           0  read in
    real space projection operators read in
  non local Contribution for L=           1  read in
    real space projection operators read in
  non local Contribution for L=           1  read in
    real space projection operators read in
  non local Contribution for L=           2  read in
    real space projection operators read in
  non local Contribution for L=           2  read in
    real space projection operators read in
    PAW grid and wavefunctions read in
 
   number of l-projection  operators is LMAX  =           6
   number of lm-projection operators is LMMAX =          18
 
 POTCAR:    PAW_PBE Cl_GW 19Mar2012               
   SHA256 =  3ef3b3169d6a9a89979f58b4cf17d927a58518fc660d8883d88cacaee8175441 Cl_GW/POTCAR          
   COPYR  = (c) Copyright 19Mar2012 Georg Kresse                                                    
   COPYR  = This file is part of the software VASP. Any use, copying, and all other rights are regul
   COPYR  = If you do not have a valid VASP license, you may not use, copy or distribute this file. 
   VRHFIN =Cl: s2p5                                                                                 
   LEXCH  = PE                                                                                      
   EATOM  =   409.7259 eV,   30.1140 Ry                                                             
                                                                                                    
   TITEL  = PAW_PBE Cl_GW 19Mar2012                                                                 
   LULTRA =        F    use ultrasoft PP ?                                                          
   IUNSCR =        1    unscreen: 0-lin 1-nonlin 2-no                                               
   RPACOR =    1.400    partial core radius                                                         
   POMASS =   35.453; ZVAL   =    7.000    mass and valenz                                          
   RCORE  =    1.900    outmost cutoff radius                                                       
   RWIGS  =    1.900; RWIGS  =    1.005    wigner-seitz radius (au A)                               
   ENMAX  =  262.472; ENMIN  =  196.854 eV                                                          
   ICORE  =        3    local potential                                                             
   LCOR   =        T    correct aug charges                                                         
   LPAW   =        T    paw PP                                                                      
   EAUG   =  456.703                                                                                
   DEXC   =    0.000                                                                                
   RMAX   =    1.945    core radius for proj-oper                                                   
   RAUG   =    1.300    factor for augmentation sphere                                              
   RDEP   =    2.020    radius for radial grids                                                     
   RDEPT  =    1.900    core radius for aug-charge                                                  
                                                                                                    
   Atomic configuration                                                                             
    7 entries                                                                                       
     n  l   j            E        occ.                                                              
     1  0  0.50     -2751.1850   2.0000                                                             
     2  0  0.50      -252.6861   2.0000                                                             
     2  1  1.50      -191.6157   6.0000                                                             
     3  0  0.50       -20.6916   2.0000                                                             
     3  1  0.50        -8.5949   5.0000                                                             
     3  2  1.50        -9.5241   0.0000                                                             
     4  3  2.50        -9.5241   0.0000                                                             
   Description                                                                                      
     l       E           TYP  RCUT    TYP  RCUT                                                     
     0    -20.6915657     23  1.700                                                                 
     0     95.2407820     23  1.800                                                                 
     1     -8.5948577     23  1.900                                                                 
     1     95.2407820     23  1.900                                                                 
     2    -10.8846608     23  1.900                                                                 
     2     54.4233040     23  1.900                                                                 
     3     27.2116520     23  1.900                                                                 
  local pseudopotential read in
  partial core-charges read in
  partial kinetic energy density read in
  kinetic energy density of atom read in
  atomic valenz-charges read in
  non local Contribution for L=           0  read in
    real space projection operators read in
  non local Contribution for L=           0  read in
    real space projection operators read in
  non local Contribution for L=           1  read in
    real space projection operators read in
  non local Contribution for L=           1  read in
    real space projection operators read in
  non local Contribution for L=           2  read in
    real space projection operators read in
  non local Contribution for L=           2  read in
    real space projection operators read in
    PAW grid and wavefunctions read in
 
   number of l-projection  operators is LMAX  =           6
   number of lm-projection operators is LMMAX =          18
 
 Optimization of the real space projectors (new method)

 maximal supplied QI-value         = 25.13
 optimisation between [QCUT,QGAM] = [ 11.56, 23.12] = [ 37.43,149.72] Ry 
 Optimized for a Real-space Cutoff    1.28 Angstroem

   l    n(q)    QCUT    max X(q) W(low)/X(q) W(high)/X(q)  e(spline) 
   0      9    11.561    87.733    0.11E-03    0.32E-04    0.56E-06
   0      9    11.561    82.800    0.11E-03    0.35E-04    0.56E-06
   0      9    11.561     2.509    0.22E-03    0.42E-04    0.79E-06
   1      8    11.561    12.580    0.94E-04    0.26E-03    0.21E-06
   1      8    11.561     1.319    0.33E-04    0.15E-03    0.19E-06
   2      8    11.561     1.993    0.36E-04    0.89E-04    0.26E-06
 Optimization of the real space projectors (new method)

 maximal supplied QI-value         = 18.90
 optimisation between [QCUT,QGAM] = [ 11.53, 23.24] = [ 37.21,151.29] Ry 
 Optimized for a Real-space Cutoff    1.21 Angstroem

   l    n(q)    QCUT    max X(q) W(low)/X(q) W(high)/X(q)  e(spline) 
   0      8    11.527     8.355    0.73E-04    0.70E-04    0.26E-07
   0      8    11.527     1.401    0.17E-03    0.17E-03    0.63E-07
   1      8    11.527     4.747    0.13E-03    0.17E-03    0.11E-06
   1      8    11.527     2.025    0.16E-03    0.18E-03    0.12E-06
   2      7    11.527     3.169    0.51E-04    0.25E-03    0.60E-07
   2      7    11.527     3.441    0.82E-04    0.22E-03    0.14E-06
 Optimization of the real space projectors (new method)

 maximal supplied QI-value         = 19.84
 optimisation between [QCUT,QGAM] = [ 11.51, 23.22] = [ 37.09,150.92] Ry 
 Optimized for a Real-space Cutoff    1.49 Angstroem

   l    n(q)    QCUT    max X(q) W(low)/X(q) W(high)/X(q)  e(spline) 
   0     10    11.508     7.541    0.34E-04    0.13E-04    0.69E-07
   0     10    11.508     1.809    0.49E-04    0.27E-04    0.14E-06
   1     10    11.508     4.107    0.27E-05    0.41E-05    0.14E-06
   1     10    11.508     2.196    0.26E-05    0.25E-05    0.22E-06
   2      9    11.508     4.265    0.18E-03    0.11E-03    0.81E-06
   2      9    11.508     1.925    0.97E-04    0.76E-04    0.47E-06
 Optimization of the real space projectors (new method)

 maximal supplied QI-value         = 19.84
 optimisation between [QCUT,QGAM] = [ 11.51, 23.22] = [ 37.09,150.92] Ry 
 Optimized for a Real-space Cutoff    1.21 Angstroem

   l    n(q)    QCUT    max X(q) W(low)/X(q) W(high)/X(q)  e(spline) 
   0      8    11.508     6.761    0.57E-04    0.57E-04    0.35E-07
   0      8    11.508     1.642    0.14E-03    0.14E-03    0.91E-07
   1      8    11.508     3.519    0.20E-04    0.72E-04    0.47E-07
   1      8    11.508     2.150    0.27E-04    0.11E-03    0.89E-07
   2      7    11.508     2.976    0.19E-03    0.33E-03    0.16E-06
   2      7    11.508     1.494    0.14E-03    0.29E-03    0.14E-06
  PAW_PBE Li_sv_GW 25Mar2010            :
 energy of atom  1       EATOM= -200.9989
 kinetic energy error for atom=    0.0127 (will be added to EATOM!!)
  PAW_PBE P_GW 19Mar2012                :
 energy of atom  2       EATOM= -176.0430
 kinetic energy error for atom=    0.0011 (will be added to EATOM!!)
  PAW_PBE S_GW 19Mar2012                :
 energy of atom  3       EATOM= -276.8230
 kinetic energy error for atom=    0.0024 (will be added to EATOM!!)
  PAW_PBE Cl_GW 19Mar2012               :
 energy of atom  4       EATOM= -409.7259
 kinetic energy error for atom=    0.0030 (will be added to EATOM!!)
 
 
 POSCAR: Li24 P4 S20 Cl4
  positions in direct lattice
  velocities in cartesian coordinates
 exchange correlation table for  LEXCH =        8
   RHO(1)=    0.500       N(1)  =     2000
   RHO(2)=  100.500       N(2)  =     4000

 VTST: version 4.1, (05/19/21)

 CHAIN: initializing optimizer
 
 OPT: Using VASP Conjugate-Gradient optimizer
 CHAIN: Read ICHAIN            0
 
 POSCAR: Li24 P4 S20 Cl4
  positions in direct lattice
  velocities in cartesian coordinates
 


--------------------------------------------------------------------------------------------------------


 ion  position               nearest neighbor table
   1  0.993  0.226  0.172-
   2  0.979  0.725  0.681-
   3  0.035  0.188  0.782-
   4  0.020  0.705  0.331-
   5  0.229  0.190  0.974-
   6  0.156  0.819  0.038-
   7  0.702  0.294  0.008-
   8  0.736  0.696  0.969-
   9  0.292  0.981  0.286-
  10  0.390  0.044  0.718-
  11  0.815  0.973  0.813-
  12  0.817  0.020  0.180-
  13  0.313  0.793  0.484-
  14  0.296  0.215  0.514-
  15  0.676  0.844  0.526-
  16  0.848  0.317  0.455-
  17  0.178  0.466  0.686-
  18  0.209  0.515  0.306-
  19  0.715  0.484  0.212-
  20  0.797  0.524  0.690-
  21  0.473  0.350  0.806-
  22  0.462  0.682  0.178-
  23  0.560  0.181  0.329-
  24  0.519  0.696  0.804-
  25  0.510  0.499  0.493-  41 2.05  42 2.05  44 2.05  43 2.06
  26  0.506  0.996  0.001-  38 2.05  39 2.05  40 2.05  37 2.07
  27  0.019  0.506  0.991-  35 2.04  36 2.05  34 2.06  33 2.06
  28  0.002  0.011  0.496-  29 2.04  32 2.05  31 2.05  30 2.06
  29  0.133  0.902  0.622-  28 2.04
  30  0.116  0.139  0.369-  28 2.06
  31  0.875  0.887  0.379-  28 2.05
  32  0.870  0.126  0.616-  28 2.05
  33  0.903  0.624  0.126-  27 2.06
  34  0.895  0.380  0.870-  27 2.06
  35  0.126  0.637  0.864-  27 2.04
  36  0.156  0.389  0.102-  27 2.05
  37  0.613  0.115  0.859-  26 2.07
  38  0.633  0.871  0.116-  26 2.05
  39  0.405  0.131  0.130-  26 2.05
  40  0.368  0.875  0.896-  26 2.05
  41  0.621  0.639  0.379-  25 2.05
  42  0.634  0.367  0.604-  25 2.05
  43  0.379  0.603  0.626-  25 2.06
  44  0.400  0.378  0.359-  25 2.05
  45  0.747  0.753  0.740-
  46  0.767  0.252  0.235-
  47  0.244  0.750  0.257-
  48  0.263  0.249  0.746-
  49  0.006  0.031  0.995-
  50  0.003  0.519  0.508-
  51  0.470  0.000  0.486-
  52  0.552  0.513  0.994-
 
  LATTYP: Found a simple cubic cell.
 ALAT       =     9.6645937420
  
  Lattice vectors:
  
 A1 = (   9.6645937420,   0.0000000000,   0.0000000000)
 A2 = (   0.0000000000,   9.6645937420,   0.0000000000)
 A3 = (   0.0000000000,   0.0000000000,   9.6645937420)


Analysis of symmetry for initial positions (statically):
=====================================================================
 Subroutine PRICEL returns:
 Original cell was already a primitive cell.
 

 Routine SETGRP: Setting up the symmetry group for a 
 simple cubic supercell.


 Subroutine GETGRP returns: Found  1 space group operations
 (whereof  1 operations were pure point group operations)
 out of a pool of 48 trial point group operations.


The static configuration has the point symmetry C_1 .


Analysis of symmetry for dynamics (positions and initial velocities):
=====================================================================
 Subroutine PRICEL returns:
 Original cell was already a primitive cell.
 

 Routine SETGRP: Setting up the symmetry group for a 
 simple cubic supercell.


 Subroutine GETGRP returns: Found  1 space group operations
 (whereof  1 operations were pure point group operations)
 out of a pool of 48 trial point group operations.


The dynamic configuration has the point symmetry C_1 .


Analysis of structural, dynamic, and magnetic symmetry:
=====================================================================
 Subroutine PRICEL returns:
 Original cell was already a primitive cell.
 

 Routine SETGRP: Setting up the symmetry group for a 
 simple cubic supercell.


 Subroutine GETGRP returns: Found  1 space group operations
 (whereof  1 operations were pure point group operations)
 out of a pool of 48 trial point group operations.


The overall configuration has the point symmetry C_1 .


 Subroutine INISYM returns: Found  1 space group operations
 (whereof  1 operations are pure point group operations),
 and found     1 'primitive' translations


----------------------------------------------------------------------------------------

                                     Primitive cell                                     

  volume of cell :     902.7153

  direct lattice vectors                    reciprocal lattice vectors
     9.664593742  0.000000000  0.000000000     0.103470464  0.000000000  0.000000000
     0.000000000  9.664593742  0.000000000     0.000000000  0.103470464  0.000000000
     0.000000000  0.000000000  9.664593742     0.000000000  0.000000000  0.103470464

  length of vectors
     9.664593742  9.664593742  9.664593742     0.103470464  0.103470464  0.103470464

  position of ions in fractional coordinates (direct lattice)
     0.993132532  0.225642197  0.171526694
     0.979342167  0.724661913  0.681387927
     0.034888045  0.188232847  0.782484566
     0.019817016  0.704654938  0.331355239
     0.229275437  0.189587624  0.974154176
     0.156394441  0.819253870  0.038071062
     0.701661683  0.294117889  0.007959232
     0.735830482  0.696314098  0.969412847
     0.291759534  0.981471075  0.286213375
     0.389811139  0.044372349  0.717566923
     0.814927133  0.972812741  0.813235017
     0.816657072  0.020017466  0.179522467
     0.313459537  0.792644995  0.484058947
     0.296330382  0.215427446  0.514384568
     0.675612728  0.844222986  0.526313310
     0.848058546  0.316849187  0.455007581
     0.178073543  0.465604304  0.685600871
     0.208698070  0.515380370  0.306067415
     0.715163521  0.483874496  0.211640386
     0.796855652  0.524065208  0.690432905
     0.472663090  0.350145099  0.805654995
     0.462022309  0.682448780  0.177523236
     0.560010902  0.181090515  0.329167661
     0.518728806  0.696034244  0.803593204
     0.510391328  0.499229817  0.493048600
     0.506385366  0.996113869  0.001452145
     0.018536708  0.505646207  0.990527230
     0.002213233  0.010713341  0.495754238
     0.132573816  0.902457641  0.622165729
     0.116263855  0.138758387  0.368672311
     0.874903792  0.886952959  0.378819246
     0.870481167  0.125947803  0.615995661
     0.902895641  0.623510020  0.125541965
     0.894793369  0.380423949  0.870430597
     0.126047808  0.636535251  0.864094937
     0.156276860  0.389124287  0.101901839
     0.612849545  0.114933328  0.858661839
     0.633047565  0.871267050  0.116296046
     0.405100672  0.130991370  0.129593316
     0.367701654  0.874702562  0.896346706
     0.621121009  0.639084054  0.378827174
     0.633618334  0.366854737  0.603973115
     0.379416910  0.603113221  0.625549480
     0.399760532  0.377612062  0.358874631
     0.747017840  0.753284946  0.740005331
     0.767169801  0.252197859  0.234843852
     0.244488270  0.749607328  0.257484658
     0.262669567  0.249304975  0.746072607
     0.006282563  0.031316040  0.995146535
     0.003437497  0.519199484  0.507684143
     0.469665381  0.000227848  0.486295182
     0.552309928  0.512753006  0.993911381

  ion indices of the primitive-cell ions
   primitive index   ion index
                 1           1
                 2           2
                 3           3
                 4           4
                 5           5
                 6           6
                 7           7
                 8           8
                 9           9
                10          10
                11          11
                12          12
                13          13
                14          14
                15          15
                16          16
                17          17
                18          18
                19          19
                20          20
                21          21
                22          22
                23          23
                24          24
                25          25
                26          26
                27          27
                28          28
                29          29
                30          30
                31          31
                32          32
                33          33
                34          34
                35          35
                36          36
                37          37
                38          38
                39          39
                40          40
                41          41
                42          42
                43          43
                44          44
                45          45
                46          46
                47          47
                48          48
                49          49
                50          50
                51          51
                52          52

----------------------------------------------------------------------------------------

 
 
 KPOINTS: Automatic mesh                          

Automatic generation of k-mesh.
 Grid dimensions read from file:
 generate k-points for:    2    2    2

 Generating k-lattice:

  Cartesian coordinates                     Fractional coordinates (reciprocal lattice)
     0.051735232  0.000000000  0.000000000     0.500000000  0.000000000  0.000000000
     0.000000000  0.051735232  0.000000000     0.000000000  0.500000000  0.000000000
     0.000000000  0.000000000  0.051735232     0.000000000  0.000000000  0.500000000

  Length of vectors
     0.051735232  0.051735232  0.051735232

  Shift w.r.t. Gamma in fractional coordinates (k-lattice)
     0.500000000  0.500000000  0.500000000

 
 Subroutine IBZKPT returns following result:
 ===========================================
 
 Found      4 irreducible k-points:
 
 Following reciprocal coordinates:
            Coordinates               Weight
  0.250000  0.250000  0.250000      2.000000
 -0.250000  0.250000  0.250000      2.000000
 -0.250000 -0.250000  0.250000      2.000000
  0.250000 -0.250000  0.250000      2.000000
 
 Following cartesian coordinates:
            Coordinates               Weight
  0.025868  0.025868  0.025868      2.000000
 -0.025868  0.025868  0.025868      2.000000
 -0.025868 -0.025868  0.025868      2.000000
  0.025868 -0.025868  0.025868      2.000000
 


--------------------------------------------------------------------------------------------------------




 Dimension of arrays:
   k-points           NKPTS =      4   k-points in BZ     NKDIM =      4   number of bands    NBANDS=    176
   number of dos      NEDOS =    301   number of ions     NIONS =     52
   non local maximal  LDIM  =      6   non local SUM 2l+1 LMDIM =     18
   total plane-waves  NPLWV = 373248
   max r-space proj   IRMAX =   5769   max aug-charges    IRDMAX=  17648
   dimension x,y,z NGX =    72 NGY =   72 NGZ =   72
   dimension x,y,z NGXF=   144 NGYF=  144 NGZF=  144
   support grid    NGXF=   144 NGYF=  144 NGZF=  144
   ions per type =              24   4  20   4
   NGX,Y,Z   is equivalent  to a cutoff of  12.39, 12.39, 12.39 a.u.
   NGXF,Y,Z  is equivalent  to a cutoff of  24.77, 24.77, 24.77 a.u.

 SYSTEM =  unknown system                          
 POSCAR =  Li24 P4 S20 Cl4                         

 Startparameter for this run:
   NWRITE =      2    write-flag & timer
   PREC   = accu      normal or accurate (medium, high low for compatibility)
   ISTART =      0    job   : 0-new  1-cont  2-samecut
   ICHARG =      2    charge: 1-file 2-atom 10-const
   ISPIN  =      2    spin polarized calculation?
   LNONCOLLINEAR =      F non collinear calculations
   LSORBIT =      F    spin-orbit coupling
   INIWAV =      1    electr: 0-lowe 1-rand  2-diag
   LASPH  =      T    aspherical Exc in radial PAW
 Electronic Relaxation 1
   ENCUT  =  520.0 eV  38.22 Ry    6.18 a.u.  17.97 17.97 17.97*2*pi/ulx,y,z
   ENINI  =  520.0     initial cutoff
   ENAUG  = 1041.7 eV  augmentation charge cutoff
   NELM   =    100;   NELMIN=  2; NELMDL=-10     # of ELM steps 
   EDIFF  = 0.1E-05   stopping-criterion for ELM
   LREAL  =      T    real-space projection
   NLSPLINE    = F    spline interpolate recip. space projectors
   LCOMPAT=      F    compatible to vasp.4.4
   GGA_COMPAT  = T    GGA compatible to vasp.4.4-vasp.4.6
   LMAXPAW     = -100 max onsite density
   LMAXMIX     =    4 max onsite mixed and CHGCAR
   VOSKOWN=      0    Vosko Wilk Nusair interpolation
   ROPT   =   -0.00025  -0.00025  -0.00025  -0.00025
 Ionic relaxation
   EDIFFG = -.1E-02   stopping-criterion for IOM
   NSW    =   1000    number of steps for IOM
   NBLOCK =      1;   KBLOCK =   1000    inner block; outer block 
   IBRION =      2    ionic relax: 0-MD 1-quasi-New 2-CG
   NFREE  =      1    steps in history (QN), initial steepest desc. (CG)
   ISIF   =      2    stress and relaxation
   IWAVPR =     11    prediction:  0-non 1-charg 2-wave 3-comb
   ISYM   =      2    0-nonsym 1-usesym 2-fastsym
   LCORR  =      T    Harris-Foulkes like correction to forces

   POTIM  = 0.2000    time-step for ionic-motion
   TEIN   =    0.0    initial temperature
   TEBEG  =    0.0;   TEEND  =   0.0 temperature during run
   SMASS  =  -3.00    Nose mass-parameter (am)
   estimated Nose-frequenzy (Omega)   =  0.10E-29 period in steps = 0.31E+47 mass=  -0.213E-26a.u.
   SCALEE = 1.0000    scale energy and forces
   NPACO  =    256;   APACO  = 10.0  distance and # of slots for P.C.
   PSTRESS=    0.0 pullay stress

  Mass of Ions in am
   POMASS =   7.01 30.97 32.07 35.45
  Ionic Valenz
   ZVAL   =   3.00  5.00  6.00  7.00
  Atomic Wigner-Seitz radii
   RWIGS  =  -1.00 -1.00 -1.00 -1.00
  virtual crystal weights 
   VCA    =   1.00  1.00  1.00  1.00
   NELECT =     240.0000    total number of electrons
   NUPDOWN=      -1.0000    fix difference up-down

 DOS related values:
   EMIN   =  10.00;   EMAX   =-10.00  energy-range for DOS
   EFERMI =   0.00;   METHOD = LEGACY      
   ISMEAR =     0;   SIGMA  =   0.03  broadening in eV -4-tet -1-fermi 0-gaus

 Electronic relaxation 2 (details)
   IALGO  =     68    algorithm
   LDIAG  =      T    sub-space diagonalisation (order eigenvalues)
   LSUBROT=      F    optimize rotation matrix (better conditioning)
   TURBO    =      0    0=normal 1=particle mesh
   IRESTART =      0    0=no restart 2=restart with 2 vectors
   NREBOOT  =      0    no. of reboots
   NMIN     =      0    reboot dimension
   EREF     =   0.00    reference energy to select bands
   IMIX   =      4    mixing-type and parameters
     AMIX     =   0.40;   BMIX     =  1.00
     AMIX_MAG =   1.60;   BMIX_MAG =  1.00
     AMIN     =   0.10
     WC   =   100.;   INIMIX=   1;  MIXPRE=   1;  MAXMIX= -45

 Intra band minimization:
   WEIMIN = 0.0010     energy-eigenvalue tresh-hold
   EBREAK =  0.14E-08  absolut break condition
   DEPER  =   0.30     relativ break condition  

   TIME   =   0.40     timestep for ELM

  volume/ion in A,a.u.               =      17.36       117.15
  Fermi-wavevector in a.u.,A,eV,Ry     =   1.052677  1.989270 15.076998  1.108128
  Thomas-Fermi vector in A             =   2.187769
 
 Write flags
   LWAVE        =      F    write WAVECAR
   LDOWNSAMPLE  =      F    k-point downsampling of WAVECAR
   LCHARG       =      F    write CHGCAR
   LVTOT        =      F    write LOCPOT, total local potential
   LVHAR        =      F    write LOCPOT, Hartree potential only
   LELF         =      F    write electronic localiz. function (ELF)
   LORBIT       =      0    0 simple, 1 ext, 2 COOP (PROOUT), +10 PAW based schemes


 Dipole corrections
   LMONO  =      F    monopole corrections only (constant potential shift)
   LDIPOL =      F    correct potential (dipole corrections)
   IDIPOL =      0    1-x, 2-y, 3-z, 4-all directions 
   EPSILON=  1.0000000 bulk dielectric constant

 Exchange correlation treatment:
   GGA     =    PE    GGA type
   LEXCH   =     8    internal setting for exchange type
   LIBXC   =     F    Libxc                    
   VOSKOWN =     0    Vosko Wilk Nusair interpolation
   LHFCALC =     F    Hartree Fock is set to
   LHFONE  =     F    Hartree Fock one center treatment
   AEXX    =    0.0000 exact exchange contribution

 Linear response parameters
   LEPSILON=     F    determine dielectric tensor
   LRPA    =     F    only Hartree local field effects (RPA)
   LNABLA  =     F    use nabla operator in PAW spheres
   LVEL    =     F    velocity operator in full k-point grid
   CSHIFT  =0.1000    complex shift for real part using Kramers Kronig
   OMEGAMAX=  -1.0    maximum frequency
   DEG_THRESHOLD= 0.2000000E-02 threshold for treating states as degnerate
   RTIME   =   -0.100 relaxation time in fs
  (WPLASMAI=    0.000 imaginary part of plasma frequency in eV, 0.658/RTIME)
   DFIELD  = 0.0000000 0.0000000 0.0000000 field for delta impulse in time
 
  Optional k-point grid parameters
   LKPOINTS_OPT  =     F    use optional k-point grid
   KPOINTS_OPT_MODE=     1    mode for optional k-point grid
 
 Orbital magnetization related:
   ORBITALMAG=     F  switch on orbital magnetization
   LCHIMAG   =     F  perturbation theory with respect to B field
   DQ        =  0.001000  dq finite difference perturbation B field
   LLRAUG    =     F  two centre corrections for induced B field
   LBONE     =     F  B-component reconstruction in AE one-centre
   LVGVCALC  =     T  calculate vGv susceptibility
   LVGVAPPL  =     F  apply vGv susceptibility instead of pGv for G=0

 Random number generation:
   RANDOM_GENERATOR = DEFAULT
   PCG_SEED         = not used


--------------------------------------------------------------------------------------------------------


 conjugate gradient relaxation of ions
 charge density and potential will be updated during run
 spin polarized calculation
 RMM-DIIS sequential band-by-band and
  variant of blocked Davidson during initial phase
 perform sub-space diagonalisation
    before iterative eigenvector-optimisation
 modified Broyden-mixing scheme, WC =      100.0
 initial mixing is a Kerker type mixing with AMIX =  0.4000 and BMIX =      1.0000
 Hartree-type preconditioning will be used
 using additional bands           56
 real space projection scheme for non local part
 use partial core corrections
 calculate Harris-corrections to forces 
   (improved forces if not selfconsistent)
 use gradient corrections 
 use of overlap-Matrix (Vanderbilt PP)
 Gauss-broadening in eV      SIGMA  =   0.03


--------------------------------------------------------------------------------------------------------


  energy-cutoff  :      520.00
  volume of cell :      902.72
      direct lattice vectors                 reciprocal lattice vectors
     9.664593742  0.000000000  0.000000000     0.103470464  0.000000000  0.000000000
     0.000000000  9.664593742  0.000000000     0.000000000  0.103470464  0.000000000
     0.000000000  0.000000000  9.664593742     0.000000000  0.000000000  0.103470464

  length of vectors
     9.664593742  9.664593742  9.664593742     0.103470464  0.103470464  0.103470464


 
 k-points in units of 2pi/SCALE and weight: Automatic mesh                          
   0.02586762  0.02586762  0.02586762       0.250
  -0.02586762  0.02586762  0.02586762       0.250
  -0.02586762 -0.02586762  0.02586762       0.250
   0.02586762 -0.02586762  0.02586762       0.250
 
 k-points in reciprocal lattice and weights: Automatic mesh                          
   0.25000000  0.25000000  0.25000000       0.250
  -0.25000000  0.25000000  0.25000000       0.250
  -0.25000000 -0.25000000  0.25000000       0.250
   0.25000000 -0.25000000  0.25000000       0.250
 
 position of ions in fractional coordinates (direct lattice) 
   0.99313253  0.22564220  0.17152669
   0.97934217  0.72466191  0.68138793
   0.03488805  0.18823285  0.78248457
   0.01981702  0.70465494  0.33135524
   0.22927544  0.18958762  0.97415418
   0.15639444  0.81925387  0.03807106
   0.70166168  0.29411789  0.00795923
   0.73583048  0.69631410  0.96941285
   0.29175953  0.98147108  0.28621338
   0.38981114  0.04437235  0.71756692
   0.81492713  0.97281274  0.81323502
   0.81665707  0.02001747  0.17952247
   0.31345954  0.79264499  0.48405895
   0.29633038  0.21542745  0.51438457
   0.67561273  0.84422299  0.52631331
   0.84805855  0.31684919  0.45500758
   0.17807354  0.46560430  0.68560087
   0.20869807  0.51538037  0.30606742
   0.71516352  0.48387450  0.21164039
   0.79685565  0.52406521  0.69043290
   0.47266309  0.35014510  0.80565499
   0.46202231  0.68244878  0.17752324
   0.56001090  0.18109052  0.32916766
   0.51872881  0.69603424  0.80359320
   0.51039133  0.49922982  0.49304860
   0.50638537  0.99611387  0.00145214
   0.01853671  0.50564621  0.99052723
   0.00221323  0.01071334  0.49575424
   0.13257382  0.90245764  0.62216573
   0.11626385  0.13875839  0.36867231
   0.87490379  0.88695296  0.37881925
   0.87048117  0.12594780  0.61599566
   0.90289564  0.62351002  0.12554196
   0.89479337  0.38042395  0.87043060
   0.12604781  0.63653525  0.86409494
   0.15627686  0.38912429  0.10190184
   0.61284954  0.11493333  0.85866184
   0.63304756  0.87126705  0.11629605
   0.40510067  0.13099137  0.12959332
   0.36770165  0.87470256  0.89634671
   0.62112101  0.63908405  0.37882717
   0.63361833  0.36685474  0.60397311
   0.37941691  0.60311322  0.62554948
   0.39976053  0.37761206  0.35887463
   0.74701784  0.75328495  0.74000533
   0.76716980  0.25219786  0.23484385
   0.24448827  0.74960733  0.25748466
   0.26266957  0.24930497  0.74607261
   0.00628256  0.03131604  0.99514654
   0.00343750  0.51919948  0.50768414
   0.46966538  0.00022785  0.48629518
   0.55230993  0.51275301  0.99391138
 
 position of ions in cartesian coordinates  (Angst):
   9.59822246  2.18074016  1.65773581
   9.46494417  7.00356299  6.58533750
   0.33717879  1.81919399  7.56239544
   0.19152341  6.81020370  3.20241377
   2.21585395  1.83228736  9.41480435
   1.51148874  7.91775583  0.36794134
   6.78127511  2.84252991  0.07692275
   7.11150267  6.72959288  9.36898133
   2.81973737  9.48551921  2.76613600
   3.76736629  0.42884072  6.93499280
   7.87593967  9.40183993  7.85958605
   7.89265883  0.19346068  1.73501172
   3.02945908  7.66059186  4.67823307
   2.86391276  2.08201875  4.97131788
   6.52952254  8.15907218  5.08660433
   8.19614132  3.06221867  4.39746342
   1.72100845  4.49987645  6.62605388
   2.01698206  4.98094190  2.95801723
   6.91176489  4.67645043  2.04541835
   7.70128614  5.06487733  6.67275353
   4.56809675  3.38401013  7.78632822
   4.46525792  6.59559021  1.71568996
   5.41227786  1.75016626  3.18127172
   5.01330317  6.72688820  7.76640185
   4.93272483  4.82485337  4.76511441
   4.89400884  9.62703586  0.01403439
   0.17914976  4.88686517  9.57304327
   0.02138999  0.10354009  4.79126331
   1.28127207  8.72188647  6.01297901
   1.12364292  1.34104344  3.56306811
   8.45558971  8.57204001  3.66113411
   8.41284684  1.21723435  5.95334781
   8.72611956  6.02597103  1.21331209
   8.64781439  3.67664291  8.41235810
   1.21820086  6.15185460  8.35112652
   1.51035237  3.76072815  0.98483987
   5.92294188  1.11078392  8.29861783
   6.11814754  8.42044208  1.12395404
   3.91513342  1.26597837  1.25246675
   3.55368710  8.45364490  8.66282677
   6.00288221  6.17648774  3.66121073
   6.12366378  3.54550199  5.83715479
   3.66691029  5.82884426  6.04568159
   3.86352314  3.64946717  3.46837751
   7.21962395  7.28019297  7.15185089
   7.41438446  2.43738985  2.26967042
   2.36287980  7.24465029  2.48848462
   2.53859465  2.40943130  7.21048865
   0.06071842  0.30265681  9.61768698
   0.03322201  5.01785209  4.90656099
   4.53912510  0.00220206  4.69984538
   5.33785107  4.95554949  9.60574971
 


--------------------------------------------------------------------------------------------------------


 k-point   1 :   0.2500 0.2500 0.2500  plane waves:   24282
 k-point   2 :  -0.2500 0.2500 0.2500  plane waves:   24282
 k-point   3 :  -0.2500-0.2500 0.2500  plane waves:   24282
 k-point   4 :   0.2500-0.2500 0.2500  plane waves:   24282

 maximum and minimum number of plane-waves per node :       777      738

 maximum number of plane-waves:     24282
 maximum index in each direction: 
   IXMAX=   18   IYMAX=   18   IZMAX=   17
   IXMIN=  -18   IYMIN=  -18   IZMIN=  -18


 real space projection operators:
  total allocation   :      28313.44 KBytes
  max/ min on nodes  :       1209.33        738.73


 parallel 3D FFT for wavefunctions:
    minimum data exchange during FFTs selected (reduces bandwidth)
 parallel 3D FFT for charge:
    minimum data exchange during FFTs selected (reduces bandwidth)


 total amount of memory used by VASP MPI-rank0    48099. kBytes
=======================================================================

   base      :      30000. kBytes
   nonlr-proj:       6529. kBytes
   fftplans  :       1747. kBytes
   grid      :       5278. kBytes
   one-center:         62. kBytes
   wavefun   :       4483. kBytes
 
     INWAV:  cpu time      0.0001: real time      0.0001
 Broyden mixing: mesh for mixing (old mesh)
   NGX = 35   NGY = 35   NGZ = 35
  (NGX  =144   NGY  =144   NGZ  =144)
  gives a total of  42875 points

 initial charge density was supplied:
 charge density of overlapping atoms calculated
 number of electron     240.0000000 magnetization      52.0000000
 keeping initial charge density in first step


--------------------------------------------------------------------------------------------------------


 Maximum index for non-local projection operator          600
 Maximum index for augmentation-charges          866 (set IRDMAX)


--------------------------------------------------------------------------------------------------------


 First call to EWALD:  gamma=   0.183
 Maximum number of real-space cells 3x 3x 3
 Maximum number of reciprocal cells 3x 3x 3

    FEWALD:  cpu time      0.0030: real time      0.0036


--------------------------------------- Ionic step        1  -------------------------------------------




--------------------------------------- Iteration      1(   1)  ---------------------------------------


    POTLOK:  cpu time      0.0586: real time      0.0687
    SETDIJ:  cpu time      0.4075: real time      0.4160
     EDDAV:  cpu time      2.2918: real time      2.4340
       DOS:  cpu time      0.0014: real time      0.0030
    --------------------------------------------
      LOOP:  cpu time      2.7593: real time      2.9216

 eigenvalue-minimisations  :  3080
 total energy-change (2. order) : 0.1595129E+04  (-0.1134363E+05)
 number of electron     240.0000000 magnetization      52.0000000
 augmentation part      240.0000000 magnetization      52.0000000

 Free energy of the ion-electron system (eV)
  ---------------------------------------------------
  alpha Z        PSCENC =       300.71219615
  Ewald energy   TEWEN  =     -8809.53003871
  -Hartree energ DENC   =     -2114.82138246
  -exchange      EXHF   =         0.00000000
  -V(xc)+E(xc)   XCENC  =       534.20866194
  PAW double counting   =      8141.38806575    -8271.61346273
  entropy T*S    EENTRO =        -0.00909784
  eigenvalues    EBANDS =      -888.34558982
  atomic energy  EATOM  =     12703.13999606
  Solvation  Ediel_sol  =         0.00000000
  ---------------------------------------------------
  free energy    TOTEN  =      1595.12934834 eV

  energy without entropy =     1595.13844618  energy(sigma->0) =     1595.13389726


--------------------------------------------------------------------------------------------------------




--------------------------------------- Iteration      1(   2)  ---------------------------------------


     EDDAV:  cpu time      2.6382: real time      2.6677
       DOS:  cpu time      0.0006: real time      0.0006
    --------------------------------------------
      LOOP:  cpu time      2.6388: real time      2.6683

 eigenvalue-minimisations  :  3792
 total energy-change (2. order) :-0.1649627E+04  (-0.1550814E+04)
 number of electron     240.0000000 magnetization      52.0000000
 augmentation part      240.0000000 magnetization      52.0000000

 Free energy of the ion-electron system (eV)
  ---------------------------------------------------
  alpha Z        PSCENC =       300.71219615
  Ewald energy   TEWEN  =     -8809.53003871
  -Hartree energ DENC   =     -2114.82138246
  -exchange      EXHF   =         0.00000000
  -V(xc)+E(xc)   XCENC  =       534.20866194
  PAW double counting   =      8141.38806575    -8271.61346273
  entropy T*S    EENTRO =        -0.00000000
  eigenvalues    EBANDS =     -2537.98122930
  atomic energy  EATOM  =     12703.13999606
  Solvation  Ediel_sol  =         0.00000000
  ---------------------------------------------------
  free energy    TOTEN  =       -54.49719330 eV

  energy without entropy =      -54.49719330  energy(sigma->0) =      -54.49719330


--------------------------------------------------------------------------------------------------------




--------------------------------------- Iteration      1(   3)  ---------------------------------------


     EDDAV:  cpu time      2.6433: real time      2.6714
       DOS:  cpu time      0.0006: real time      0.0006
    --------------------------------------------
      LOOP:  cpu time      2.6439: real time      2.6720

 eigenvalue-minimisations  :  3784
 total energy-change (2. order) :-0.1738114E+03  (-0.1717217E+03)
 number of electron     240.0000000 magnetization      52.0000000
 augmentation part      240.0000000 magnetization      52.0000000

 Free energy of the ion-electron system (eV)
  ---------------------------------------------------
  alpha Z        PSCENC =       300.71219615
  Ewald energy   TEWEN  =     -8809.53003871
  -Hartree energ DENC   =     -2114.82138246
  -exchange      EXHF   =         0.00000000
  -V(xc)+E(xc)   XCENC  =       534.20866194
  PAW double counting   =      8141.38806575    -8271.61346273
  entropy T*S    EENTRO =        -0.00000000
  eigenvalues    EBANDS =     -2711.79264392
  atomic energy  EATOM  =     12703.13999606
  Solvation  Ediel_sol  =         0.00000000
  ---------------------------------------------------
  free energy    TOTEN  =      -228.30860793 eV

  energy without entropy =     -228.30860793  energy(sigma->0) =     -228.30860793


--------------------------------------------------------------------------------------------------------




--------------------------------------- Iteration      1(   4)  ---------------------------------------


     EDDAV:  cpu time      3.1437: real time      3.1770
       DOS:  cpu time      0.0006: real time      0.0006
    --------------------------------------------
      LOOP:  cpu time      3.1443: real time      3.1776

 eigenvalue-minimisations  :  4736
 total energy-change (2. order) :-0.1355629E+02  (-0.1353160E+02)
 number of electron     240.0000000 magnetization      52.0000000
 augmentation part      240.0000000 magnetization      52.0000000

 Free energy of the ion-electron system (eV)
  ---------------------------------------------------
  alpha Z        PSCENC =       300.71219615
  Ewald energy   TEWEN  =     -8809.53003871
  -Hartree energ DENC   =     -2114.82138246
  -exchange      EXHF   =         0.00000000
  -V(xc)+E(xc)   XCENC  =       534.20866194
  PAW double counting   =      8141.38806575    -8271.61346273
  entropy T*S    EENTRO =        -0.00000000
  eigenvalues    EBANDS =     -2725.34893098
  atomic energy  EATOM  =     12703.13999606
  Solvation  Ediel_sol  =         0.00000000
  ---------------------------------------------------
  free energy    TOTEN  =      -241.86489498 eV

  energy without entropy =     -241.86489498  energy(sigma->0) =     -241.86489498


--------------------------------------------------------------------------------------------------------




--------------------------------------- Iteration      1(   5)  ---------------------------------------


     EDDAV:  cpu time      2.9760: real time      3.0059
       DOS:  cpu time      0.0006: real time      0.0006
    --------------------------------------------
      LOOP:  cpu time      2.9766: real time      3.0064

 eigenvalue-minimisations  :  4456
 total energy-change (2. order) :-0.2380211E+00  (-0.2379086E+00)
 number of electron     240.0000000 magnetization      52.0000000
 augmentation part      240.0000000 magnetization      52.0000000

 Free energy of the ion-electron system (eV)
  ---------------------------------------------------
  alpha Z        PSCENC =       300.71219615
  Ewald energy   TEWEN  =     -8809.53003871
  -Hartree energ DENC   =     -2114.82138246
  -exchange      EXHF   =         0.00000000
  -V(xc)+E(xc)   XCENC  =       534.20866194
  PAW double counting   =      8141.38806575    -8271.61346273
  entropy T*S    EENTRO =        -0.00000000
  eigenvalues    EBANDS =     -2725.58695210
  atomic energy  EATOM  =     12703.13999606
  Solvation  Ediel_sol  =         0.00000000
  ---------------------------------------------------
  free energy    TOTEN  =      -242.10291610 eV

  energy without entropy =     -242.10291610  energy(sigma->0) =     -242.10291610


--------------------------------------------------------------------------------------------------------




--------------------------------------- Iteration      1(   6)  ---------------------------------------


     EDDAV:  cpu time      3.0904: real time      3.1214
       DOS:  cpu time      0.0006: real time      0.0006
    --------------------------------------------
      LOOP:  cpu time      3.0910: real time      3.1220

 eigenvalue-minimisations  :  4648
 total energy-change (2. order) :-0.1212442E-01  (-0.1212303E-01)
 number of electron     240.0000000 magnetization      52.0000000
 augmentation part      240.0000000 magnetization      52.0000000

 Free energy of the ion-electron system (eV)
  ---------------------------------------------------
  alpha Z        PSCENC =       300.71219615
  Ewald energy   TEWEN  =     -8809.53003871
  -Hartree energ DENC   =     -2114.82138246
  -exchange      EXHF   =         0.00000000
  -V(xc)+E(xc)   XCENC  =       534.20866194
  PAW double counting   =      8141.38806575    -8271.61346273
  entropy T*S    EENTRO =        -0.00000000
  eigenvalues    EBANDS =     -2725.59907652
  atomic energy  EATOM  =     12703.13999606
  Solvation  Ediel_sol  =         0.00000000
  ---------------------------------------------------
  free energy    TOTEN  =      -242.11504053 eV

  energy without entropy =     -242.11504053  energy(sigma->0) =     -242.11504053


--------------------------------------------------------------------------------------------------------




--------------------------------------- Iteration      1(   7)  ---------------------------------------


     EDDAV:  cpu time      3.0492: real time      3.0805
       DOS:  cpu time      0.0005: real time      0.0005
    --------------------------------------------
      LOOP:  cpu time      3.0497: real time      3.0810

 eigenvalue-minimisations  :  4584
 total energy-change (2. order) :-0.3896762E-03  (-0.3896484E-03)
 number of electron     240.0000000 magnetization      52.0000000
 augmentation part      240.0000000 magnetization      52.0000000

 Free energy of the ion-electron system (eV)
  ---------------------------------------------------
  alpha Z        PSCENC =       300.71219615
  Ewald energy   TEWEN  =     -8809.53003871
  -Hartree energ DENC   =     -2114.82138246
  -exchange      EXHF   =         0.00000000
  -V(xc)+E(xc)   XCENC  =       534.20866194
  PAW double counting   =      8141.38806575    -8271.61346273
  entropy T*S    EENTRO =        -0.00000000
  eigenvalues    EBANDS =     -2725.59946620
  atomic energy  EATOM  =     12703.13999606
  Solvation  Ediel_sol  =         0.00000000
  ---------------------------------------------------
  free energy    TOTEN  =      -242.11543020 eV

  energy without entropy =     -242.11543020  energy(sigma->0) =     -242.11543020


--------------------------------------------------------------------------------------------------------




--------------------------------------- Iteration      1(   8)  ---------------------------------------


     EDDAV:  cpu time      3.0383: real time      3.0745
       DOS:  cpu time      0.0005: real time      0.0005
    --------------------------------------------
      LOOP:  cpu time      3.0388: real time      3.0750

 eigenvalue-minimisations  :  4544
 total energy-change (2. order) :-0.2276434E-04  (-0.2276377E-04)
 number of electron     240.0000000 magnetization      52.0000000
 augmentation part      240.0000000 magnetization      52.0000000

 Free energy of the ion-electron system (eV)
  ---------------------------------------------------
  alpha Z        PSCENC =       300.71219615
  Ewald energy   TEWEN  =     -8809.53003871
  -Hartree energ DENC   =     -2114.82138246
  -exchange      EXHF   =         0.00000000
  -V(xc)+E(xc)   XCENC  =       534.20866194
  PAW double counting   =      8141.38806575    -8271.61346273
  entropy T*S    EENTRO =        -0.00000000
  eigenvalues    EBANDS =     -2725.59948896
  atomic energy  EATOM  =     12703.13999606
  Solvation  Ediel_sol  =         0.00000000
  ---------------------------------------------------
  free energy    TOTEN  =      -242.11545297 eV

  energy without entropy =     -242.11545297  energy(sigma->0) =     -242.11545297


--------------------------------------------------------------------------------------------------------




--------------------------------------- Iteration      1(   9)  ---------------------------------------


     EDDAV:  cpu time      2.9992: real time      3.0290
       DOS:  cpu time      0.0006: real time      0.0006
    --------------------------------------------
      LOOP:  cpu time      2.9998: real time      3.0296

 eigenvalue-minimisations  :  4488
 total energy-change (2. order) :-0.1476643E-05  (-0.1476757E-05)
 number of electron     240.0000000 magnetization      52.0000000
 augmentation part      240.0000000 magnetization      52.0000000

 Free energy of the ion-electron system (eV)
  ---------------------------------------------------
  alpha Z        PSCENC =       300.71219615
  Ewald energy   TEWEN  =     -8809.53003871
  -Hartree energ DENC   =     -2114.82138246
  -exchange      EXHF   =         0.00000000
  -V(xc)+E(xc)   XCENC  =       534.20866194
  PAW double counting   =      8141.38806575    -8271.61346273
  entropy T*S    EENTRO =        -0.00000000
  eigenvalues    EBANDS =     -2725.59949044
  atomic energy  EATOM  =     12703.13999606
  Solvation  Ediel_sol  =         0.00000000
  ---------------------------------------------------
  free energy    TOTEN  =      -242.11545444 eV

  energy without entropy =     -242.11545444  energy(sigma->0) =     -242.11545444


--------------------------------------------------------------------------------------------------------




--------------------------------------- Iteration      1(  10)  ---------------------------------------


     EDDAV:  cpu time      1.9946: real time      2.0142
       DOS:  cpu time      0.0005: real time      0.0005
    CHARGE:  cpu time      0.0679: real time      0.0744
    MIXING:  cpu time      0.0023: real time      0.0035
    --------------------------------------------
      LOOP:  cpu time      2.0653: real time      2.0927

 eigenvalue-minimisations  :  2648
 total energy-change (2. order) :-0.6351911E-07  (-0.6350297E-07)
 number of electron     240.0000007 magnetization      27.2819432
 augmentation part        1.4875045 magnetization      27.7240151

 Broyden mixing:
  rms(total) = 0.64310E+01    rms(broyden)= 0.64304E+01
  rms(prec ) = 0.66727E+01
  weight for this iteration     100.00

 Free energy of the ion-electron system (eV)
  ---------------------------------------------------
  alpha Z        PSCENC =       300.71219615
  Ewald energy   TEWEN  =     -8809.53003871
  -Hartree energ DENC   =     -2114.82138246
  -exchange      EXHF   =         0.00000000
  -V(xc)+E(xc)   XCENC  =       534.20866194
  PAW double counting   =      8141.38806575    -8271.61346273
  entropy T*S    EENTRO =        -0.00000000
  eigenvalues    EBANDS =     -2725.59949050
  atomic energy  EATOM  =     12703.13999606
  Solvation  Ediel_sol  =         0.00000000
  ---------------------------------------------------
  free energy    TOTEN  =      -242.11545451 eV

  energy without entropy =     -242.11545451  energy(sigma->0) =     -242.11545451


--------------------------------------------------------------------------------------------------------




--------------------------------------- Iteration      1(  11)  ---------------------------------------


    POTLOK:  cpu time      0.0538: real time      0.0547
    SETDIJ:  cpu time      0.3960: real time      0.3986
    EDDIAG:  cpu time      0.3638: real time      0.3681
  RMM-DIIS:  cpu time      1.1608: real time      1.1738
    ORTHCH:  cpu time      0.0671: real time      0.0676
       DOS:  cpu time      0.0005: real time      0.0005
    CHARGE:  cpu time      0.0648: real time      0.0667
    MIXING:  cpu time      0.0012: real time      0.0027
    --------------------------------------------
      LOOP:  cpu time      2.1080: real time      2.1328

 eigenvalue-minimisations  :  2816
 total energy-change (2. order) : 0.5814373E+01  (-0.4707124E+01)
 number of electron     240.0000007 magnetization      16.3380250
 augmentation part        1.6986473 magnetization      16.5214055

 Broyden mixing:
  rms(total) = 0.33067E+01    rms(broyden)= 0.33065E+01
  rms(prec ) = 0.34240E+01
  weight for this iteration     100.00

 eigenvalues of (default mixing * dielectric matrix)
  average eigenvalue GAMMA=   0.7256
  0.7256

 Free energy of the ion-electron system (eV)
  ---------------------------------------------------
  alpha Z        PSCENC =       300.71219615
  Ewald energy   TEWEN  =     -8809.53003871
  -Hartree energ DENC   =     -2163.52765077
  -exchange      EXHF   =         0.00000000
  -V(xc)+E(xc)   XCENC  =       542.48194211
  PAW double counting   =      8928.61282206    -9064.89886504
  entropy T*S    EENTRO =        -0.00000000
  eigenvalues    EBANDS =     -2673.29148356
  atomic energy  EATOM  =     12703.13999606
  Solvation  Ediel_sol  =         0.00000000
  ---------------------------------------------------
  free energy    TOTEN  =      -236.30108170 eV

  energy without entropy =     -236.30108170  energy(sigma->0) =     -236.30108170


--------------------------------------------------------------------------------------------------------




--------------------------------------- Iteration      1(  12)  ---------------------------------------


    POTLOK:  cpu time      0.0529: real time      0.0539
    SETDIJ:  cpu time      0.4058: real time      0.4077
    EDDIAG:  cpu time      0.3549: real time      0.3576
  RMM-DIIS:  cpu time      1.2245: real time      1.2383
    ORTHCH:  cpu time      0.0677: real time      0.0686
       DOS:  cpu time      0.0005: real time      0.0005
    CHARGE:  cpu time      0.0651: real time      0.0668
    MIXING:  cpu time      0.0012: real time      0.0012
    --------------------------------------------
      LOOP:  cpu time      2.1727: real time      2.1946

 eigenvalue-minimisations  :  2953
 total energy-change (2. order) :-0.1970542E+02  (-0.2153187E+01)
 number of electron     240.0000007 magnetization       0.5198215
 augmentation part        1.7990532 magnetization       0.8601070

 Broyden mixing:
  rms(total) = 0.20245E+01    rms(broyden)= 0.20245E+01
  rms(prec ) = 0.20869E+01
  weight for this iteration     100.00

 eigenvalues of (default mixing * dielectric matrix)
  average eigenvalue GAMMA=   1.1574
  1.6439  0.6710

 Free energy of the ion-electron system (eV)
  ---------------------------------------------------
  alpha Z        PSCENC =       300.71219615
  Ewald energy   TEWEN  =     -8809.53003871
  -Hartree energ DENC   =     -2188.05984833
  -exchange      EXHF   =         0.00000000
  -V(xc)+E(xc)   XCENC  =       536.16558018
  PAW double counting   =      9282.89755579    -9422.77537515
  entropy T*S    EENTRO =        -0.00000000
  eigenvalues    EBANDS =     -2658.55656840
  atomic energy  EATOM  =     12703.13999606
  Solvation  Ediel_sol  =         0.00000000
  ---------------------------------------------------
  free energy    TOTEN  =      -256.00650241 eV

  energy without entropy =     -256.00650241  energy(sigma->0) =     -256.00650241


--------------------------------------------------------------------------------------------------------




--------------------------------------- Iteration      1(  13)  ---------------------------------------


    POTLOK:  cpu time      0.0542: real time      0.0551
    SETDIJ:  cpu time      0.4058: real time      0.4074
    EDDIAG:  cpu time      0.3559: real time      0.3587
  RMM-DIIS:  cpu time      1.2160: real time      1.2292
    ORTHCH:  cpu time      0.0675: real time      0.0680
       DOS:  cpu time      0.0005: real time      0.0005
    CHARGE:  cpu time      0.0650: real time      0.0665
    MIXING:  cpu time      0.0012: real time      0.0012
    --------------------------------------------
      LOOP:  cpu time      2.1661: real time      2.1866

 eigenvalue-minimisations  :  2910
 total energy-change (2. order) :-0.2472002E+01  (-0.9175820E+00)
 number of electron     240.0000007 magnetization      -1.8254174
 augmentation part        1.9004753 magnetization      -1.7219394

 Broyden mixing:
  rms(total) = 0.66734E+00    rms(broyden)= 0.66734E+00
  rms(prec ) = 0.70045E+00
  weight for this iteration     100.00

 eigenvalues of (default mixing * dielectric matrix)
  average eigenvalue GAMMA=   1.3013
  2.5024  0.7482  0.6531

 Free energy of the ion-electron system (eV)
  ---------------------------------------------------
  alpha Z        PSCENC =       300.71219615
  Ewald energy   TEWEN  =     -8809.53003871
  -Hartree energ DENC   =     -2216.28789479
  -exchange      EXHF   =         0.00000000
  -V(xc)+E(xc)   XCENC  =       537.73479850
  PAW double counting   =      9785.47141846    -9929.30405908
  entropy T*S    EENTRO =        -0.00000000
  eigenvalues    EBANDS =     -2630.41492138
  atomic energy  EATOM  =     12703.13999606
  Solvation  Ediel_sol  =         0.00000000
  ---------------------------------------------------
  free energy    TOTEN  =      -258.47850480 eV

  energy without entropy =     -258.47850480  energy(sigma->0) =     -258.47850480


--------------------------------------------------------------------------------------------------------




--------------------------------------- Iteration      1(  14)  ---------------------------------------


    POTLOK:  cpu time      0.0529: real time      0.0539
    SETDIJ:  cpu time      0.4044: real time      0.4065
    EDDIAG:  cpu time      0.3545: real time      0.3570
  RMM-DIIS:  cpu time      1.5695: real time      1.5865
    ORTHCH:  cpu time      0.0667: real time      0.0672
       DOS:  cpu time      0.0007: real time      0.0007
    CHARGE:  cpu time      0.0644: real time      0.0661
    MIXING:  cpu time      0.0011: real time      0.0011
    --------------------------------------------
      LOOP:  cpu time      2.5141: real time      2.5390

 eigenvalue-minimisations  :  3777
 total energy-change (2. order) :-0.2022816E+00  (-0.1999979E+00)
 number of electron     240.0000007 magnetization      -0.8304618
 augmentation part        1.8711170 magnetization      -0.8030814

 Broyden mixing:
  rms(total) = 0.32394E+00    rms(broyden)= 0.32394E+00
  rms(prec ) = 0.35953E+00
  weight for this iteration     100.00

 eigenvalues of (default mixing * dielectric matrix)
  average eigenvalue GAMMA=   1.2663
  2.6106  1.1734  0.6899  0.5913

 Free energy of the ion-electron system (eV)
  ---------------------------------------------------
  alpha Z        PSCENC =       300.71219615
  Ewald energy   TEWEN  =     -8809.53003871
  -Hartree energ DENC   =     -2217.77181981
  -exchange      EXHF   =         0.00000000
  -V(xc)+E(xc)   XCENC  =       538.17808895
  PAW double counting   =      9860.21513644   -10004.83172903
  entropy T*S    EENTRO =        -0.00000000
  eigenvalues    EBANDS =     -2628.79261648
  atomic energy  EATOM  =     12703.13999606
  Solvation  Ediel_sol  =         0.00000000
  ---------------------------------------------------
  free energy    TOTEN  =      -258.68078643 eV

  energy without entropy =     -258.68078643  energy(sigma->0) =     -258.68078643


--------------------------------------------------------------------------------------------------------




--------------------------------------- Iteration      1(  15)  ---------------------------------------


    POTLOK:  cpu time      0.0521: real time      0.0532
    SETDIJ:  cpu time      0.4050: real time      0.4065
    EDDIAG:  cpu time      0.3562: real time      0.3590
  RMM-DIIS:  cpu time      1.2800: real time      1.2934
    ORTHCH:  cpu time      0.0672: real time      0.0688
       DOS:  cpu time      0.0005: real time      0.0006
    CHARGE:  cpu time      0.0654: real time      0.0664
    MIXING:  cpu time      0.0012: real time      0.0012
    --------------------------------------------
      LOOP:  cpu time      2.2277: real time      2.2491

 eigenvalue-minimisations  :  3055
 total energy-change (2. order) : 0.2960303E-01  (-0.3348700E-01)
 number of electron     240.0000007 magnetization      -0.2180051
 augmentation part        1.8228510 magnetization      -0.1911365

 Broyden mixing:
  rms(total) = 0.70143E-01    rms(broyden)= 0.70140E-01
  rms(prec ) = 0.83165E-01
  weight for this iteration     100.00

 eigenvalues of (default mixing * dielectric matrix)
  average eigenvalue GAMMA=   1.2736
  2.5355  1.5973  0.9494  0.6850  0.6006

 Free energy of the ion-electron system (eV)
  ---------------------------------------------------
  alpha Z        PSCENC =       300.71219615
  Ewald energy   TEWEN  =     -8809.53003871
  -Hartree energ DENC   =     -2213.25962350
  -exchange      EXHF   =         0.00000000
  -V(xc)+E(xc)   XCENC  =       537.83064410
  PAW double counting   =      9831.25071190    -9975.68199209
  entropy T*S    EENTRO =        -0.00000000
  eigenvalues    EBANDS =     -2633.11307731
  atomic energy  EATOM  =     12703.13999606
  Solvation  Ediel_sol  =         0.00000000
  ---------------------------------------------------
  free energy    TOTEN  =      -258.65118340 eV

  energy without entropy =     -258.65118340  energy(sigma->0) =     -258.65118340


--------------------------------------------------------------------------------------------------------




--------------------------------------- Iteration      1(  16)  ---------------------------------------


    POTLOK:  cpu time      0.0526: real time      0.0536
    SETDIJ:  cpu time      0.4064: real time      0.4076
    EDDIAG:  cpu time      0.3551: real time      0.3579
  RMM-DIIS:  cpu time      1.2832: real time      1.2980
    ORTHCH:  cpu time      0.0668: real time      0.0672
       DOS:  cpu time      0.0005: real time      0.0005
    CHARGE:  cpu time      0.0646: real time      0.0653
    MIXING:  cpu time      0.0012: real time      0.0013
    --------------------------------------------
      LOOP:  cpu time      2.2304: real time      2.2514

 eigenvalue-minimisations  :  3066
 total energy-change (2. order) :-0.1940540E-01  (-0.1090490E-01)
 number of electron     240.0000007 magnetization      -0.1051680
 augmentation part        1.8005065 magnetization      -0.0905462

 Broyden mixing:
  rms(total) = 0.31219E-01    rms(broyden)= 0.31217E-01
  rms(prec ) = 0.37775E-01
  weight for this iteration     100.00

 eigenvalues of (default mixing * dielectric matrix)
  average eigenvalue GAMMA=   1.2508
  2.4522  1.9544  1.0367  0.6202  0.6989  0.7425

 Free energy of the ion-electron system (eV)
  ---------------------------------------------------
  alpha Z        PSCENC =       300.71219615
  Ewald energy   TEWEN  =     -8809.53003871
  -Hartree energ DENC   =     -2212.66274716
  -exchange      EXHF   =         0.00000000
  -V(xc)+E(xc)   XCENC  =       537.74894374
  PAW double counting   =      9819.69117047    -9963.89725282
  entropy T*S    EENTRO =        -0.00000000
  eigenvalues    EBANDS =     -2633.87285652
  atomic energy  EATOM  =     12703.13999606
[...]
  0.004  -0.003  -0.000  -0.001   0.004  -0.001  -0.000   0.000  -0.000  -0.000  -0.000   0.000   0.000   0.000
 -0.002   0.001   0.000   0.001  -0.001   0.007   0.000  -0.000   0.000   0.000  -0.000   0.000   0.000  -0.000
  0.013  -0.013  -0.000   0.006  -0.005   0.006   0.000  -0.000   0.000   0.000  -0.000  -0.000  -0.000  -0.000
 -0.011   0.011   0.000  -0.003  -0.004  -0.005  -0.000  -0.000  -0.000  -0.000   0.000  -0.000  -0.000  -0.000
 -0.016   0.016   0.000  -0.005   0.003   0.004  -0.000   0.000   0.000  -0.000  -0.000   0.000   0.000  -0.000
 -0.014   0.014   0.000  -0.005   0.004   0.005  -0.000   0.000   0.000  -0.000  -0.000   0.000   0.000  -0.000
  0.025  -0.025  -0.000   0.002   0.003  -0.009   0.000   0.000  -0.000  -0.000  -0.000  -0.000  -0.000   0.000
 total augmentation occupancy for first ion, spin component:           2
 -0.000   0.000  -0.000   0.000   0.000   0.000   0.000   0.000   0.000  -0.000   0.000   0.000   0.000  -0.000
  0.000  -0.000  -0.000   0.000   0.000  -0.000  -0.000  -0.000  -0.000   0.000  -0.000  -0.000  -0.000   0.000
 -0.000  -0.000  -0.000  -0.000  -0.000  -0.000  -0.000  -0.000  -0.000   0.000   0.000  -0.000   0.000   0.000
  0.000   0.000  -0.000  -0.000  -0.000   0.000  -0.000  -0.000  -0.000  -0.000  -0.000   0.000   0.000  -0.000
  0.000   0.000  -0.000  -0.000   0.000   0.000  -0.000   0.000  -0.000  -0.000  -0.000   0.000   0.000  -0.000
  0.000  -0.000  -0.000   0.000   0.000  -0.000  -0.000  -0.000  -0.000  -0.000  -0.000  -0.000  -0.000   0.000
  0.000  -0.000  -0.000  -0.000  -0.000  -0.000  -0.000  -0.000  -0.000  -0.000   0.000  -0.000  -0.000   0.000
  0.000  -0.000  -0.000  -0.000   0.000  -0.000  -0.000   0.000  -0.000  -0.000  -0.000   0.000   0.000   0.000
  0.000  -0.000  -0.000  -0.000  -0.000  -0.000  -0.000  -0.000  -0.000  -0.000   0.000  -0.000  -0.000   0.000
 -0.000   0.000   0.000  -0.000  -0.000  -0.000  -0.000  -0.000  -0.000  -0.000   0.000  -0.000  -0.000   0.000
  0.000  -0.000   0.000  -0.000  -0.000  -0.000   0.000  -0.000   0.000   0.000   0.000  -0.000  -0.000  -0.000
  0.000  -0.000  -0.000   0.000   0.000  -0.000  -0.000   0.000  -0.000  -0.000  -0.000  -0.000  -0.000   0.000
  0.000  -0.000   0.000   0.000   0.000  -0.000  -0.000   0.000  -0.000  -0.000  -0.000  -0.000  -0.000   0.000
 -0.000   0.000   0.000  -0.000  -0.000   0.000   0.000   0.000   0.000   0.000  -0.000   0.000   0.000  -0.000


------------------------ aborting loop because EDIFF is reached ----------------------------------------


    CHARGE:  cpu time      0.0649: real time      0.0659
    FORLOC:  cpu time      0.0038: real time      0.0038
    FORNL :  cpu time      0.3960: real time      0.3990
    STRESS:  cpu time      1.1840: real time      1.1931
    FORCOR:  cpu time      0.0494: real time      0.0499
    FORHAR:  cpu time      0.0084: real time      0.0084
    MIXING:  cpu time      0.0007: real time      0.0007
    OFIELD:  cpu time      0.0000: real time      0.0000

 ---------------------------------------------------------------------------------------------

         DFTD3 V3.0 Rev 1        
 Edisp (eV)  -13.55006

 E6    (eV) :    -8.3514
 E8    (eV) :    -5.1986
 % E8        : 38.37
    FORVDW:  cpu time      0.2911: real time      0.2933

  FORCE on cell =-STRESS in cart. coord.  units (eV):
  Direction    XX          YY          ZZ          XY          YZ          ZX
  --------------------------------------------------------------------------------------
  Alpha Z   300.71220   300.71220   300.71220
  Ewald   -2999.10427 -2914.46191 -2895.95465    -8.39530   -18.72975    29.48409
  Hartree   704.87600   749.11189   761.34783    -6.82062    -8.00231     7.21992
  E(xc)    -947.88429  -947.72600  -947.69629     0.02113    -0.04686     0.06141
  Local   -1418.36064 -1540.10588 -1570.55256    14.75899    24.83042   -33.86884
  n-local  1481.88570  1481.29568  1481.48935    -0.22462    -0.27858     0.64554
  augment  -357.26632  -356.77750  -356.72588    -0.00660    -0.14407    -0.03356
  Kinetic  3250.34192  3242.01448  3241.10908     0.70239     2.73134    -1.48309
  Fock        0.00000     0.00000     0.00000     0.00000     0.00000     0.00000
  vdW       -14.35682   -14.33838   -14.33505     0.01154     0.00710    -0.01010
  -------------------------------------------------------------------------------------
  Total       0.84346    -0.27543    -0.60598     0.04691     0.36727     2.01536
  in kB       1.49701    -0.48885    -1.07551     0.08326     0.65185     3.57695
  external pressure =       -0.02 kB  Pullay stress =        0.00 kB


 VOLUME and BASIS-vectors are now :
 -----------------------------------------------------------------------------
  energy-cutoff  :      520.00
  volume of cell :      902.72
      direct lattice vectors                 reciprocal lattice vectors
     9.664593742  0.000000000  0.000000000     0.103470464  0.000000000  0.000000000
     0.000000000  9.664593742  0.000000000     0.000000000  0.103470464  0.000000000
     0.000000000  0.000000000  9.664593742     0.000000000  0.000000000  0.103470464

  length of vectors
     9.664593742  9.664593742  9.664593742     0.103470464  0.103470464  0.103470464


 FORCES acting on ions
    electron-ion (+dipol)            ewald-force                    non-local-force                 convergence-correction
 -----------------------------------------------------------------------------------------------
   -.376E+01 0.715E-01 -.312E+01   0.301E+01 0.972E+00 0.413E+01   0.742E+00 -.104E+01 -.101E+01   0.111E-03 -.265E-04 -.275E-04
   -.114E+01 -.217E+01 0.893E+00   0.742E+00 0.323E+01 0.231E+00   0.398E+00 -.107E+01 -.113E+01   -.357E-04 0.129E-04 -.116E-04
   0.684E+00 0.419E+01 0.422E+00   -.704E-01 -.322E+01 -.163E+01   -.612E+00 -.971E+00 0.121E+01   -.732E-04 -.327E-04 -.340E-05
   0.548E+01 0.547E+01 -.150E+01   -.493E+01 -.399E+01 0.568E+00   -.547E+00 -.148E+01 0.931E+00   -.946E-05 -.741E-05 0.199E-04
   -.115E+01 0.418E+01 -.364E+01   0.238E+01 -.280E+01 0.287E+01   -.123E+01 -.139E+01 0.773E+00   0.867E-04 0.439E-04 0.373E-04
   0.889E+01 -.654E+01 0.463E+00   -.762E+01 0.550E+01 0.181E+00   -.127E+01 0.103E+01 -.642E+00   0.697E-04 0.228E-04 -.167E-04
   0.927E+01 0.220E+01 0.506E+01   -.818E+01 -.300E+01 -.403E+01   -.109E+01 0.801E+00 -.102E+01   -.350E-04 -.750E-04 -.574E-04
   -.647E+01 -.783E+01 -.636E+00   0.712E+01 0.860E+01 -.975E-01   -.653E+00 -.773E+00 0.733E+00   0.900E-05 -.521E-04 -.797E-04
   0.168E+01 0.253E+01 0.875E+01   -.228E+01 -.323E+01 -.956E+01   0.612E+00 0.701E+00 0.806E+00   0.590E-05 0.124E-03 -.681E-04
   -.493E+01 0.871E+01 0.762E+01   0.399E+01 -.770E+01 -.676E+01   0.941E+00 -.101E+01 -.855E+00   0.510E-03 0.208E-03 0.216E-03
   -.793E+01 0.347E+01 -.866E+01   0.646E+01 -.437E+01 0.730E+01   0.147E+01 0.901E+00 0.135E+01   -.253E-04 0.860E-04 -.789E-04
   -.268E+01 0.937E+01 0.501E+01   0.153E+01 -.889E+01 -.379E+01   0.115E+01 -.477E+00 -.122E+01   -.198E-04 0.124E-03 0.508E-04
   -.629E+01 0.429E+01 -.767E+01   0.517E+01 -.511E+01 0.673E+01   0.112E+01 0.814E+00 0.938E+00   0.309E-04 0.920E-05 0.497E-05
   -.960E-01 -.555E+01 0.411E+00   -.902E+00 0.644E+01 0.433E+00   0.101E+01 -.895E+00 -.843E+00   0.551E-04 0.984E-04 -.453E-04
   0.100E+02 -.129E+02 0.826E-01   -.869E+01 0.116E+02 0.634E+00   -.136E+01 0.131E+01 -.713E+00   -.231E-04 0.407E-04 0.562E-04
   -.702E+01 -.922E+01 0.202E+01   0.595E+01 0.798E+01 -.287E+01   0.107E+01 0.123E+01 0.849E+00   -.480E-04 -.420E-04 0.122E-03
   0.198E+01 0.280E+01 0.490E+01   -.674E+00 -.350E+01 -.403E+01   -.130E+01 0.694E+00 -.864E+00   0.380E-04 -.289E-04 0.658E-04
   0.845E+01 0.696E+01 -.628E+01   -.679E+01 -.626E+01 0.474E+01   -.166E+01 -.693E+00 0.154E+01   0.734E-04 -.838E-04 -.101E-03
   0.287E+01 -.166E+01 -.687E+01   -.181E+01 0.824E+00 0.757E+01   -.107E+01 0.837E+00 -.703E+00   -.479E-04 -.106E-03 0.150E-04
   -.170E+01 0.196E+01 0.581E+01   0.436E+00 -.135E+01 -.494E+01   0.126E+01 -.606E+00 -.871E+00   0.558E-06 -.960E-04 -.610E-04
   0.105E+01 -.898E+01 -.150E+02   -.249E+01 0.778E+01 0.137E+02   0.143E+01 0.121E+01 0.121E+01   -.653E-04 -.102E-04 -.555E-04
   0.943E+01 0.903E+01 0.102E+02   -.105E+02 -.799E+01 -.876E+01   0.108E+01 -.104E+01 -.144E+01   -.810E-04 0.341E-05 -.341E-04
   -.107E+02 0.955E+01 -.100E+02   0.117E+02 -.841E+01 0.856E+01   -.966E+00 -.114E+01 0.148E+01   0.153E-04 -.130E-04 -.504E-04
   0.117E+02 0.721E+00 -.925E+00   -.112E+02 -.193E-01 -.248E+00   -.519E+00 -.703E+00 0.118E+01   -.129E-04 0.301E-05 -.552E-04
   -.260E+01 -.574E+01 -.128E+01   0.284E+01 0.554E+01 0.107E+01   -.245E+00 0.204E+00 0.211E+00   0.487E-04 -.772E-04 0.833E-04
   -.486E+01 0.323E+01 -.247E+01   0.447E+01 -.342E+01 0.270E+01   0.391E+00 0.190E+00 -.242E+00   -.827E-04 0.164E-03 -.131E-03
   -.890E+01 -.542E+01 -.408E+01   0.946E+01 0.555E+01 0.388E+01   -.556E+00 -.120E+00 0.206E+00   0.934E-04 -.111E-03 -.605E-04
   0.275E+01 0.828E+00 0.352E+01   -.293E+01 -.104E+01 -.310E+01   0.170E+00 0.210E+00 -.415E+00   0.189E-04 0.163E-03 0.674E-04
   -.437E+02 0.307E+02 -.597E+02   0.467E+02 -.325E+02 0.640E+02   -.303E+01 0.185E+01 -.436E+01   -.409E-03 0.895E-04 -.646E-04
   -.204E+02 -.504E+02 0.386E+02   0.231E+02 0.541E+02 -.416E+02   -.271E+01 -.368E+01 0.307E+01   -.406E-04 -.111E-03 0.651E-05
   0.493E+02 0.360E+02 0.380E+02   -.527E+02 -.390E+02 -.406E+02   0.344E+01 0.304E+01 0.266E+01   -.121E-03 0.597E-04 0.989E-04
   0.644E+02 -.322E+02 -.264E+02   -.684E+02 0.347E+02 0.283E+02   0.393E+01 -.255E+01 -.193E+01   -.897E-04 0.606E-04 -.129E-04
   0.181E+02 -.482E+02 -.476E+02   -.207E+02 0.519E+02 0.508E+02   0.260E+01 -.365E+01 -.323E+01   0.548E-04 -.165E-03 -.793E-04
   0.376E+02 0.388E+02 0.388E+02   -.406E+02 -.421E+02 -.422E+02   0.298E+01 0.331E+01 0.339E+01   0.220E-04 -.424E-04 -.475E-04
   -.567E+02 -.477E+02 0.226E+02   0.601E+02 0.510E+02 -.250E+02   -.335E+01 -.321E+01 0.240E+01   0.164E-03 -.117E-03 0.671E-04
   -.719E+02 0.114E+02 -.296E+02   0.764E+02 -.136E+02 0.321E+02   -.451E+01 0.215E+01 -.256E+01   0.766E-04 -.739E-04 -.213E-04
   -.361E+02 -.332E+02 0.567E+02   0.385E+02 0.352E+02 -.610E+02   -.236E+01 -.203E+01 0.426E+01   -.223E-03 0.601E-05 -.188E-03
   -.377E+02 0.314E+02 -.498E+02   0.404E+02 -.341E+02 0.534E+02   -.270E+01 0.270E+01 -.361E+01   -.285E-03 0.249E-03 0.286E-04
   0.240E+02 -.570E+02 -.316E+02   -.258E+02 0.612E+02 0.342E+02   0.184E+01 -.420E+01 -.257E+01   -.523E-04 0.860E-05 0.146E-04
   0.564E+02 0.532E+02 0.306E+02   -.601E+02 -.562E+02 -.328E+02   0.365E+01 0.291E+01 0.215E+01   0.202E-03 0.193E-03 0.483E-04
   -.435E+02 -.521E+02 0.260E+02   0.464E+02 0.559E+02 -.284E+02   -.286E+01 -.381E+01 0.238E+01   -.924E-04 -.199E-03 0.219E-03
   -.332E+02 0.602E+02 -.312E+02   0.354E+02 -.645E+02 0.332E+02   -.229E+01 0.426E+01 -.205E+01   -.478E-05 -.105E-03 0.161E-03
   0.402E+02 -.338E+02 -.467E+02   -.437E+02 0.361E+02 0.501E+02   0.349E+01 -.228E+01 -.348E+01   0.124E-03 -.169E-03 0.123E-03
   0.321E+02 0.257E+02 0.608E+02   -.340E+02 -.281E+02 -.650E+02   0.195E+01 0.240E+01 0.416E+01   -.486E-04 -.161E-03 0.473E-04
   0.524E+01 -.169E+02 0.928E+01   -.544E+01 0.172E+02 -.961E+01   0.205E+00 -.284E+00 0.333E+00   -.687E-04 0.825E-04 -.146E-03
   0.713E+01 0.213E+01 -.149E+02   -.731E+01 -.221E+01 0.152E+02   0.179E+00 0.778E-01 -.279E+00   -.208E-03 -.962E-04 0.441E-04
   -.280E+01 0.467E+01 0.222E+02   0.292E+01 -.469E+01 -.228E+02   -.131E+00 0.123E-01 0.505E+00   0.531E-04 0.278E-04 -.175E-03
   -.111E+01 -.116E+02 -.320E+01   0.118E+01 0.117E+02 0.324E+01   -.602E-01 -.173E+00 -.396E-01   0.325E-03 0.208E-03 0.140E-03
   -.110E+01 0.397E+02 0.215E+01   0.121E+01 -.404E+02 -.221E+01   -.104E+00 0.675E+00 0.614E-01   0.423E-04 0.249E-04 -.117E-03
   0.323E+00 0.166E+02 0.205E+02   -.332E+00 -.169E+02 -.209E+02   0.955E-02 0.354E+00 0.313E+00   -.303E-03 -.212E-03 0.289E-03
   -.457E+02 0.717E+01 -.677E+01   0.464E+02 -.728E+01 0.672E+01   -.699E+00 0.114E+00 0.484E-01   0.312E-03 -.799E-05 0.369E-05
   0.548E+02 0.169E+02 -.484E+01   -.558E+02 -.172E+02 0.512E+01   0.991E+00 0.287E+00 -.280E+00   -.182E-03 -.189E-03 -.239E-03
 -----------------------------------------------------------------------------------------------
   -.231E+00 0.500E+01 -.279E+01   -.497E-13 0.391E-13 0.702E-13   0.227E+00 -.499E+01 0.279E+01   -.144E-03 -.296E-03 0.209E-05
 
 
 POSITION                                       TOTAL-FORCE (eV/Angst)
 -----------------------------------------------------------------------------------
      9.59829      2.18080      1.65776         0.000079      0.000019      0.000029
      9.46491      7.00360      6.58529        -0.000034      0.000014     -0.000044
      0.33710      1.81930      7.56243        -0.000069      0.000110      0.000077
      0.19156      6.81025      3.20244         0.000019      0.000015      0.000008
      2.21587      1.83224      9.41479         0.000003     -0.000073     -0.000029
      1.51139      7.91767      0.36803        -0.000050     -0.000038      0.000048
      6.78118      2.84247      0.07695        -0.000113     -0.000078     -0.000018
      7.11150      6.72952      9.36897        -0.000010     -0.000094      0.000023
      2.81976      9.48555      2.76610        -0.000014     -0.000034      0.000057
      3.76676      0.42856      6.93492        -0.000759     -0.000372     -0.000088
      7.87593      9.40180      7.85967        -0.000002     -0.000031      0.000087
      7.89269      0.19349      1.73499         0.000066      0.000047     -0.000050
      3.02956      7.66059      4.67820         0.000147     -0.000000     -0.000001
      2.86409      2.08213      4.97129         0.000154      0.000078     -0.000025
      6.52958      8.15924      5.08667         0.000055      0.000123      0.000052
      8.19621      3.06217      4.39746         0.000071     -0.000025      0.000004
      1.72101      4.49988      6.62605         0.000008      0.000029     -0.000018
      2.01689      4.98091      2.95811        -0.000061     -0.000012      0.000060
      6.91178      4.67648      2.04546        -0.000009      0.000046     -0.000019
      7.70126      5.06487      6.67276        -0.000022     -0.000022      0.000031
      4.56811      3.38380      7.78628         0.000044     -0.000190     -0.000058
      4.46524      6.59555      1.71569         0.000021     -0.000065     -0.000004
      5.41236      1.75024      3.18129         0.000074      0.000077      0.000010
      5.01327      6.72684      7.76642        -0.000024     -0.000047      0.000032
      4.93271      4.82486      4.76510        -0.000101     -0.000303      0.000180
      4.89399      9.62706      0.01400        -0.000256      0.000191     -0.000290
      0.17914      4.88685      9.57303        -0.000011     -0.000155     -0.000124
      0.02143      0.10359      4.79127         0.000069      0.000241      0.000129
      1.28129      8.72187      6.01291         0.000223     -0.000184      0.000113
      1.12368      1.34108      3.56316         0.000135      0.000164     -0.000083
      8.45569      8.57211      3.66115        -0.000080     -0.000023     -0.000079
      8.41290      1.21716      5.95336        -0.000073      0.000033      0.000050
      8.72618      6.02597      1.21329        -0.000063      0.000149      0.000179
      8.64779      3.67672      8.41245        -0.000142     -0.000091     -0.000068
      1.21811      6.15185      8.35110         0.000103      0.000161     -0.000132
      1.51038      3.76078      0.98477         0.000133     -0.000007      0.000056
      5.92284      1.11067      8.29856         0.000089      0.000130     -0.000111
      6.11819      8.42044      1.12387         0.000185     -0.000083      0.000153
      3.91520      1.26598      1.25243         0.000061      0.000051      0.000077
      3.55371      8.45360      8.66297        -0.000175     -0.000214      0.000046
      6.00291      6.17656      3.66127         0.000185      0.000334     -0.000187
      6.12364      3.54555      5.83706         0.000154     -0.000163      0.000058
      3.66696      5.82879      6.04564        -0.000100      0.000087      0.000026
      3.86362      3.64958      3.46831         0.000033      0.000094     -0.000137
      7.21961      7.28017      7.15187         0.000003      0.000041     -0.000032
      7.41446      2.43743      2.26965         0.000060      0.000023      0.000011
      2.36290      7.24465      2.48853         0.000017     -0.000030      0.000009
      2.53853      2.40942      7.21046        -0.000096      0.000004     -0.000028
      0.06075      0.30266      9.61770         0.000035      0.000033      0.000040
      0.03326      5.01785      4.90651         0.000025     -0.000024     -0.000046
      4.53914      0.00229      4.69987         0.000015      0.000096      0.000009
      5.33781      4.95550      9.60576        -0.000003     -0.000034      0.000018
 -----------------------------------------------------------------------------------
    total drift:                               -0.004850      0.005468     -0.003929


--------------------------------------------------------------------------------------------------------



  FREE ENERGIE OF THE ION-ELECTRON SYSTEM (eV)
  ---------------------------------------------------
  free  energy   TOTEN  =      -272.22854692 eV

  energy  without entropy=     -272.22854692  energy(sigma->0) =     -272.22854692
 
 d Force = 0.3192480E-06[ 0.226E-06, 0.413E-06]  d Energy = 0.8451814E-06-0.526E-06
 d Force = 0.1073498E-01[ 0.107E-01, 0.107E-01]  d Ewald  = 0.1073498E-01-0.455E-10


--------------------------------------------------------------------------------------------------------


    POTLOK:  cpu time      0.4503: real time      0.4519


--------------------------------------------------------------------------------------------------------


 stress matrix after NEB project (eV)
      0.84346      0.04691      2.01536
      0.04691     -0.27543      0.36727
      2.01536      0.36727     -0.60598
  FORCES: max atom, RMS     0.000850    0.000208
  FORCE total and by dimension    0.001503    0.000759
  Stress total and by dimension    3.090641    2.015364
 Conjugate gradient step on ions:
 trial-energy change:   -0.000001  1 .order   -0.000000   -0.000000   -0.000000
  (g-gl).g = 0.515E-06      g.g   = 0.379E-06  gl.gl    = 0.469E-06
 g(Force)  = 0.379E-06   g(Stress)= 0.000E+00 ortho     =-0.509E-07
 gamma     =   1.09930
 trial     =   1.27633
 opt step  =   2.82262  (harmonic =   2.82262) maximal distance =0.00007638
 next E    =  -272.228547   (d E  =  -0.00000)


--------------------------------------------------------------------------------------------------------


  
 reached required accuracy - stopping structural energy minimisation
     LOOP+:  cpu time      7.3476: real time      7.4290
    4ORBIT:  cpu time      0.0000: real time      0.0000

 total amount of memory used by VASP MPI-rank0    48099. kBytes
=======================================================================

   base      :      30000. kBytes
   nonlr-proj:       6529. kBytes
   fftplans  :       1747. kBytes
   grid      :       5278. kBytes
   one-center:         62. kBytes
   wavefun   :       4483. kBytes
 
  
  
 General timing and accounting informations for this job:
 ========================================================
  
                  Total CPU time used (sec):      122.705
                            User time (sec):      121.376
                          System time (sec):        1.328
                         Elapsed time (sec):      126.872
  
                   Maximum memory used (kb):      383832.
                   Average memory used (kb):          N/A
  
                          Minor page faults:        66650
                          Major page faults:          142
                 Voluntary context switches:         4183
