<?xml version="1.0" encoding="ISO-8859-1"?>
<modeling>
 <generator>
  <i name="program" type="string">vasp </i>
  <i name="version" type="string">6.4.1  </i>
  <i name="subversion" type="string">05Apr23 (build Jun 07 2023 15:38:11) complex                          parallel </i>
  <i name="platform" type="string">LinuxIFC </i>
  <i name="date" type="string">2023 10 23 </i>
  <i name="time" type="string">15:07:43 </i>
 </generator>
 <incar>
  <i type="string" name="PREC">Accu</i>
  <i type="string" name="ALGO">F</i>
  <i type="logical" name="LDIAG"> T  </i>
  <i type="int" name="ISPIN">     2</i>
  <i type="int" name="NELM">   100</i>
  <i type="int" name="NELMDL">   -10</i>
  <i type="int" name="IBRION">     2</i>
  <i name="EDIFF">      0.00000100</i>
  <i name="EDIFFG">     -0.00100000</i>
  <i type="int" name="NSW">  1000</i>
  <i type="int" name="ISIF">     2</i>
  <i name="ENCUT">    520.00000000</i>
  <i name="POTIM">      0.20000000</i>
  <i type="string" name="LREAL">Auto</i>
  <i type="logical" name="LPLANE"> T  </i>
  <i type="int" name="ISMEAR">     0</i>
  <i name="SIGMA">      0.03000000</i>
  <i type="int" name="LMAXMIX">     4</i>
  <i type="logical" name="LWAVE"> F  </i>
  <i type="logical" name="LCHARG"> F  </i>
  <i type="logical" name="LASPH"> T  </i>
  <i type="string" name="GGA">PE</i>
  <i type="int" name="IVDW">    12</i>
 </incar>
 <primitive_cell>
  <structure name="primitive_cell" >
   <crystal>
    <varray name="basis" >
     <v>       9.66459374       0.00000000       0.00000000 </v>
     <v>       0.00000000       9.66459374       0.00000000 </v>
     <v>       0.00000000       0.00000000       9.66459374 </v>
    </varray>
    <i name="volume">    902.71531103 </i>
    <varray name="rec_basis" >
     <v>       0.10347046       0.00000000       0.00000000 </v>
     <v>       0.00000000       0.10347046       0.00000000 </v>
     <v>       0.00000000       0.00000000       0.10347046 </v>
    </varray>
   </crystal>
   <varray name="positions" >
    <v>       0.99313253       0.22564220       0.17152669 </v>
    <v>       0.97934217       0.72466191       0.68138793 </v>
    <v>       0.03488805       0.18823285       0.78248457 </v>
    <v>       0.01981702       0.70465494       0.33135524 </v>
    <v>       0.22927544       0.18958762       0.97415418 </v>
    <v>       0.15639444       0.81925387       0.03807106 </v>
    <v>       0.70166168       0.29411789       0.00795923 </v>
    <v>       0.73583048       0.69631410       0.96941285 </v>
    <v>       0.29175953       0.98147108       0.28621338 </v>
    <v>       0.38981114       0.04437235       0.71756692 </v>
    <v>       0.81492713       0.97281274       0.81323502 </v>
    <v>       0.81665707       0.02001747       0.17952247 </v>
    <v>       0.31345954       0.79264499       0.48405895 </v>
    <v>       0.29633038       0.21542745       0.51438457 </v>
    <v>       0.67561273       0.84422299       0.52631331 </v>
    <v>       0.84805855       0.31684919       0.45500758 </v>
    <v>       0.17807354       0.46560430       0.68560087 </v>
    <v>       0.20869807       0.51538037       0.30606742 </v>
    <v>       0.71516352       0.48387450       0.21164039 </v>
    <v>       0.79685565       0.52406521       0.69043290 </v>
    <v>       0.47266309       0.35014510       0.80565499 </v>
    <v>       0.46202231       0.68244878       0.17752324 </v>
    <v>       0.56001090       0.18109052       0.32916766 </v>
    <v>       0.51872881       0.69603424       0.80359320 </v>
    <v>       0.51039133       0.49922982       0.49304860 </v>
    <v>       0.50638537       0.99611387       0.00145214 </v>
    <v>       0.01853671       0.50564621       0.99052723 </v>
    <v>       0.00221323       0.01071334       0.49575424 </v>
    <v>       0.13257382       0.90245764       0.62216573 </v>
    <v>       0.11626385       0.13875839       0.36867231 </v>
    <v>       0.87490379       0.88695296       0.37881925 </v>
    <v>       0.87048117       0.12594780       0.61599566 </v>
    <v>       0.90289564       0.62351002       0.12554196 </v>
    <v>       0.89479337       0.38042395       0.87043060 </v>
    <v>       0.12604781       0.63653525       0.86409494 </v>
    <v>       0.15627686       0.38912429       0.10190184 </v>
    <v>       0.61284954       0.11493333       0.85866184 </v>
    <v>       0.63304756       0.87126705       0.11629605 </v>
    <v>       0.40510067       0.13099137       0.12959332 </v>
    <v>       0.36770165       0.87470256       0.89634671 </v>
    <v>       0.62112101       0.63908405       0.37882717 </v>
    <v>       0.63361833       0.36685474       0.60397311 </v>
    <v>       0.37941691       0.60311322       0.62554948 </v>
    <v>       0.39976053       0.37761206       0.35887463 </v>
    <v>       0.74701784       0.75328495       0.74000533 </v>
    <v>       0.76716980       0.25219786       0.23484385 </v>
    <v>       0.24448827       0.74960733       0.25748466 </v>
    <v>       0.26266957       0.24930497       0.74607261 </v>
    <v>       0.00628256       0.03131604       0.99514654 </v>
    <v>       0.00343750       0.51919948       0.50768414 </v>
    <v>       0.46966538       0.00022785       0.48629518 </v>
    <v>       0.55230993       0.51275301       0.99391138 </v>
   </varray>
  </structure>
  <varray name="primitive_index" >
   <v type="int" >        1 </v>
   <v type="int" >        2 </v>
   <v type="int" >        3 </v>
   <v type="int" >        4 </v>
   <v type="int" >        5 </v>
   <v type="int" >        6 </v>
   <v type="int" >        7 </v>
   <v type="int" >        8 </v>
   <v type="int" >        9 </v>
   <v type="int" >       10 </v>
   <v type="int" >       11 </v>
   <v type="int" >       12 </v>
   <v type="int" >       13 </v>
   <v type="int" >       14 </v>
   <v type="int" >       15 </v>
   <v type="int" >       16 </v>
   <v type="int" >       17 </v>
   <v type="int" >       18 </v>
   <v type="int" >       19 </v>
   <v type="int" >       20 </v>
   <v type="int" >       21 </v>
   <v type="int" >       22 </v>
   <v type="int" >       23 </v>
   <v type="int" >       24 </v>
   <v type="int" >       25 </v>
   <v type="int" >       26 </v>
   <v type="int" >       27 </v>
   <v type="int" >       28 </v>
   <v type="int" >       29 </v>
   <v type="int" >       30 </v>
   <v type="int" >       31 </v>
   <v type="int" >       32 </v>
   <v type="int" >       33 </v>
   <v type="int" >       34 </v>
   <v type="int" >       35 </v>
   <v type="int" >       36 </v>
   <v type="int" >       37 </v>
   <v type="int" >       38 </v>
   <v type="int" >       39 </v>
   <v type="int" >       40 </v>
   <v type="int" >       41 </v>
   <v type="int" >       42 </v>
   <v type="int" >       43 </v>
   <v type="int" >       44 </v>
   <v type="int" >       45 </v>
   <v type="int" >       46 </v>
   <v type="int" >       47 </v>
   <v type="int" >       48 </v>
   <v type="int" >       49 </v>
   <v type="int" >       50 </v>
   <v type="int" >       51 </v>
   <v type="int" >       52 </v>
  </varray>
 </primitive_cell>
 <kpoints>
  <generation param="Monkhorst-Pack">
   <v type="int" name="divisions">       2        2        2 </v>
   <v name="usershift">      0.00000000       0.00000000       0.00000000 </v>
   <v name="genvec1">      0.50000000       0.00000000       0.00000000 </v>
   <v name="genvec2">      0.00000000       0.50000000       0.00000000 </v>
   <v name="genvec3">      0.00000000       0.00000000       0.50000000 </v>
   <v name="shift">      0.50000000       0.50000000       0.50000000 </v>
  </generation>
  <varray name="kpointlist" >
   <v>       0.25000000       0.25000000       0.25000000 </v>
   <v>      -0.25000000       0.25000000       0.25000000 </v>
   <v>      -0.25000000      -0.25000000       0.25000000 </v>
   <v>       0.25000000      -0.25000000       0.25000000 </v>
  </varray>
  <varray name="weights" >
   <v>       0.25000000 </v>
   <v>       0.25000000 </v>
   <v>       0.25000000 </v>
   <v>       0.25000000 </v>
  </varray>
 </kpoints>
 <parameters>
  <separator name="general" >
   <i type="string" name="SYSTEM">unknown system</i>
   <i type="logical" name="LCOMPAT"> F  </i>
  </separator>
  <separator name="electronic" >
   <i type="string" name="PREC">accu</i>
   <i name="ENMAX">    520.00000000</i>
   <i name="ENAUG">   1041.69900000</i>
   <i name="EDIFF">      0.00000100</i>
   <i type="int" name="IALGO">    68</i>
   <i type="int" name="IWAVPR">    11</i>
   <i type="int" name="NBANDS">   176</i>
   <i type="int" name="NBANDSLOW">    -1</i>
   <i type="int" name="NBANDSHIGH">    -1</i>
   <i name="NELECT">    240.00000000</i>
   <i type="int" name="TURBO">     0</i>
   <i type="int" name="IRESTART">     0</i>
   <i type="int" name="NREBOOT">     0</i>
   <i type="int" name="NMIN">     0</i>
   <i name="EREF">      0.00000000</i>
   <separator name="electronic smearing" >
    <i type="int" name="ISMEAR">     0</i>
    <i name="SIGMA">      0.03000000</i>
    <i name="KSPACING">      0.50000000</i>
    <i type="logical" name="KGAMMA"> T  </i>
    <i type="logical" name="KBLOWUP"> T  </i>
   </separator>
   <separator name="electronic projectors" >
    <i type="logical" name="LREAL"> T  </i>
    <v name="ROPT">     -0.00025000     -0.00025000     -0.00025000     -0.00025000</v>
    <i type="int" name="LMAXPAW">  -100</i>
    <i type="int" name="LMAXMIX">     4</i>
    <i type="logical" name="NLSPLINE"> F  </i>
   </separator>
   <separator name="electronic startup" >
    <i type="int" name="ISTART">     0</i>
    <i type="int" name="ICHARG">     2</i>
    <i type="int" name="INIWAV">     1</i>
   </separator>
   <separator name="electronic spin" >
    <i type="int" name="ISPIN">     2</i>
    <i type="logical" name="LNONCOLLINEAR"> F  </i>
    <v name="MAGMOM">      1.00000000      1.00000000      1.00000000      1.00000000      1.00000000      1.00000000      1.00000000      1.00000000      1.00000000      1.00000000      1.00000000      1.00000000      1.00000000      1.00000000      1.00000000      1.00000000      1.00000000      1.00000000      1.00000000      1.00000000
      1.00000000      1.00000000      1.00000000      1.00000000      1.00000000      1.00000000      1.00000000      1.00000000      1.00000000      1.00000000      1.00000000      1.00000000      1.00000000      1.00000000      1.00000000      1.00000000      1.00000000      1.00000000      1.00000000      1.00000000
      1.00000000      1.00000000      1.00000000      1.00000000      1.00000000      1.00000000      1.00000000      1.00000000      1.00000000      1.00000000      1.00000000      1.00000000</v>
    <i name="NUPDOWN">     -1.00000000</i>
    <i type="logical" name="LSORBIT"> F  </i>
    <v name="SAXIS">      0.00000000      0.00000000      1.00000000</v>
    <i type="logical" name="LSPIRAL"> F  </i>
    <v name="QSPIRAL">      0.00000000      0.00000000      0.00000000</v>
    <i type="logical" name="LZEROZ"> F  </i>
   </separator>
   <separator name="electronic exchange-correlation" >
    <i type="logical" name="LASPH"> T  </i>
    <i type="logical" name="LMETAGGA"> F  </i>
   </separator>
   <separator name="electronic convergence" >
    <i type="int" name="NELM">   100</i>
    <i type="int" name="NELMDL">   -10</i>
    <i type="int" name="NELMIN">     2</i>
    <i name="ENINI">    520.00000000</i>
    <separator name="electronic convergence detail" >
     <i type="logical" name="LDIAG"> T  </i>
     <i type="logical" name="LSUBROT"> F  </i>
     <i name="WEIMIN">      0.00100000</i>
     <i name="EBREAK">      0.00000000</i>
     <i name="DEPER">      0.30000000</i>
     <i type="int" name="NRMM">     4</i>
     <i name="TIME">      0.40000000</i>
    </separator>
   </separator>
   <separator name="electronic mixer" >
    <i name="AMIX">      0.40000000</i>
    <i name="BMIX">      1.00000000</i>
    <i name="AMIN">      0.10000000</i>
    <i name="AMIX_MAG">      1.60000000</i>
    <i name="BMIX_MAG">      1.00000000</i>
    <separator name="electronic mixer details" >
     <i type="int" name="IMIX">     4</i>
     <i type="logical" name="MIXFIRST"> F  </i>
     <i type="int" name="MAXMIX">   -45</i>
     <i name="WC">    100.00000000</i>
     <i type="int" name="INIMIX">     1</i>
     <i type="int" name="MIXPRE">     1</i>
     <i type="int" name="MREMOVE">     5</i>
    </separator>
   </separator>
   <separator name="electronic dipolcorrection" >
    <i type="logical" name="LDIPOL"> F  </i>
    <i type="logical" name="LMONO"> F  </i>
    <i type="int" name="IDIPOL">     0</i>
    <i name="EPSILON">      1.00000000</i>
    <v name="DIPOL">   -100.00000000   -100.00000000   -100.00000000</v>
    <i name="EFIELD">      0.00000000</i>
   </separator>
  </separator>
  <separator name="grids" >
   <i type="int" name="NGX">    72</i>
   <i type="int" name="NGY">    72</i>
   <i type="int" name="NGZ">    72</i>
   <i type="int" name="NGXF">   144</i>
   <i type="int" name="NGYF">   144</i>
   <i type="int" name="NGZF">   144</i>
   <i type="logical" name="ADDGRID"> F  </i>
  </separator>
  <separator name="ionic" >
   <i type="int" name="NSW">  1000</i>
   <i type="int" name="IBRION">     2</i>
   <i type="int" name="MDALGO">     0</i>
   <i type="int" name="ISIF">     2</i>
   <i name="PSTRESS">      0.00000000</i>
   <i name="EDIFFG">     -0.00100000</i>
   <i type="int" name="NFREE">     1</i>
   <i name="POTIM">      0.20000000</i>
   <i name="SMASS">     -3.00000000</i>
   <i name="SCALEE">      1.00000000</i>
  </separator>
  <separator name="ionic md" >
   <i name="TEBEG">      0.00010000</i>
   <i name="TEEND">      0.00010000</i>
   <i type="int" name="NBLOCK">     1</i>
   <i type="int" name="KBLOCK">  1000</i>
   <i type="int" name="NPACO">   256</i>
   <i name="APACO">     10.00000000</i>
  </separator>
  <separator name="symmetry" >
   <i type="int" name="ISYM">     2</i>
   <i name="SYMPREC">      0.00001000</i>
  </separator>
  <separator name="dos" >
   <i type="int" name="LORBIT">     0</i>
   <v name="RWIGS">     -1.00000000     -1.00000000     -1.00000000     -1.00000000</v>
   <i type="int" name="NEDOS">   301</i>
   <i name="EMIN">     10.00000000</i>
   <i name="EMAX">    -10.00000000</i>
   <i name="EFERMI">      0.00000000</i>
  </separator>
  <separator name="writing" >
   <i type="int" name="NWRITE">     2</i>
   <i type="logical" name="LWAVE"> F  </i>
   <i type="logical" name="LDOWNSAMPLE"> F  </i>
   <i type="logical" name="LCHARG"> F  </i>
   <i type="logical" name="LPARD"> F  </i>
   <i type="logical" name="LVTOT"> F  </i>
   <i type="logical" name="LVHAR"> F  </i>
   <i type="logical" name="LELF"> F  </i>
   <i type="logical" name="LOPTICS"> F  </i>
   <v name="STM">      0.00000000      0.00000000      0.00000000      0.00000000      0.00000000      0.00000000      0.00000000</v>
  </separator>
  <separator name="performance" >
   <i type="int" name="NPAR">     4</i>
   <i type="int" name="NSIM">     4</i>
   <i type="int" name="NBLK">    -1</i>
   <i type="logical" name="LPLANE"> T  </i>
   <i type="logical" name="LSCALAPACK"> T  </i>
   <i type="logical" name="LSCAAWARE"> F  </i>
   <i type="logical" name="LSCALU"> F  </i>
   <i type="logical" name="LASYNC"> F  </i>
   <i type="logical" name="LORBITALREAL"> F  </i>
  </separator>
  <separator name="miscellaneous" >
   <i type="int" name="IDIOT">     3</i>
   <i type="int" name="PHON_NSTRUCT">    -1</i>
   <i type="logical" name="LMUSIC"> F  </i>
   <v name="POMASS">      7.01000000     30.97400000     32.06600000     35.45300000</v>
   <v name="DARWINR">      0.00000000      0.00000000      0.00000000      0.00000000</v>
   <v name="DARWINV">      1.00000000      1.00000000      1.00000000      1.00000000</v>
   <i type="logical" name="LCORR"> T  </i>
  </separator>
  <i type="logical" name="GGA_COMPAT"> T  </i>
  <i type="logical" name="LBERRY"> F  </i>
  <i type="int" name="ICORELEVEL">     0</i>
  <i type="logical" name="LDAU"> F  </i>
  <i type="int" name="I_CONSTRAINED_M">     0</i>
  <separator name="electronic exchange-correlation" >
   <i type="string" name="GGA">PE</i>
   <i type="int" name="VOSKOWN">     0</i>
   <i type="logical" name="LHFCALC"> F  </i>
   <i type="string" name="PRECFOCK"></i>
   <i type="logical" name="LSYMGRAD"> F  </i>
   <i type="logical" name="LHFONE"> F  </i>
   <i type="logical" name="LRHFCALC"> F  </i>
   <i type="logical" name="LTHOMAS"> F  </i>
   <i type="logical" name="LMODELHF"> F  </i>
   <i type="logical" name="LFOCKACE"> F  </i>
   <i name="ENCUT4O">     -1.00000000</i>
   <i type="int" name="EXXOEP">     0</i>
   <i type="int" name="FOURORBIT">     0</i>
   <i name="AEXX">      0.00000000</i>
   <i name="HFALPHA">      0.00000000</i>
   <i name="MCALPHA">      0.00000000</i>
   <i name="ALDAX">      1.00000000</i>
   <i name="AGGAX">      1.00000000</i>
   <i name="ALDAC">      1.00000000</i>
   <i name="AGGAC">      1.00000000</i>
   <i type="int" name="NKREDX">     1</i>
   <i type="int" name="NKREDY">     1</i>
   <i type="int" name="NKREDZ">     1</i>
   <i type="logical" name="SHIFTRED"> F  </i>
   <i type="logical" name="ODDONLY"> F  </i>
   <i type="logical" name="EVENONLY"> F  </i>
   <i type="int" name="LMAXFOCK">     0</i>
   <i type="int" name="NMAXFOCKAE">     0</i>
   <i type="logical" name="LFOCKAEDFT"> F  </i>
   <i name="HFSCREEN">      0.00000000</i>
   <i name="HFSCREENC">      0.00000000</i>
   <i type="int" name="NBANDSGWLOW">     0</i>
  </separator>
  <separator name="vdW DFT" >
   <i type="logical" name="LUSE_VDW"> F  </i>
   <i type="int" name="IVDW_NL">     1</i>
   <i type="logical" name="LSPIN_VDW"> F  </i>
   <i name="Zab_VDW">     -0.84910000</i>
   <i name="PARAM1">      0.12340000</i>
   <i name="PARAM2">      1.00000000</i>
   <i name="PARAM3">      0.00000000</i>
  </separator>
  <separator name="model GW" >
   <i type="int" name="MODEL_GW">     0</i>
   <i name="MODEL_EPS0">     10.41594590</i>
   <i name="MODEL_ALPHA">      1.00000000</i>
  </separator>
  <separator name="linear response parameters" >
   <i type="logical" name="LEPSILON"> F  </i>
   <i type="logical" name="LRPA"> F  </i>
   <i type="logical" name="LNABLA"> F  </i>
   <i type="logical" name="LVEL"> F  </i>
   <i name="CSHIFT">      0.10000000</i>
   <i name="OMEGAMAX">     -1.00000000</i>
   <i name="DEG_THRESHOLD">      0.00200000</i>
   <i name="RTIME">     -0.10000000</i>
   <i name="WPLASMAI">      0.00000000</i>
   <v name="DFIELD">      0.00000000      0.00000000      0.00000000</v>
   <v name="WPLASMA">      0.00000000      0.00000000      0.00000000      0.00000000      0.00000000      0.00000000      0.00000000      0.00000000      0.00000000</v>
  </separator>
  <separator name="orbital magnetization" >
   <i type="logical" name="NUCIND"> F  </i>
   <v name="MAGPOS">      0.00000000      0.00000000      0.00000000</v>
   <i type="logical" name="LNICSALL"> T  </i>
   <i type="logical" name="ORBITALMAG"> F  </i>
   <i type="logical" name="LMAGBLOCH"> F  </i>
   <i type="logical" name="LCHIMAG"> F  </i>
   <i type="logical" name="LGAUGE"> T  </i>
   <i type="int" name="MAGATOM">     0</i>
   <v name="MAGDIPOL">      0.00000000      0.00000000      0.00000000</v>
   <v name="AVECCONST">      0.00000000      0.00000000      0.00000000</v>
  </separator>
  <separator name="response functions" >
   <i type="logical" name="LALL_IN_ONE"> F  </i>
   <i type="int" name="IALL_IN_ONE">    -1</i>
   <i type="int" name="NBANDS_WAVE">    -1</i>
   <i type="logical" name="LFINITE_TEMPERATURE"> F  </i>
   <i type="logical" name="LADDER"> F  </i>
   <i type="logical" name="LRPAFORCE"> F  </i>
   <i type="logical" name="LFXC"> F  </i>
   <i type="logical" name="LHARTREE"> T  </i>
   <i type="int" name="IBSE">     0</i>
   <v type="int" name="KPOINT">    -1     0     0     0</v>
   <i type="logical" name="LTCTC"> F  </i>
   <i type="logical" name="LTCTE"> F  </i>
   <i type="logical" name="LTETE"> F  </i>
   <i type="logical" name="LTRIPLET"> F  </i>
   <i type="logical" name="LFXCEPS"> F  </i>
   <i type="logical" name="LFXHEG"> F  </i>
   <i type="int" name="NATURALO">     2</i>
   <i type="logical" name="LHOLEGF"> F  </i>
   <i type="logical" name="L2ORDER"> F  </i>
   <i type="logical" name="LDMP1"> F  </i>
   <i type="logical" name="LMP2LT"> F  </i>
   <i type="logical" name="LSMP2LT"> F  </i>
   <i type="logical" name="LGWLF"> F  </i>
   <i name="ENCUTGW">     -1.60000002</i>
   <i name="ENCUTGWSOFT">     -1.60000002</i>
   <i name="ENCUTLF">     -1.00000000</i>
   <i type="logical" name="LESF_SPLINES"> F  </i>
   <i type="int" name="LMAXMP2">    -1</i>
   <i name="SCISSOR">      0.00000000</i>
   <i type="int" name="NOMEGA">     0</i>
   <i type="int" name="NOMEGAR">     0</i>
   <i type="int" name="NBANDSGW">    -1</i>
   <i type="int" name="NBANDSO">    -1</i>
   <i type="int" name="NBANDSV">    -1</i>
   <i type="int" name="NELMGW">     1</i>
   <i type="int" name="NELMHF">     1</i>
   <i type="int" name="DIM">     3</i>
   <i type="int" name="IESPILON">     4</i>
   <i type="int" name="ANTIRES">     0</i>
   <i name="OMEGAMAX">    -30.00000000</i>
   <i name="OMEGAMIN">    -30.00000000</i>
   <i name="OMEGATL">   -200.00000000</i>
   <i type="int" name="OMEGAGRID">     0</i>
   <i name="CSHIFT">     -0.10000000</i>
   <i type="logical" name="LSELFENERGY"> F  </i>
   <i type="logical" name="LSPECTRAL"> F  </i>
   <i type="logical" name="LSPECTRALGW"> F  </i>
   <i type="logical" name="LSINGLES"> F  </i>
   <i type="logical" name="LFERMIGW"> F  </i>
   <i type="logical" name="ODDONLYGW"> F  </i>
   <i type="logical" name="EVENONLYGW"> F  </i>
   <i type="int" name="NKREDLFX">     1</i>
   <i type="int" name="NKREDLFY">     1</i>
   <i type="int" name="NKREDLFZ">     1</i>
   <i type="int" name="MAXMEM">  2800</i>
   <i type="int" name="TELESCOPE">     0</i>
   <i type="int" name="NTAUPAR">    -1</i>
   <i type="int" name="NOMEGAPAR">    -1</i>
   <i name="DAMP_NEWTON">      0.80000001</i>
   <i name="LAMBDA">      1.00000000</i>
  </separator>
  <separator name="External order field" >
   <i name="OFIELD_KAPPA">      0.00000000</i>
   <v name="OFIELD_K">      0.00000000      0.00000000      0.00000000</v>
   <i name="OFIELD_Q6_NEAR">      0.00000000</i>
   <i name="OFIELD_Q6_FAR">      0.00000000</i>
   <i name="OFIELD_A">      0.00000000</i>
  </separator>
  <separator name="optional k-points parameters" >
   <i type="int" name="KPOINTS_OPT_MODE">     1</i>
   <i type="logical" name="LKPOINTS_OPT"> F  </i>
  </separator>
 </parameters>
 <atominfo>
  <atoms>      52 </atoms>
  <types>       4 </types>
  <array name="atoms" >
   <dimension dim="1">ion</dimension>
   <field type="string">element</field>
   <field type="int">atomtype</field>
   <set>
    <rc><c>Li</c><c>   1</c></rc>
    <rc><c>Li</c><c>   1</c></rc>
    <rc><c>Li</c><c>   1</c></rc>
    <rc><c>Li</c><c>   1</c></rc>
    <rc><c>Li</c><c>   1</c></rc>
    <rc><c>Li</c><c>   1</c></rc>
    <rc><c>Li</c><c>   1</c></rc>
    <rc><c>Li</c><c>   1</c></rc>
    <rc><c>Li</c><c>   1</c></rc>
    <rc><c>Li</c><c>   1</c></rc>
    <rc><c>Li</c><c>   1</c></rc>
    <rc><c>Li</c><c>   1</c></rc>
    <rc><c>Li</c><c>   1</c></rc>
    <rc><c>Li</c><c>   1</c></rc>
    <rc><c>Li</c><c>   1</c></rc>
    <rc><c>Li</c><c>   1</c></rc>
    <rc><c>Li</c><c>   1</c></rc>
    <rc><c>Li</c><c>   1</c></rc>
    <rc><c>Li</c><c>   1</c></rc>
    <rc><c>Li</c><c>   1</c></rc>
    <rc><c>Li</c><c>   1</c></rc>
    <rc><c>Li</c><c>   1</c></rc>
    <rc><c>Li</c><c>   1</c></rc>
    <rc><c>Li</c><c>   1</c></rc>
    <rc><c>P </c><c>   2</c></rc>
    <rc><c>P </c><c>   2</c></rc>
    <rc><c>P </c><c>   2</c></rc>
    <rc><c>P </c><c>   2</c></rc>
    <rc><c>S </c><c>   3</c></rc>
    <rc><c>S </c><c>   3</c></rc>
    <rc><c>S </c><c>   3</c></rc>
    <rc><c>S </c><c>   3</c></rc>
    <rc><c>S </c><c>   3</c></rc>
    <rc><c>S </c><c>   3</c></rc>
    <rc><c>S </c><c>   3</c></rc>
    <rc><c>S </c><c>   3</c></rc>
    <rc><c>S </c><c>   3</c></rc>
    <rc><c>S </c><c>   3</c></rc>
    <rc><c>S </c><c>   3</c></rc>
    <rc><c>S </c><c>   3</c></rc>
    <rc><c>S </c><c>   3</c></rc>
    <rc><c>S </c><c>   3</c></rc>
    <rc><c>S </c><c>   3</c></rc>
    <rc><c>S </c><c>   3</c></rc>
    <rc><c>S </c><c>   3</c></rc>
    <rc><c>S </c><c>   3</c></rc>
    <rc><c>S </c><c>   3</c></rc>
    <rc><c>S </c><c>   3</c></rc>
    <rc><c>Cl</c><c>   4</c></rc>
    <rc><c>Cl</c><c>   4</c></rc>
    <rc><c>Cl</c><c>   4</c></rc>
    <rc><c>Cl</c><c>   4</c></rc>
   </set>
  </array>
  <array name="atomtypes" >
   <dimension dim="1">type</dimension>
   <field type="int">atomspertype</field>
   <field type="string">element</field>
   <field>mass</field>
   <field>valence</field>
   <field type="string">pseudopotential</field>
   <set>
    <rc><c>  24</c><c>Li</c><c>      7.01000000</c><c>      3.00000000</c><c>  PAW_PBE Li_sv_GW 25Mar2010            </c></rc>
    <rc><c>   4</c><c>P </c><c>     30.97400000</c><c>      5.00000000</c><c>  PAW_PBE P_GW 19Mar2012                </c></rc>
    <rc><c>  20</c><c>S </c><c>     32.06600000</c><c>      6.00000000</c><c>  PAW_PBE S_GW 19Mar2012                </c></rc>
    <rc><c>   4</c><c>Cl</c><c>     35.45300000</c><c>      7.00000000</c><c>  PAW_PBE Cl_GW 19Mar2012               </c></rc>
   </set>
  </array>
 </atominfo>
 <structure name="initialpos" >
  <crystal>
   <varray name="basis" >
    <v>       9.66459374       0.00000000       0.00000000 </v>
    <v>       0.00000000       9.66459374       0.00000000 </v>
    <v>       0.00000000       0.00000000       9.66459374 </v>
   </varray>
   <i name="volume">    902.71531103 </i>
   <varray name="rec_basis" >
    <v>       0.10347046       0.00000000       0.00000000 </v>
    <v>       0.00000000       0.10347046       0.00000000 </v>
    <v>       0.00000000       0.00000000       0.10347046 </v>
   </varray>
  </crystal>
  <varray name="positions" >
   <v>       0.99313253       0.22564220       0.17152669 </v>
   <v>       0.97934217       0.72466191       0.68138793 </v>
   <v>       0.03488805       0.18823285       0.78248457 </v>
   <v>       0.01981702       0.70465494       0.33135524 </v>
   <v>       0.22927544       0.18958762       0.97415418 </v>
   <v>       0.15639444       0.81925387       0.03807106 </v>
   <v>       0.70166168       0.29411789       0.00795923 </v>
   <v>       0.73583048       0.69631410       0.96941285 </v>
   <v>       0.29175953       0.98147108       0.28621338 </v>
   <v>       0.38981114       0.04437235       0.71756692 </v>
   <v>       0.81492713       0.97281274       0.81323502 </v>
   <v>       0.81665707       0.02001747       0.17952247 </v>
   <v>       0.31345954       0.79264499       0.48405895 </v>
   <v>       0.29633038       0.21542745       0.51438457 </v>
   <v>       0.67561273       0.84422299       0.52631331 </v>
   <v>       0.84805855       0.31684919       0.45500758 </v>
   <v>       0.17807354       0.46560430       0.68560087 </v>
   <v>       0.20869807       0.51538037       0.30606742 </v>
   <v>       0.71516352       0.48387450       0.21164039 </v>
   <v>       0.79685565       0.52406521       0.69043290 </v>
   <v>       0.47266309       0.35014510       0.80565499 </v>
   <v>       0.46202231       0.68244878       0.17752324 </v>
   <v>       0.56001090       0.18109052       0.32916766 </v>
   <v>       0.51872881       0.69603424       0.80359320 </v>
   <v>       0.51039133       0.49922982       0.49304860 </v>
   <v>       0.50638537       0.99611387       0.00145214 </v>
   <v>       0.01853671       0.50564621       0.99052723 </v>
   <v>       0.00221323       0.01071334       0.49575424 </v>
   <v>       0.13257382       0.90245764       0.62216573 </v>
   <v>       0.11626385       0.13875839       0.36867231 </v>
   <v>       0.87490379       0.88695296       0.37881925 </v>
   <v>       0.87048117       0.12594780       0.61599566 </v>
   <v>       0.90289564       0.62351002       0.12554196 </v>
   <v>       0.89479337       0.38042395       0.87043060 </v>
   <v>       0.12604781       0.63653525       0.86409494 </v>
   <v>       0.15627686       0.38912429       0.10190184 </v>
   <v>       0.61284954       0.11493333       0.85866184 </v>
   <v>       0.63304756       0.87126705       0.11629605 </v>
   <v>       0.40510067       0.13099137       0.12959332 </v>
   <v>       0.36770165       0.87470256       0.89634671 </v>
   <v>       0.62112101       0.63908405       0.37882717 </v>
   <v>       0.63361833       0.36685474       0.60397311 </v>
   <v>       0.37941691       0.60311322       0.62554948 </v>
   <v>       0.39976053       0.37761206       0.35887463 </v>
   <v>       0.74701784       0.75328495       0.74000533 </v>
   <v>       0.76716980       0.25219786       0.23484385 </v>
   <v>       0.24448827       0.74960733       0.25748466 </v>
   <v>       0.26266957       0.24930497       0.74607261 </v>
   <v>       0.00628256       0.03131604       0.99514654 </v>
   <v>       0.00343750       0.51919948       0.50768414 </v>
   <v>       0.46966538       0.00022785       0.48629518 </v>
   <v>       0.55230993       0.51275301       0.99391138 </v>
  </varray>
 </structure>
 <calculation>
  <scstep>
   <time name="dav">    2.29    2.43</time>
   <time name="total">    2.76    2.92</time>
   <energy>
    <i name="alphaZ">    300.71219615 </i>
    <i name="ewald">  -8809.53003871 </i>
    <i name="hartreedc">  -2114.82138246 </i>
    <i name="XCdc">    534.20866194 </i>
    <i name="pawpsdc">   8141.38806575 </i>
    <i name="pawaedc">  -8271.61346273 </i>
    <i name="eentropy">     -0.00909784 </i>
    <i name="bandstr">   -888.34558982 </i>
    <i name="atom">  12703.13999606 </i>
    <i name="e_fr_energy">   1595.12934834 </i>
    <i name="e_wo_entrp">   1595.13844618 </i>
    <i name="e_0_energy">   1595.13389726 </i>
   </energy>
  </scstep>
  <scstep>
   <time name="dav">    2.64    2.67</time>
   <time name="total">    2.64    2.67</time>
   <energy>
    <i name="e_fr_energy">    -54.49719330 </i>
    <i name="e_wo_entrp">    -54.49719330 </i>
    <i name="e_0_energy">    -54.49719330 </i>
   </energy>
  </scstep>
  <scstep>
   <time name="dav">    2.64    2.67</time>
   <time name="total">    2.64    2.67</time>
   <energy>
    <i name="e_fr_energy">   -228.30860793 </i>
    <i name="e_wo_entrp">   -228.30860793 </i>
    <i name="e_0_energy">   -228.30860793 </i>
   </energy>
  </scstep>
  <scstep>
   <time name="dav">    3.14    3.18</time>
   <time name="total">    3.14    3.18</time>
   <energy>
    <i name="e_fr_energy">   -241.86489498 </i>
    <i name="e_wo_entrp">   -241.86489498 </i>
    <i name="e_0_energy">   -241.86489498 </i>
   </energy>
  </scstep>
  <scstep>
   <time name="dav">    2.98    3.01</time>
   <time name="total">    2.98    3.01</time>
   <energy>
    <i name="e_fr_energy">   -242.10291610 </i>
    <i name="e_wo_entrp">   -242.10291610 </i>
    <i name="e_0_energy">   -242.10291610 </i>
   </energy>
  </scstep>
  <scstep>
   <time name="dav">    3.09    3.12</time>
   <time name="total">    3.09    3.12</time>
   <energy>
    <i name="e_fr_energy">   -242.11504053 </i>
    <i name="e_wo_entrp">   -242.11504053 </i>
    <i name="e_0_energy">   -242.11504053 </i>
   </energy>
  </scstep>
  <scstep>
   <time name="dav">    3.05    3.08</time>
   <time name="total">    3.05    3.08</time>
   <energy>
    <i name="e_fr_energy">   -242.11543020 </i>
    <i name="e_wo_entrp">   -242.11543020 </i>
    <i name="e_0_energy">   -242.11543020 </i>
   </energy>
  </scstep>
  <scstep>
   <time name="dav">    3.04    3.07</time>
   <time name="total">    3.04    3.08</time>
   <energy>
    <i name="e_fr_energy">   -242.11545297 </i>
    <i name="e_wo_entrp">   -242.11545297 </i>
    <i name="e_0_energy">   -242.11545297 </i>
   </energy>
  </scstep>
  <scstep>
   <time name="dav">    3.00    3.03</time>
   <time name="total">    3.00    3.03</time>
   <energy>
    <i name="e_fr_energy">   -242.11545444 </i>
    <i name="e_wo_entrp">   -242.11545444 </i>
    <i name="e_0_energy">   -242.11545444 </i>
   </energy>
  </scstep>
  <scstep>
   <time name="dav">    1.99    2.01</time>
   <time name="total">    2.07    2.09</time>
   <energy>
    <i name="e_fr_energy">   -242.11545451 </i>
    <i name="e_wo_entrp">   -242.11545451 </i>
    <i name="e_0_energy">   -242.11545451 </i>
   </energy>
  </scstep>
  <scstep>
   <time name="diag">    0.36    0.37</time>
   <time name="diis">    1.16    1.17</time>
   <time name="orth">    0.07    0.07</time>
   <time name="total">    2.11    2.13</time>
   <energy>
    <i name="e_fr_energy">   -236.30108170 </i>
    <i name="e_wo_entrp">   -236.30108170 </i>
    <i name="e_0_energy">   -236.30108170 </i>
   </energy>
  </scstep>
  <scstep>
   <time name="diag">    0.35    0.36</time>
   <time name="diis">    1.22    1.24</time>
   <time name="orth">    0.07    0.07</time>
   <time name="total">    2.17    2.19</time>
   <energy>
    <i name="e_fr_energy">   -256.00650241 </i>
    <i name="e_wo_entrp">   -256.00650241 </i>
    <i name="e_0_energy">   -256.00650241 </i>
   </energy>
  </scstep>
  <scstep>
   <time name="diag">    0.36    0.36</time>
   <time name="diis">    1.22    1.23</time>
   <time name="orth">    0.07    0.07</time>
   <time name="total">    2.17    2.19</time>
   <energy>
    <i name="e_fr_energy">   -258.47850480 </i>
    <i name="e_wo_entrp">   -258.47850480 </i>
    <i name="e_0_energy">   -258.47850480 </i>
   </energy>
  </scstep>
  <scstep>
   <time name="diag">    0.35    0.36</time>
   <time name="diis">    1.57    1.59</time>
   <time name="orth">    0.07    0.07</time>
   <time name="total">    2.51    2.54</time>
   <energy>
    <i name="e_fr_energy">   -258.68078643 </i>
    <i name="e_wo_entrp">   -258.68078643 </i>
    <i name="e_0_energy">   -258.68078643 </i>
   </energy>
  </scstep>
  <scstep>
   <time name="diag">    0.36    0.36</time>
   <time name="diis">    1.28    1.29</time>
   <time name="orth">    0.07    0.07</time>
   <time name="total">    2.23    2.25</time>
   <energy>
    <i name="e_fr_energy">   -258.65118340 </i>
    <i name="e_wo_entrp">   -258.65118340 </i>
    <i name="e_0_energy">   -258.65118340 </i>
   </energy>
  </scstep>
  <scstep>
   <time name="diag">    0.36    0.36</time>
   <time name="diis">    1.28    1.30</time>
   <time name="orth">    0.07    0.07</time>
   <time name="total">    2.23    2.25</time>
   <energy>
    <i name="e_fr_energy">   -258.67058880 </i>
    <i name="e_wo_entrp">   -258.67058880 </i>
    <i name="e_0_energy">   -258.67058880 </i>
   </energy>
  </scstep>
  <scstep>
   <time name="diag">    0.36    0.36</time>
   <time name="diis">    1.45    1.46</time>
   <time name="orth">    0.07    0.07</time>
   <time name="total">    2.39    2.42</time>
   <energy>
    <i name="e_fr_energy">   -258.67669514 </i>
    <i name="e_wo_entrp">   -258.67669514 </i>
    <i name="e_0_energy">   -258.67669514 </i>
   </energy>
  </scstep>
  <scstep>
   <time name="diag">    0.36    0.36</time>
   <time name="diis">    1.40    1.42</time>
   <time name="orth">    0.07    0.07</time>
   <time name="total">    2.35    2.37</time>
   <energy>
    <i name="e_fr_energy">   -258.67787137 </i>
    <i name="e_wo_entrp">   -258.67787137 </i>
    <i name="e_0_energy">   -258.67787137 </i>
   </energy>
  </scstep>
  <scstep>
   <time name="diag">    0.35    0.36</time>
   <time name="diis">    1.62    1.63</time>
   <time name="orth">    0.07    0.07</time>
   <time name="total">    2.55    2.58</time>
   <energy>
    <i name="e_fr_energy">   -258.67835692 </i>
    <i name="e_wo_entrp">   -258.67835692 </i>
    <i name="e_0_energy">   -258.67835692 </i>
   </energy>
  </scstep>
  <scstep>
   <time name="diag">    0.35    0.36</time>
   <time name="diis">    1.60    1.61</time>
   <time name="orth">    0.07    0.07</time>
   <time name="total">    2.54    2.57</time>
   <energy>
    <i name="e_fr_energy">   -258.67845302 </i>
    <i name="e_wo_entrp">   -258.67845302 </i>
    <i name="e_0_energy">   -258.67845302 </i>
   </energy>
  </scstep>
  <scstep>
   <time name="diag">    0.36    0.36</time>
   <time name="diis">    1.44    1.46</time>
   <time name="orth">    0.07    0.07</time>
   <time name="total">    2.39    2.41</time>
   <energy>
    <i name="e_fr_energy">   -258.67846969 </i>
    <i name="e_wo_entrp">   -258.67846969 </i>
    <i name="e_0_energy">   -258.67846969 </i>
   </energy>
  </scstep>
  <scstep>
   <time name="diag">    0.35    0.36</time>
   <time name="diis">    1.60    1.61</time>
   <time name="orth">    0.07    0.07</time>
   <time name="total">    2.54    2.56</time>
   <energy>
    <i name="e_fr_energy">   -258.67847618 </i>
    <i name="e_wo_entrp">   -258.67847618 </i>
    <i name="e_0_energy">   -258.67847618 </i>
   </energy>
  </scstep>
  <scstep>
   <time name="diag">    0.36    0.36</time>
   <time name="diis">    1.28    1.29</time>
   <time name="orth">    0.07    0.07</time>
   <time name="total">    2.22    2.24</time>
   <energy>
    <i name="e_fr_energy">   -258.67847592 </i>
    <i name="e_wo_entrp">   -258.67847592 </i>
    <i name="e_0_energy">   -258.67847592 </i>
   </energy>
  </scstep>
  <scstep>
   <time name="diag">    0.36    0.36</time>
   <time name="diis">    0.97    0.98</time>
   <time name="orth">    0.07    0.07</time>
   <time name="total">    1.85    1.86</time>
   <energy>
    <i name="alphaZ">    300.71219615 </i>
    <i name="ewald">  -8809.53003871 </i>
    <i name="hartreedc">  -2215.28357572 </i>
    <i name="XCdc">    537.84952058 </i>
    <i name="pawpsdc">   9817.53469066 </i>
    <i name="pawaedc">  -9961.50637827 </i>
    <i name="eentropy">     -0.00000000 </i>
    <i name="bandstr">  -2631.59488596 </i>
    <i name="atom">  12703.13999606 </i>
    <i name="e_fr_energy">   -258.67847521 </i>
    <i name="e_wo_entrp">   -258.67847521 </i>
    <i name="e_0_energy">   -258.67847521 </i>
   </energy>
  </scstep>
  <structure>
   <crystal>
    <varray name="basis" >
     <v>       9.66459374       0.00000000       0.00000000 </v>
     <v>       0.00000000       9.66459374       0.00000000 </v>
     <v>       0.00000000       0.00000000       9.66459374 </v>
    </varray>
    <i name="volume">    902.71531103 </i>
    <varray name="rec_basis" >
     <v>       0.10347046       0.00000000       0.00000000 </v>
     <v>       0.00000000       0.10347046       0.00000000 </v>
     <v>       0.00000000       0.00000000       0.10347046 </v>
    </varray>
   </crystal>
   <varray name="positions" >
    <v>       0.99313253       0.22564220       0.17152669 </v>
    <v>       0.97934217       0.72466191       0.68138793 </v>
    <v>       0.03488805       0.18823285       0.78248457 </v>
    <v>       0.01981702       0.70465494       0.33135524 </v>
    <v>       0.22927544       0.18958762       0.97415418 </v>
    <v>       0.15639444       0.81925387       0.03807106 </v>
    <v>       0.70166168       0.29411789       0.00795923 </v>
    <v>       0.73583048       0.69631410       0.96941285 </v>
    <v>       0.29175953       0.98147108       0.28621338 </v>
    <v>       0.38981114       0.04437235       0.71756692 </v>
    <v>       0.81492713       0.97281274       0.81323502 </v>
    <v>       0.81665707       0.02001747       0.17952247 </v>
    <v>       0.31345954       0.79264499       0.48405895 </v>
    <v>       0.29633038       0.21542745       0.51438457 </v>
    <v>       0.67561273       0.84422299       0.52631331 </v>
    <v>       0.84805855       0.31684919       0.45500758 </v>
    <v>       0.17807354       0.46560430       0.68560087 </v>
    <v>       0.20869807       0.51538037       0.30606742 </v>
    <v>       0.71516352       0.48387450       0.21164039 </v>
    <v>       0.79685565       0.52406521       0.69043290 </v>
    <v>       0.47266309       0.35014510       0.80565499 </v>
    <v>       0.46202231       0.68244878       0.17752324 </v>
    <v>       0.56001090       0.18109052       0.32916766 </v>
    <v>       0.51872881       0.69603424       0.80359320 </v>
    <v>       0.51039133       0.49922982       0.49304860 </v>
    <v>       0.50638537       0.99611387       0.00145214 </v>
    <v>       0.01853671       0.50564621       0.99052723 </v>
    <v>       0.00221323       0.01071334       0.49575424 </v>
    <v>       0.13257382       0.90245764       0.62216573 </v>
    <v>       0.11626385       0.13875839       0.36867231 </v>
    <v>       0.87490379       0.88695296       0.37881925 </v>
    <v>       0.87048117       0.12594780       0.61599566 </v>
    <v>       0.90289564       0.62351002       0.12554196 </v>
    <v>       0.89479337       0.38042395       0.87043060 </v>
    <v>       0.12604781       0.63653525       0.86409494 </v>
    <v>       0.15627686       0.38912429       0.10190184 </v>
    <v>       0.61284954       0.11493333       0.85866184 </v>
    <v>       0.63304756       0.87126705       0.11629605 </v>
    <v>       0.40510067       0.13099137       0.12959332 </v>
    <v>       0.36770165       0.87470256       0.89634671 </v>
    <v>       0.62112101       0.63908405       0.37882717 </v>
    <v>       0.63361833       0.36685474       0.60397311 </v>
    <v>       0.37941691       0.60311322       0.62554948 </v>
    <v>       0.39976053       0.37761206       0.35887463 </v>
    <v>       0.74701784       0.75328495       0.74000533 </v>
    <v>       0.76716980       0.25219786       0.23484385 </v>
    <v>       0.24448827       0.74960733       0.25748466 </v>
    <v>       0.26266957       0.24930497       0.74607261 </v>
    <v>       0.00628256       0.03131604       0.99514654 </v>
    <v>       0.00343750       0.51919948       0.50768414 </v>
    <v>       0.46966538       0.00022785       0.48629518 </v>
    <v>       0.55230993       0.51275301       0.99391138 </v>
   </varray>
  </structure>
  <varray name="forces" >
   <v>       0.00033678       0.00035278       0.00012255 </v>
   <v>      -0.00021684       0.00020672      -0.00028267 </v>
   <v>      -0.00042587       0.00060539       0.00014839 </v>
   <v>       0.00021190       0.00028407       0.00016305 </v>
   <v>       0.00010813      -0.00023590      -0.00010698 </v>
   <v>      -0.00050620      -0.00036717       0.00043944 </v>
   <v>      -0.00046188      -0.00028355       0.00012063 </v>
   <v>      -0.00001664      -0.00040556      -0.00015388 </v>
   <v>       0.00009755       0.00021420      -0.00022476 </v>
   <v>      -0.00304493      -0.00136879      -0.00032490 </v>
   <v>      -0.00005219      -0.00007434       0.00042050 </v>
   <v>       0.00023931       0.00029021      -0.00011341 </v>
   <v>       0.00049349      -0.00000146      -0.00016763 </v>
   <v>       0.00092944       0.00063329      -0.00015273 </v>
   <v>       0.00032595       0.00094330       0.00039906 </v>
   <v>       0.00035570      -0.00026935       0.00004292 </v>
   <v>       0.00001390      -0.00005762      -0.00001799 </v>
   <v>      -0.00042001      -0.00018974       0.00047868 </v>
   <v>       0.00011317       0.00004873       0.00016341 </v>
   <v>      -0.00016762      -0.00007552       0.00005805 </v>
   <v>       0.00008321      -0.00111646      -0.00027769 </v>
   <v>      -0.00020233      -0.00026094      -0.00000940 </v>
   <v>       0.00036055       0.00045357       0.00007217 </v>
   <v>      -0.00022616      -0.00024197       0.00007717 </v>
   <v>      -0.00147582      -0.00156885       0.00075467 </v>
   <v>      -0.00119296       0.00146128      -0.00129563 </v>
   <v>      -0.00038707      -0.00098943      -0.00034773 </v>
   <v>      -0.00023320       0.00097118       0.00009897 </v>
   <v>      -0.00015141       0.00012723      -0.00048318 </v>
   <v>      -0.00022770      -0.00026007       0.00094642 </v>
   <v>       0.00068692       0.00058991       0.00032040 </v>
   <v>       0.00087986      -0.00102164      -0.00058483 </v>
   <v>       0.00057277      -0.00005220      -0.00017932 </v>
   <v>       0.00056636       0.00112297       0.00106066 </v>
   <v>      -0.00048023      -0.00006624       0.00007017 </v>
   <v>      -0.00016449       0.00079849      -0.00067956 </v>
   <v>      -0.00113198      -0.00132907       0.00044253 </v>
   <v>       0.00068613      -0.00047131       0.00006531 </v>
   <v>       0.00085465      -0.00051642      -0.00063461 </v>
   <v>       0.00079523       0.00023420       0.00128251 </v>
   <v>       0.00064290       0.00103119      -0.00005222 </v>
   <v>      -0.00066014       0.00098346      -0.00113081 </v>
   <v>       0.00096919      -0.00067652      -0.00080070 </v>
   <v>       0.00127328       0.00132186       0.00036331 </v>
   <v>      -0.00012916      -0.00002174       0.00002059 </v>
   <v>       0.00031188       0.00016832       0.00002997 </v>
   <v>       0.00012346      -0.00002967       0.00008432 </v>
   <v>      -0.00031251      -0.00000881      -0.00011120 </v>
   <v>       0.00025914      -0.00053715      -0.00002649 </v>
   <v>       0.00011030      -0.00037930      -0.00053643 </v>
   <v>       0.00084763       0.00053279       0.00021179 </v>
   <v>      -0.00096147      -0.00049833       0.00023707 </v>
  </varray>
  <varray name="stress" >
   <v>       1.49472759       0.08392972       3.57723421 </v>
   <v>       0.08392914      -0.49068806       0.64870537 </v>
   <v>       3.57723525       0.64870482      -1.07977243 </v>
  </varray>
  <energy>
   <i name="e_fr_energy">   -272.22854047 </i>
   <i name="e_wo_entrp">   -272.22854047 </i>
   <i name="e_0_energy">   -272.22854047 </i>
  </energy>
  <time name="totalsc">   63.72   64.54</time>
 </calculation>
 <calculation>
  <scstep>
   <time name="dav">    2.33    2.36</time>
   <time name="total">    2.86    2.89</time>
   <energy>
    <i name="alphaZ">    300.71219615 </i>
    <i name="ewald">  -8809.51306547 </i>
    <i name="hartreedc">  -2215.30008464 </i>
    <i name="XCdc">    537.84998343 </i>
    <i name="pawpsdc">   9817.52387105 </i>
    <i name="pawaedc">  -9961.49546221 </i>
    <i name="eentropy">     -0.00000000 </i>
    <i name="bandstr">  -2631.59591265 </i>
    <i name="atom">  12703.13999606 </i>
    <i name="e_fr_energy">   -258.67847828 </i>
    <i name="e_wo_entrp">   -258.67847828 </i>
    <i name="e_0_energy">   -258.67847828 </i>
   </energy>
  </scstep>
  <scstep>
   <time name="diag">    0.36    0.37</time>
   <time name="diis">    0.87    0.88</time>
   <time name="orth">    0.07    0.07</time>
   <time name="total">    1.74    1.76</time>
   <energy>
    <i name="alphaZ">    300.71219615 </i>
    <i name="ewald">  -8809.51306547 </i>
    <i name="hartreedc">  -2215.30348031 </i>
    <i name="XCdc">    537.84991319 </i>
    <i name="pawpsdc">   9817.52150039 </i>
    <i name="pawaedc">  -9961.49271149 </i>
    <i name="eentropy">     -0.00000000 </i>
    <i name="bandstr">  -2631.59282719 </i>
    <i name="atom">  12703.13999606 </i>
    <i name="e_fr_energy">   -258.67847866 </i>
    <i name="e_wo_entrp">   -258.67847866 </i>
    <i name="e_0_energy">   -258.67847866 </i>
   </energy>
  </scstep>
  <structure>
   <crystal>
    <varray name="basis" >
     <v>       9.66459374       0.00000000       0.00000000 </v>
     <v>       0.00000000       9.66459374       0.00000000 </v>
     <v>       0.00000000       0.00000000       9.66459374 </v>
    </varray>
    <i name="volume">    902.71531103 </i>
    <varray name="rec_basis" >
     <v>       0.10347046       0.00000000       0.00000000 </v>
     <v>       0.00000000       0.10347046       0.00000000 </v>
     <v>       0.00000000       0.00000000       0.10347046 </v>
    </varray>
   </crystal>
   <varray name="positions" >
    <v>       0.99313320       0.22564290       0.17152694 </v>
    <v>       0.97934173       0.72466233       0.68138736 </v>
    <v>       0.03488720       0.18823406       0.78248486 </v>
    <v>       0.01981744       0.70465550       0.33135556 </v>
    <v>       0.22927565       0.18958715       0.97415396 </v>
    <v>       0.15639343       0.81925314       0.03807194 </v>
    <v>       0.70166076       0.29411732       0.00795947 </v>
    <v>       0.73583045       0.69631329       0.96941254 </v>
    <v>       0.29175973       0.98147150       0.28621293 </v>
    <v>       0.38980506       0.04436962       0.71756627 </v>
    <v>       0.81492703       0.97281259       0.81323586 </v>
    <v>       0.81665755       0.02001805       0.17952224 </v>
    <v>       0.31346052       0.79264499       0.48405861 </v>
    <v>       0.29633224       0.21542871       0.51438426 </v>
    <v>       0.67561338       0.84422487       0.52631411 </v>
    <v>       0.84805926       0.31684865       0.45500767 </v>
    <v>       0.17807357       0.46560419       0.68560083 </v>
    <v>       0.20869723       0.51537999       0.30606837 </v>
    <v>       0.71516375       0.48387459       0.21164071 </v>
    <v>       0.79685532       0.52406506       0.69043302 </v>
    <v>       0.47266326       0.35014287       0.80565444 </v>
    <v>       0.46202191       0.68244826       0.17752322 </v>
    <v>       0.56001162       0.18109142       0.32916781 </v>
    <v>       0.51872835       0.69603376       0.80359336 </v>
    <v>       0.51038838       0.49922668       0.49305011 </v>
    <v>       0.50638298       0.99611679       0.00144956 </v>
    <v>       0.01853594       0.50564423       0.99052654 </v>
    <v>       0.00221277       0.01071528       0.49575444 </v>
    <v>       0.13257351       0.90245790       0.62216476 </v>
    <v>       0.11626340       0.13875787       0.36867420 </v>
    <v>       0.87490516       0.88695414       0.37881989 </v>
    <v>       0.87048292       0.12594576       0.61599449 </v>
    <v>       0.90289678       0.62350992       0.12554161 </v>
    <v>       0.89479450       0.38042619       0.87043271 </v>
    <v>       0.12604685       0.63653512       0.86409508 </v>
    <v>       0.15627653       0.38912588       0.10190048 </v>
    <v>       0.61284728       0.11493067       0.85866272 </v>
    <v>       0.63304893       0.87126611       0.11629618 </v>
    <v>       0.40510238       0.13099034       0.12959205 </v>
    <v>       0.36770324       0.87470303       0.89634927 </v>
    <v>       0.62112229       0.63908611       0.37882707 </v>
    <v>       0.63361702       0.36685670       0.60397086 </v>
    <v>       0.37941885       0.60311187       0.62554788 </v>
    <v>       0.39976307       0.37761470       0.35887536 </v>
    <v>       0.74701758       0.75328490       0.74000537 </v>
    <v>       0.76717042       0.25219819       0.23484391 </v>
    <v>       0.24448852       0.74960727       0.25748483 </v>
    <v>       0.26266894       0.24930496       0.74607239 </v>
    <v>       0.00628308       0.03131497       0.99514648 </v>
    <v>       0.00343772       0.51919873       0.50768307 </v>
    <v>       0.46966707       0.00022891       0.48629561 </v>
    <v>       0.55230801       0.51275201       0.99391185 </v>
   </varray>
  </structure>
  <varray name="forces" >
   <v>       0.00022249       0.00016313       0.00006875 </v>
   <v>      -0.00010690       0.00007992      -0.00016140 </v>
   <v>      -0.00019791       0.00030157       0.00009948 </v>
   <v>       0.00009745       0.00012431       0.00006953 </v>
   <v>       0.00004221      -0.00016622      -0.00005304 </v>
   <v>      -0.00032467      -0.00028438       0.00028097 </v>
   <v>      -0.00023776      -0.00017118       0.00009793 </v>
   <v>      -0.00001604      -0.00020044       0.00001935 </v>
   <v>       0.00008605       0.00003660      -0.00009408 </v>
   <v>      -0.00187692      -0.00091718      -0.00024794 </v>
   <v>       0.00000251      -0.00017802       0.00032046 </v>
   <v>       0.00010335       0.00006689      -0.00009285 </v>
   <v>       0.00031524       0.00000076      -0.00012375 </v>
   <v>       0.00056900       0.00030472      -0.00005450 </v>
   <v>       0.00020284       0.00047988       0.00018318 </v>
   <v>       0.00024027      -0.00015819      -0.00004030 </v>
   <v>      -0.00001016      -0.00004225      -0.00001188 </v>
   <v>      -0.00029609      -0.00009542       0.00030369 </v>
   <v>       0.00008457       0.00012223       0.00014173 </v>
   <v>      -0.00006799       0.00001644      -0.00000771 </v>
   <v>       0.00004862      -0.00065620      -0.00016093 </v>
   <v>       0.00000802      -0.00014072       0.00003477 </v>
   <v>       0.00029737       0.00017929       0.00004845 </v>
   <v>      -0.00004983      -0.00017650       0.00008709 </v>
   <v>      -0.00022601      -0.00007041      -0.00001167 </v>
   <v>      -0.00011447       0.00019818      -0.00025768 </v>
   <v>      -0.00015066      -0.00021483      -0.00007902 </v>
   <v>       0.00017029       0.00022592       0.00000509 </v>
   <v>       0.00004196      -0.00011120      -0.00029772 </v>
   <v>       0.00025723       0.00009668       0.00022821 </v>
   <v>       0.00043071       0.00015920       0.00005915 </v>
   <v>       0.00021032      -0.00018707       0.00016304 </v>
   <v>       0.00007220      -0.00008953      -0.00015882 </v>
   <v>      -0.00016513       0.00019068       0.00027627 </v>
   <v>      -0.00039447      -0.00002807      -0.00019551 </v>
   <v>      -0.00001549       0.00001267      -0.00016710 </v>
   <v>      -0.00024803      -0.00036052      -0.00019364 </v>
   <v>       0.00003917       0.00004142      -0.00042634 </v>
   <v>       0.00010802       0.00000641      -0.00001578 </v>
   <v>       0.00011157      -0.00018031       0.00040569 </v>
   <v>      -0.00001846       0.00003939       0.00024023 </v>
   <v>      -0.00001199       0.00018519      -0.00021845 </v>
   <v>       0.00013391      -0.00011549      -0.00015911 </v>
   <v>       0.00023492       0.00028438      -0.00025524 </v>
   <v>       0.00003105      -0.00022328       0.00016929 </v>
   <v>       0.00031174       0.00012596      -0.00020160 </v>
   <v>       0.00006180       0.00006139       0.00029640 </v>
   <v>      -0.00020240      -0.00012738      -0.00010036 </v>
   <v>      -0.00002301       0.00056536       0.00012992 </v>
   <v>       0.00020526       0.00046605       0.00017804 </v>
   <v>      -0.00072269       0.00014154      -0.00002287 </v>
   <v>       0.00073697       0.00021860      -0.00009744 </v>
  </varray>
  <varray name="stress" >
   <v>       1.49479675       0.08410998       3.57762596 </v>
   <v>       0.08410990      -0.49190284       0.65267692 </v>
   <v>       3.57762687       0.65267653      -1.07942407 </v>
  </varray>
  <energy>
   <i name="e_fr_energy">   -272.22854198 </i>
   <i name="e_wo_entrp">   -272.22854198 </i>
   <i name="e_0_energy">   -272.22854198 </i>
  </energy>
  <time name="totalsc">    7.74    7.85</time>
 </calculation>
 <calculation>
  <scstep>
   <time name="dav">    2.08    2.11</time>
   <time name="total">    2.61    2.63</time>
   <energy>
    <i name="alphaZ">    300.71219615 </i>
    <i name="ewald">  -8809.50712183 </i>
    <i name="hartreedc">  -2215.30938422 </i>
    <i name="XCdc">    537.84995527 </i>
    <i name="pawpsdc">   9817.51345918 </i>
    <i name="pawaedc">  -9961.48428731 </i>
    <i name="eentropy">     -0.00000000 </i>
    <i name="bandstr">  -2631.59329292 </i>
    <i name="atom">  12703.13999606 </i>
    <i name="e_fr_energy">   -258.67847962 </i>
    <i name="e_wo_entrp">   -258.67847962 </i>
    <i name="e_0_energy">   -258.67847962 </i>
   </energy>
  </scstep>
  <scstep>
   <time name="diag">    0.36    0.37</time>
   <time name="diis">    0.80    0.81</time>
   <time name="orth">    0.07    0.07</time>
   <time name="total">    1.68    1.69</time>
   <energy>
    <i name="alphaZ">    300.71219615 </i>
    <i name="ewald">  -8809.50712183 </i>
    <i name="hartreedc">  -2215.30989499 </i>
    <i name="XCdc">    537.84987828 </i>
    <i name="pawpsdc">   9817.51142760 </i>
    <i name="pawaedc">  -9961.48211524 </i>
    <i name="eentropy">     -0.00000000 </i>
    <i name="bandstr">  -2631.59284572 </i>
    <i name="atom">  12703.13999606 </i>
    <i name="e_fr_energy">   -258.67847970 </i>
    <i name="e_wo_entrp">   -258.67847970 </i>
    <i name="e_0_energy">   -258.67847970 </i>
   </energy>
  </scstep>
  <structure>
   <crystal>
    <varray name="basis" >
     <v>       9.66459374       0.00000000       0.00000000 </v>
     <v>       0.00000000       9.66459374       0.00000000 </v>
     <v>       0.00000000       0.00000000       9.66459374 </v>
    </varray>
    <i name="volume">    902.71531103 </i>
    <varray name="rec_basis" >
     <v>       0.10347046       0.00000000       0.00000000 </v>
     <v>       0.00000000       0.10347046       0.00000000 </v>
     <v>       0.00000000       0.00000000       0.10347046 </v>
    </varray>
   </crystal>
   <varray name="positions" >
    <v>       0.99313344       0.22564315       0.17152702 </v>
    <v>       0.97934158       0.72466247       0.68138716 </v>
    <v>       0.03488690       0.18823448       0.78248497 </v>
    <v>       0.01981759       0.70465570       0.33135568 </v>
    <v>       0.22927573       0.18958699       0.97415389 </v>
    <v>       0.15639308       0.81925288       0.03807225 </v>
    <v>       0.70166044       0.29411712       0.00795956 </v>
    <v>       0.73583044       0.69631300       0.96941243 </v>
    <v>       0.29175980       0.98147165       0.28621277 </v>
    <v>       0.38980293       0.04436866       0.71756605 </v>
    <v>       0.81492699       0.97281254       0.81323615 </v>
    <v>       0.81665772       0.02001825       0.17952216 </v>
    <v>       0.31346087       0.79264499       0.48405850 </v>
    <v>       0.29633289       0.21542915       0.51438416 </v>
    <v>       0.67561361       0.84422553       0.52631439 </v>
    <v>       0.84805951       0.31684846       0.45500770 </v>
    <v>       0.17807358       0.46560415       0.68560082 </v>
    <v>       0.20869694       0.51537986       0.30606871 </v>
    <v>       0.71516383       0.48387463       0.21164083 </v>
    <v>       0.79685520       0.52406500       0.69043306 </v>
    <v>       0.47266331       0.35014209       0.80565425 </v>
    <v>       0.46202176       0.68244808       0.17752321 </v>
    <v>       0.56001187       0.18109174       0.32916786 </v>
    <v>       0.51872820       0.69603359       0.80359341 </v>
    <v>       0.51038735       0.49922559       0.49305063 </v>
    <v>       0.50638215       0.99611781       0.00144865 </v>
    <v>       0.01853566       0.50564354       0.99052629 </v>
    <v>       0.00221260       0.01071596       0.49575450 </v>
    <v>       0.13257341       0.90245798       0.62216443 </v>
    <v>       0.11626324       0.13875769       0.36867486 </v>
    <v>       0.87490564       0.88695455       0.37882011 </v>
    <v>       0.87048354       0.12594505       0.61599408 </v>
    <v>       0.90289719       0.62350988       0.12554148 </v>
    <v>       0.89479490       0.38042698       0.87043346 </v>
    <v>       0.12604651       0.63653507       0.86409513 </v>
    <v>       0.15627642       0.38912644       0.10190001 </v>
    <v>       0.61284649       0.11492974       0.85866303 </v>
    <v>       0.63304941       0.87126578       0.11629622 </v>
    <v>       0.40510298       0.13098998       0.12959161 </v>
    <v>       0.36770380       0.87470319       0.89635016 </v>
    <v>       0.62112274       0.63908683       0.37882703 </v>
    <v>       0.63361655       0.36685739       0.60397007 </v>
    <v>       0.37941952       0.60311140       0.62554732 </v>
    <v>       0.39976396       0.37761563       0.35887561 </v>
    <v>       0.74701749       0.75328489       0.74000539 </v>
    <v>       0.76717064       0.25219831       0.23484393 </v>
    <v>       0.24448860       0.74960725       0.25748489 </v>
    <v>       0.26266872       0.24930495       0.74607231 </v>
    <v>       0.00628326       0.03131459       0.99514646 </v>
    <v>       0.00343779       0.51919846       0.50768270 </v>
    <v>       0.46966767       0.00022928       0.48629575 </v>
    <v>       0.55230734       0.51275166       0.99391202 </v>
   </varray>
  </structure>
  <varray name="forces" >
   <v>       0.00031938       0.00025766       0.00011299 </v>
   <v>      -0.00014402       0.00015121      -0.00022164 </v>
   <v>      -0.00029059       0.00043343       0.00013053 </v>
   <v>       0.00015714       0.00020867       0.00010222 </v>
   <v>       0.00007596      -0.00019967      -0.00005989 </v>
   <v>      -0.00044342      -0.00036229       0.00037500 </v>
   <v>      -0.00037565      -0.00023795       0.00012025 </v>
   <v>      -0.00000112      -0.00028704      -0.00001649 </v>
   <v>       0.00011226       0.00009894      -0.00016372 </v>
   <v>      -0.00284102      -0.00133654      -0.00038166 </v>
   <v>       0.00000011      -0.00019660       0.00040920 </v>
   <v>       0.00014590       0.00011595      -0.00010922 </v>
   <v>       0.00044008      -0.00000093      -0.00016140 </v>
   <v>       0.00083400       0.00049712      -0.00011513 </v>
   <v>       0.00030220       0.00078042       0.00029488 </v>
   <v>       0.00032650      -0.00019041      -0.00003458 </v>
   <v>       0.00000596      -0.00000762      -0.00001108 </v>
   <v>      -0.00038940      -0.00012117       0.00038923 </v>
   <v>       0.00010660       0.00015881       0.00018913 </v>
   <v>      -0.00013946      -0.00001000       0.00000714 </v>
   <v>       0.00008053      -0.00098242      -0.00021989 </v>
   <v>      -0.00002702      -0.00018790       0.00002709 </v>
   <v>       0.00038568       0.00025952       0.00006761 </v>
   <v>      -0.00010773      -0.00022225       0.00010330 </v>
   <v>       0.00014968       0.00041574      -0.00024924 </v>
   <v>       0.00020864      -0.00016619       0.00005629 </v>
   <v>      -0.00005234       0.00009421       0.00002878 </v>
   <v>       0.00027984       0.00001787      -0.00004038 </v>
   <v>       0.00006416      -0.00008361      -0.00026043 </v>
   <v>       0.00027370       0.00018975       0.00023084 </v>
   <v>       0.00041924       0.00023068       0.00006585 </v>
   <v>       0.00011433      -0.00009316       0.00020440 </v>
   <v>       0.00013411      -0.00010013      -0.00017812 </v>
   <v>      -0.00023025       0.00012432       0.00022532 </v>
   <v>      -0.00036417      -0.00003277      -0.00018634 </v>
   <v>       0.00006127       0.00002302      -0.00017745 </v>
   <v>      -0.00024513      -0.00026327      -0.00032101 </v>
   <v>      -0.00002788       0.00016588      -0.00049352 </v>
   <v>       0.00007021       0.00012621      -0.00001205 </v>
   <v>      -0.00000384      -0.00020432       0.00034868 </v>
   <v>      -0.00010863      -0.00004427       0.00031534 </v>
   <v>       0.00001474       0.00004670      -0.00014381 </v>
   <v>       0.00006599      -0.00011733      -0.00009974 </v>
   <v>       0.00013787       0.00021134      -0.00034910 </v>
   <v>       0.00003948      -0.00018821       0.00014774 </v>
   <v>       0.00027233       0.00009927      -0.00019353 </v>
   <v>       0.00004856       0.00006683       0.00025974 </v>
   <v>      -0.00016108      -0.00009622      -0.00008689 </v>
   <v>       0.00010130       0.00032678       0.00010015 </v>
   <v>       0.00025988       0.00026209      -0.00007577 </v>
   <v>      -0.00029461       0.00042502       0.00008468 </v>
   <v>       0.00023973      -0.00005516      -0.00003430 </v>
  </varray>
  <varray name="stress" >
   <v>       1.49154656       0.08407380       3.57762785 </v>
   <v>       0.08407343      -0.49507736       0.65342018 </v>
   <v>       3.57762892       0.65341951      -1.08244670 </v>
  </varray>
  <energy>
   <i name="e_fr_energy">   -272.22854233 </i>
   <i name="e_wo_entrp">   -272.22854233 </i>
   <i name="e_0_energy">   -272.22854233 </i>
  </energy>
  <time name="totalsc">    7.35    7.43</time>
 </calculation>
 <calculation>
  <scstep>
   <time name="dav">    2.41    2.45</time>
   <time name="total">    2.93    2.97</time>
   <energy>
    <i name="alphaZ">    300.71219615 </i>
    <i name="ewald">  -8809.49523376 </i>
    <i name="hartreedc">  -2215.31886257 </i>
    <i name="XCdc">    537.85013654 </i>
    <i name="pawpsdc">   9817.50877480 </i>
    <i name="pawaedc">  -9961.47940671 </i>
    <i name="eentropy">     -0.00000000 </i>
    <i name="bandstr">  -2631.59608212 </i>
    <i name="atom">  12703.13999606 </i>
    <i name="e_fr_energy">   -258.67848160 </i>
    <i name="e_wo_entrp">   -258.67848160 </i>
    <i name="e_0_energy">   -258.67848160 </i>
   </energy>
  </scstep>
  <scstep>
   <time name="diag">    0.36    0.37</time>
   <time name="diis">    0.77    0.78</time>
   <time name="orth">    0.07    0.07</time>
   <time name="total">    1.65    1.67</time>
   <energy>
    <i name="alphaZ">    300.71219615 </i>
    <i name="ewald">  -8809.49523376 </i>
    <i name="hartreedc">  -2215.31972680 </i>
    <i name="XCdc">    537.85013693 </i>
    <i name="pawpsdc">   9817.51801367 </i>
    <i name="pawaedc">  -9961.48862831 </i>
    <i name="eentropy">     -0.00000000 </i>
    <i name="bandstr">  -2631.59523569 </i>
    <i name="atom">  12703.13999606 </i>
    <i name="e_fr_energy">   -258.67848175 </i>
    <i name="e_wo_entrp">   -258.67848175 </i>
    <i name="e_0_energy">   -258.67848175 </i>
   </energy>
  </scstep>
  <structure>
   <crystal>
    <varray name="basis" >
     <v>       9.66459374       0.00000000       0.00000000 </v>
     <v>       0.00000000       9.66459374       0.00000000 </v>
     <v>       0.00000000       0.00000000       9.66459374 </v>
    </varray>
    <i name="volume">    902.71531103 </i>
    <varray name="rec_basis" >
     <v>       0.10347046       0.00000000       0.00000000 </v>
     <v>       0.00000000       0.10347046       0.00000000 </v>
     <v>       0.00000000       0.00000000       0.10347046 </v>
    </varray>
   </crystal>
   <varray name="positions" >
    <v>       0.99313391       0.22564364       0.17152720 </v>
    <v>       0.97934128       0.72466276       0.68138677 </v>
    <v>       0.03488630       0.18823533       0.78248517 </v>
    <v>       0.01981788       0.70465610       0.33135591 </v>
    <v>       0.22927588       0.18958666       0.97415374 </v>
    <v>       0.15639237       0.81925237       0.03807286 </v>
    <v>       0.70165979       0.29411673       0.00795973 </v>
    <v>       0.73583041       0.69631244       0.96941222 </v>
    <v>       0.29175993       0.98147195       0.28621246 </v>
    <v>       0.38979867       0.04436674       0.71756559 </v>
    <v>       0.81492692       0.97281244       0.81323674 </v>
    <v>       0.81665805       0.02001865       0.17952200 </v>
    <v>       0.31346156       0.79264499       0.48405826 </v>
    <v>       0.29633419       0.21543004       0.51438394 </v>
    <v>       0.67561406       0.84422685       0.52631494 </v>
    <v>       0.84806000       0.31684808       0.45500776 </v>
    <v>       0.17807360       0.46560407       0.68560080 </v>
    <v>       0.20869635       0.51537959       0.30606938 </v>
    <v>       0.71516398       0.48387470       0.21164106 </v>
    <v>       0.79685497       0.52406490       0.69043314 </v>
    <v>       0.47266343       0.35014053       0.80565386 </v>
    <v>       0.46202148       0.68244771       0.17752320 </v>
    <v>       0.56001238       0.18109237       0.32916796 </v>
    <v>       0.51872788       0.69603325       0.80359352 </v>
    <v>       0.51038529       0.49922339       0.49305169 </v>
    <v>       0.50638048       0.99611985       0.00144684 </v>
    <v>       0.01853512       0.50564216       0.99052581 </v>
    <v>       0.00221228       0.01071732       0.49575464 </v>
    <v>       0.13257320       0.90245816       0.62216375 </v>
    <v>       0.11626292       0.13875732       0.36867619 </v>
    <v>       0.87490660       0.88695537       0.37882056 </v>
    <v>       0.87048477       0.12594362       0.61599327 </v>
    <v>       0.90289799       0.62350981       0.12554123 </v>
    <v>       0.89479569       0.38042855       0.87043494 </v>
    <v>       0.12604584       0.63653498       0.86409522 </v>
    <v>       0.15627619       0.38912756       0.10189906 </v>
    <v>       0.61284491       0.11492789       0.85866365 </v>
    <v>       0.63305037       0.87126512       0.11629631 </v>
    <v>       0.40510417       0.13098926       0.12959072 </v>
    <v>       0.36770491       0.87470352       0.89635196 </v>
    <v>       0.62112364       0.63908828       0.37882696 </v>
    <v>       0.63361563       0.36685876       0.60396849 </v>
    <v>       0.37942088       0.60311045       0.62554620 </v>
    <v>       0.39976575       0.37761747       0.35887612 </v>
    <v>       0.74701731       0.75328486       0.74000542 </v>
    <v>       0.76717108       0.25219855       0.23484397 </v>
    <v>       0.24448878       0.74960721       0.25748500 </v>
    <v>       0.26266829       0.24930494       0.74607215 </v>
    <v>       0.00628362       0.03131384       0.99514643 </v>
    <v>       0.00343795       0.51919793       0.50768195 </v>
    <v>       0.46966885       0.00023003       0.48629605 </v>
    <v>       0.55230599       0.51275097       0.99391235 </v>
   </varray>
  </structure>
  <varray name="forces" >
   <v>       0.00027689       0.00021272       0.00011831 </v>
   <v>      -0.00012580       0.00012284      -0.00018627 </v>
   <v>      -0.00023457       0.00035089       0.00012095 </v>
   <v>       0.00010920       0.00017116       0.00007720 </v>
   <v>       0.00003252      -0.00016591      -0.00003831 </v>
   <v>      -0.00040903      -0.00035551       0.00032154 </v>
   <v>      -0.00035734      -0.00021301       0.00013576 </v>
   <v>      -0.00002104      -0.00023075       0.00004876 </v>
   <v>       0.00009706       0.00002955      -0.00013114 </v>
   <v>      -0.00231982      -0.00111416      -0.00034927 </v>
   <v>      -0.00000340      -0.00025363       0.00038936 </v>
   <v>       0.00007596       0.00001935      -0.00009715 </v>
   <v>       0.00039507      -0.00000294      -0.00016416 </v>
   <v>       0.00063571       0.00034578      -0.00007242 </v>
   <v>       0.00022353       0.00054082       0.00017526 </v>
   <v>       0.00027392      -0.00015399      -0.00007315 </v>
   <v>      -0.00002044       0.00003766       0.00000944 </v>
   <v>      -0.00037355      -0.00008103       0.00032933 </v>
   <v>       0.00007038       0.00021101       0.00019100 </v>
   <v>      -0.00012620       0.00005197      -0.00002673 </v>
   <v>       0.00005263      -0.00077687      -0.00015989 </v>
   <v>       0.00006053      -0.00013067       0.00005753 </v>
   <v>       0.00037621       0.00018701       0.00006229 </v>
   <v>      -0.00005608      -0.00020612       0.00011529 </v>
   <v>       0.00095567       0.00141212      -0.00075894 </v>
   <v>       0.00091012      -0.00098931       0.00076821 </v>
   <v>       0.00013859       0.00066492       0.00023696 </v>
   <v>       0.00048991      -0.00043529      -0.00010640 </v>
   <v>       0.00009230      -0.00010832      -0.00024998 </v>
   <v>       0.00041467       0.00040188       0.00009148 </v>
   <v>       0.00035075       0.00019855       0.00000109 </v>
   <v>      -0.00020312       0.00016672       0.00047792 </v>
   <v>       0.00011819      -0.00012541      -0.00019348 </v>
   <v>      -0.00057137      -0.00020577      -0.00005769 </v>
   <v>      -0.00039793      -0.00005582      -0.00019205 </v>
   <v>       0.00024961      -0.00012545      -0.00008866 </v>
   <v>      -0.00001535       0.00003683      -0.00070813 </v>
   <v>      -0.00039147       0.00053034      -0.00084653 </v>
   <v>      -0.00014231       0.00042692       0.00021001 </v>
   <v>      -0.00032988      -0.00047851       0.00020261 </v>
   <v>      -0.00046272      -0.00046643       0.00066953 </v>
   <v>       0.00026098      -0.00030309       0.00010373 </v>
   <v>      -0.00024325       0.00004010       0.00016827 </v>
   <v>      -0.00017496      -0.00012212      -0.00078854 </v>
   <v>      -0.00002348      -0.00017646       0.00013680 </v>
   <v>       0.00034279       0.00014486      -0.00014891 </v>
   <v>       0.00006509       0.00003124       0.00025081 </v>
   <v>      -0.00027202      -0.00010192      -0.00011946 </v>
   <v>       0.00004390       0.00041825       0.00010689 </v>
   <v>       0.00024032       0.00030677       0.00002122 </v>
   <v>      -0.00046417       0.00032144       0.00004490 </v>
   <v>       0.00038678      -0.00000319      -0.00008517 </v>
  </varray>
  <varray name="stress" >
   <v>       1.49506280       0.08414988       3.57780444 </v>
   <v>       0.08414961      -0.49191326       0.65598227 </v>
   <v>       3.57780540       0.65598181      -1.07839322 </v>
  </varray>
  <energy>
   <i name="e_fr_energy">   -272.22854300 </i>
   <i name="e_wo_entrp">   -272.22854300 </i>
   <i name="e_0_energy">   -272.22854300 </i>
  </energy>
  <time name="totalsc">    7.63    7.74</time>
 </calculation>
 <calculation>
  <scstep>
   <time name="dav">    2.34    2.37</time>
   <time name="total">    2.86    2.89</time>
   <energy>
    <i name="alphaZ">    300.71219615 </i>
    <i name="ewald">  -8809.48893820 </i>
    <i name="hartreedc">  -2215.32496163 </i>
    <i name="XCdc">    537.85028275 </i>
    <i name="pawpsdc">   9817.52298505 </i>
    <i name="pawaedc">  -9961.49361477 </i>
    <i name="eentropy">     -0.00000000 </i>
    <i name="bandstr">  -2631.59642829 </i>
    <i name="atom">  12703.13999606 </i>
    <i name="e_fr_energy">   -258.67848287 </i>
    <i name="e_wo_entrp">   -258.67848287 </i>
    <i name="e_0_energy">   -258.67848287 </i>
   </energy>
  </scstep>
  <scstep>
   <time name="diag">    0.36    0.37</time>
   <time name="diis">    0.77    0.78</time>
   <time name="orth">    0.07    0.07</time>
   <time name="total">    1.65    1.66</time>
   <energy>
    <i name="alphaZ">    300.71219615 </i>
    <i name="ewald">  -8809.48893820 </i>
    <i name="hartreedc">  -2215.32530881 </i>
    <i name="XCdc">    537.85028779 </i>
    <i name="pawpsdc">   9817.52930621 </i>
    <i name="pawaedc">  -9961.49995120 </i>
    <i name="eentropy">     -0.00000000 </i>
    <i name="bandstr">  -2631.59607107 </i>
    <i name="atom">  12703.13999606 </i>
    <i name="e_fr_energy">   -258.67848307 </i>
    <i name="e_wo_entrp">   -258.67848307 </i>
    <i name="e_0_energy">   -258.67848307 </i>
   </energy>
  </scstep>
  <structure>
   <crystal>
    <varray name="basis" >
     <v>       9.66459374       0.00000000       0.00000000 </v>
     <v>       0.00000000       9.66459374       0.00000000 </v>
     <v>       0.00000000       0.00000000       9.66459374 </v>
    </varray>
    <i name="volume">    902.71531103 </i>
    <varray name="rec_basis" >
     <v>       0.10347046       0.00000000       0.00000000 </v>
     <v>       0.00000000       0.10347046       0.00000000 </v>
     <v>       0.00000000       0.00000000       0.10347046 </v>
    </varray>
   </crystal>
   <varray name="positions" >
    <v>       0.99313491       0.22564450       0.17152760 </v>
    <v>       0.97934076       0.72466326       0.68138605 </v>
    <v>       0.03488532       0.18823676       0.78248561 </v>
    <v>       0.01981835       0.70465679       0.33135625 </v>
    <v>       0.22927606       0.18958603       0.97415354 </v>
    <v>       0.15639089       0.81925115       0.03807406 </v>
    <v>       0.70165848       0.29411594       0.00796017 </v>
    <v>       0.73583035       0.69631149       0.96941219 </v>
    <v>       0.29176026       0.98147223       0.28621192 </v>
    <v>       0.38979012       0.04436273       0.71756443 </v>
    <v>       0.81492686       0.97281175       0.81323809 </v>
    <v>       0.81665847       0.02001898       0.17952166 </v>
    <v>       0.31346299       0.79264498       0.48405770 </v>
    <v>       0.29633662       0.21543149       0.51438362 </v>
    <v>       0.67561492       0.84422907       0.52631575 </v>
    <v>       0.84806101       0.31684745       0.45500762 </v>
    <v>       0.17807356       0.46560410       0.68560080 </v>
    <v>       0.20869504       0.51537921       0.30607063 </v>
    <v>       0.71516426       0.48387525       0.21164168 </v>
    <v>       0.79685450       0.52406495       0.69043313 </v>
    <v>       0.47266364       0.35013757       0.80565320 </v>
    <v>       0.46202143       0.68244714       0.17752333 </v>
    <v>       0.56001364       0.18109326       0.32916818 </v>
    <v>       0.51872753       0.69603252       0.80359387 </v>
    <v>       0.51038616       0.49922528       0.49305059 </v>
    <v>       0.50638152       0.99611888       0.00144744 </v>
    <v>       0.01853508       0.50564280       0.99052604 </v>
    <v>       0.00221324       0.01071721       0.49575448 </v>
    <v>       0.13257327       0.90245802       0.62216268 </v>
    <v>       0.11626370       0.13875804       0.36867732 </v>
    <v>       0.87490812       0.88695643       0.37882087 </v>
    <v>       0.87048513       0.12594303       0.61599385 </v>
    <v>       0.90289883       0.62350945       0.12554059 </v>
    <v>       0.89479486       0.38042914       0.87043583 </v>
    <v>       0.12604441       0.63653478       0.86409483 </v>
    <v>       0.15627663       0.38912803       0.10189818 </v>
    <v>       0.61284378       0.11492669       0.85866237 </v>
    <v>       0.63305009       0.87126594       0.11629433 </v>
    <v>       0.40510466       0.13098979       0.12959061 </v>
    <v>       0.36770488       0.87470259       0.89635369 </v>
    <v>       0.62112315       0.63908815       0.37882853 </v>
    <v>       0.63361562       0.36685898       0.60396764 </v>
    <v>       0.37942123       0.60310989       0.62554583 </v>
    <v>       0.39976656       0.37761846       0.35887457 </v>
    <v>       0.74701713       0.75328441       0.74000577 </v>
    <v>       0.76717221       0.25219906       0.23484364 </v>
    <v>       0.24448905       0.74960725       0.25748569 </v>
    <v>       0.26266733       0.24930468       0.74607176 </v>
    <v>       0.00628398       0.03131433       0.99514666 </v>
    <v>       0.00343864       0.51919830       0.50768148 </v>
    <v>       0.46966855       0.00023132       0.48629636 </v>
    <v>       0.55230599       0.51275048       0.99391238 </v>
   </varray>
  </structure>
  <varray name="forces" >
   <v>       0.00019081       0.00013139       0.00007535 </v>
   <v>      -0.00011050       0.00007206      -0.00011753 </v>
   <v>      -0.00020192       0.00025542       0.00008739 </v>
   <v>       0.00008091       0.00010570       0.00004338 </v>
   <v>       0.00002024      -0.00009999      -0.00001465 </v>
   <v>      -0.00024337      -0.00019818       0.00019358 </v>
   <v>      -0.00023143      -0.00014909       0.00002219 </v>
   <v>      -0.00001327      -0.00017704      -0.00003387 </v>
   <v>       0.00004337       0.00006889      -0.00008504 </v>
   <v>      -0.00154622      -0.00074085      -0.00019426 </v>
   <v>      -0.00001864      -0.00009338       0.00021758 </v>
   <v>       0.00006607       0.00007245      -0.00006007 </v>
   <v>       0.00023213      -0.00000183      -0.00007170 </v>
   <v>       0.00042185       0.00025657      -0.00008108 </v>
   <v>       0.00014044       0.00040294       0.00016405 </v>
   <v>       0.00015126      -0.00010452       0.00000463 </v>
   <v>      -0.00001192       0.00002324      -0.00001048 </v>
   <v>      -0.00021858      -0.00008547       0.00019805 </v>
   <v>       0.00004273       0.00006779       0.00008046 </v>
   <v>      -0.00008517      -0.00002450       0.00000901 </v>
[...]
       <r>     7.9296     9.6723   143.8114 </r>
       <r>     8.1226    11.0638   145.9464 </r>
       <r>     8.3155    15.6297   148.9649 </r>
       <r>     8.5085    16.0113   152.0557 </r>
       <r>     8.7015    15.1423   154.9811 </r>
       <r>     8.8944    15.5961   157.9921 </r>
       <r>     9.0874    15.9906   161.0805 </r>
       <r>     9.2804    18.0575   164.5654 </r>
       <r>     9.4733    19.0072   168.2374 </r>
       <r>     9.6663    18.5671   171.8219 </r>
       <r>     9.8593    16.4799   175.0029 </r>
       <r>    10.0522     5.1666   176.0000 </r>
       <r>    10.2452     0.0000   176.0000 </r>
       <r>    10.4382     0.0000   176.0000 </r>
       <r>    10.6311     0.0000   176.0000 </r>
       <r>    10.8241     0.0000   176.0000 </r>
       <r>    11.0171     0.0000   176.0000 </r>
       <r>    11.2100     0.0000   176.0000 </r>
       <r>    11.4030     0.0000   176.0000 </r>
       <r>    11.5960     0.0000   176.0000 </r>
       <r>    11.7889     0.0000   176.0000 </r>
       <r>    11.9819     0.0000   176.0000 </r>
       <r>    12.1749     0.0000   176.0000 </r>
       <r>    12.3678     0.0000   176.0000 </r>
       <r>    12.5608     0.0000   176.0000 </r>
      </set>
      <set comment="spin 2">
       <r>   -45.3292     0.0000     0.0000 </r>
       <r>   -45.1363     0.0000     0.0000 </r>
       <r>   -44.9433     0.0000     0.0000 </r>
       <r>   -44.7503     0.0000     0.0000 </r>
       <r>   -44.5574     0.0000     0.0000 </r>
       <r>   -44.3644     0.0000     0.0000 </r>
       <r>   -44.1714     0.0000     0.0000 </r>
       <r>   -43.9785     0.0000     0.0000 </r>
       <r>   -43.7855     0.0000     0.0000 </r>
       <r>   -43.5925     0.0000     0.0000 </r>
       <r>   -43.3996     0.0000     0.0000 </r>
       <r>   -43.2066     0.0000     0.0000 </r>
       <r>   -43.0136     0.0000     0.0000 </r>
       <r>   -42.8207     0.0000     0.0000 </r>
       <r>   -42.6277     5.1803     0.9996 </r>
       <r>   -42.4347    42.8807     9.2746 </r>
       <r>   -42.2418    65.1759    21.8550 </r>
       <r>   -42.0488    11.0389    24.0000 </r>
       <r>   -41.8558     0.0000    24.0000 </r>
       <r>   -41.6629     0.0000    24.0000 </r>
       <r>   -41.4699     0.0000    24.0000 </r>
       <r>   -41.2769     0.0000    24.0000 </r>
       <r>   -41.0840     0.0000    24.0000 </r>
       <r>   -40.8910     0.0000    24.0000 </r>
       <r>   -40.6980     0.0000    24.0000 </r>
       <r>   -40.5051     0.0000    24.0000 </r>
       <r>   -40.3121     0.0000    24.0000 </r>
       <r>   -40.1191     0.0000    24.0000 </r>
       <r>   -39.9262     0.0000    24.0000 </r>
       <r>   -39.7332     0.0000    24.0000 </r>
       <r>   -39.5402     0.0000    24.0000 </r>
       <r>   -39.3473     0.0000    24.0000 </r>
       <r>   -39.1543     0.0000    24.0000 </r>
       <r>   -38.9613     0.0000    24.0000 </r>
       <r>   -38.7684     0.0000    24.0000 </r>
       <r>   -38.5754     0.0000    24.0000 </r>
       <r>   -38.3824     0.0000    24.0000 </r>
       <r>   -38.1895     0.0000    24.0000 </r>
       <r>   -37.9965     0.0000    24.0000 </r>
       <r>   -37.8035     0.0000    24.0000 </r>
       <r>   -37.6106     0.0000    24.0000 </r>
       <r>   -37.4176     0.0000    24.0000 </r>
       <r>   -37.2246     0.0000    24.0000 </r>
       <r>   -37.0317     0.0000    24.0000 </r>
       <r>   -36.8387     0.0000    24.0000 </r>
       <r>   -36.6457     0.0000    24.0000 </r>
       <r>   -36.4528     0.0000    24.0000 </r>
       <r>   -36.2598     0.0000    24.0000 </r>
       <r>   -36.0668     0.0000    24.0000 </r>
       <r>   -35.8739     0.0000    24.0000 </r>
       <r>   -35.6809     0.0000    24.0000 </r>
       <r>   -35.4879     0.0000    24.0000 </r>
       <r>   -35.2950     0.0000    24.0000 </r>
       <r>   -35.1020     0.0000    24.0000 </r>
       <r>   -34.9090     0.0000    24.0000 </r>
       <r>   -34.7161     0.0000    24.0000 </r>
       <r>   -34.5231     0.0000    24.0000 </r>
       <r>   -34.3301     0.0000    24.0000 </r>
       <r>   -34.1372     0.0000    24.0000 </r>
       <r>   -33.9442     0.0000    24.0000 </r>
       <r>   -33.7512     0.0000    24.0000 </r>
       <r>   -33.5583     0.0000    24.0000 </r>
       <r>   -33.3653     0.0000    24.0000 </r>
       <r>   -33.1723     0.0000    24.0000 </r>
       <r>   -32.9794     0.0000    24.0000 </r>
       <r>   -32.7864     0.0000    24.0000 </r>
       <r>   -32.5934     0.0000    24.0000 </r>
       <r>   -32.4005     0.0000    24.0000 </r>
       <r>   -32.2075     0.0000    24.0000 </r>
       <r>   -32.0145     0.0000    24.0000 </r>
       <r>   -31.8216     0.0000    24.0000 </r>
       <r>   -31.6286     0.0000    24.0000 </r>
       <r>   -31.4356     0.0000    24.0000 </r>
       <r>   -31.2427     0.0000    24.0000 </r>
       <r>   -31.0497     0.0000    24.0000 </r>
       <r>   -30.8567     0.0000    24.0000 </r>
       <r>   -30.6638     0.0000    24.0000 </r>
       <r>   -30.4708     0.0000    24.0000 </r>
       <r>   -30.2778     0.0000    24.0000 </r>
       <r>   -30.0849     0.0000    24.0000 </r>
       <r>   -29.8919     0.0000    24.0000 </r>
       <r>   -29.6989     0.0000    24.0000 </r>
       <r>   -29.5060     0.0000    24.0000 </r>
       <r>   -29.3130     0.0000    24.0000 </r>
       <r>   -29.1200     0.0000    24.0000 </r>
       <r>   -28.9271     0.0000    24.0000 </r>
       <r>   -28.7341     0.0000    24.0000 </r>
       <r>   -28.5411     0.0000    24.0000 </r>
       <r>   -28.3482     0.0000    24.0000 </r>
       <r>   -28.1552     0.0000    24.0000 </r>
       <r>   -27.9622     0.0000    24.0000 </r>
       <r>   -27.7693     0.0000    24.0000 </r>
       <r>   -27.5763     0.0000    24.0000 </r>
       <r>   -27.3833     0.0000    24.0000 </r>
       <r>   -27.1904     0.0000    24.0000 </r>
       <r>   -26.9974     0.0000    24.0000 </r>
       <r>   -26.8044     0.0000    24.0000 </r>
       <r>   -26.6115     0.0000    24.0000 </r>
       <r>   -26.4185     0.0000    24.0000 </r>
       <r>   -26.2255     0.0000    24.0000 </r>
       <r>   -26.0326     0.0000    24.0000 </r>
       <r>   -25.8396     0.0000    24.0000 </r>
       <r>   -25.6466     0.0000    24.0000 </r>
       <r>   -25.4537     0.0000    24.0000 </r>
       <r>   -25.2607     0.0000    24.0000 </r>
       <r>   -25.0677     0.0000    24.0000 </r>
       <r>   -24.8748     0.0000    24.0000 </r>
       <r>   -24.6818     0.0000    24.0000 </r>
       <r>   -24.4888     0.0000    24.0000 </r>
       <r>   -24.2959     0.0000    24.0000 </r>
       <r>   -24.1029     0.0000    24.0000 </r>
       <r>   -23.9099     0.0000    24.0000 </r>
       <r>   -23.7170     0.0000    24.0000 </r>
       <r>   -23.5240     0.0000    24.0000 </r>
       <r>   -23.3310     0.0000    24.0000 </r>
       <r>   -23.1381     0.0000    24.0000 </r>
       <r>   -22.9451     0.0000    24.0000 </r>
       <r>   -22.7521     0.0000    24.0000 </r>
       <r>   -22.5592     0.0000    24.0000 </r>
       <r>   -22.3662     0.0000    24.0000 </r>
       <r>   -22.1732     0.0000    24.0000 </r>
       <r>   -21.9803     0.0000    24.0000 </r>
       <r>   -21.7873     0.0000    24.0000 </r>
       <r>   -21.5943     0.0000    24.0000 </r>
       <r>   -21.4014     0.0000    24.0000 </r>
       <r>   -21.2084     0.0000    24.0000 </r>
       <r>   -21.0154     0.0000    24.0000 </r>
       <r>   -20.8225     0.0000    24.0000 </r>
       <r>   -20.6295     0.0000    24.0000 </r>
       <r>   -20.4365     0.0000    24.0000 </r>
       <r>   -20.2436     0.0000    24.0000 </r>
       <r>   -20.0506     0.0000    24.0000 </r>
       <r>   -19.8576     0.0000    24.0000 </r>
       <r>   -19.6647     0.0000    24.0000 </r>
       <r>   -19.4717     0.0000    24.0000 </r>
       <r>   -19.2787     0.0000    24.0000 </r>
       <r>   -19.0858     0.0000    24.0000 </r>
       <r>   -18.8928     0.0000    24.0000 </r>
       <r>   -18.6998     0.0000    24.0000 </r>
       <r>   -18.5069     0.0000    24.0000 </r>
       <r>   -18.3139     0.0000    24.0000 </r>
       <r>   -18.1209     0.0000    24.0000 </r>
       <r>   -17.9280     0.0000    24.0000 </r>
       <r>   -17.7350     0.0000    24.0000 </r>
       <r>   -17.5420     0.0000    24.0000 </r>
       <r>   -17.3491     0.0000    24.0000 </r>
       <r>   -17.1561     0.0000    24.0000 </r>
       <r>   -16.9631     0.0000    24.0000 </r>
       <r>   -16.7702     0.0000    24.0000 </r>
       <r>   -16.5772     0.0000    24.0000 </r>
       <r>   -16.3842     0.0000    24.0000 </r>
       <r>   -16.1913     0.0000    24.0000 </r>
       <r>   -15.9983     0.0000    24.0000 </r>
       <r>   -15.8053     0.0000    24.0000 </r>
       <r>   -15.6124     0.0000    24.0000 </r>
       <r>   -15.4194     0.0000    24.0000 </r>
       <r>   -15.2264     0.0000    24.0000 </r>
       <r>   -15.0335     0.0000    24.0000 </r>
       <r>   -14.8405     0.0000    24.0000 </r>
       <r>   -14.6475     0.0000    24.0000 </r>
       <r>   -14.4546     0.0000    24.0000 </r>
       <r>   -14.2616     0.0000    24.0000 </r>
       <r>   -14.0686     0.0000    24.0000 </r>
       <r>   -13.8757     0.0000    24.0000 </r>
       <r>   -13.6827     0.0000    24.0000 </r>
       <r>   -13.4897     0.0000    24.0000 </r>
       <r>   -13.2968     0.0000    24.0000 </r>
       <r>   -13.1038     0.0479    24.0092 </r>
       <r>   -12.9108    19.7292    27.8163 </r>
       <r>   -12.7179     3.2328    28.4445 </r>
       <r>   -12.5249    18.3983    31.9948 </r>
       <r>   -12.3319     0.0000    32.0000 </r>
       <r>   -12.1390     0.0000    32.0000 </r>
       <r>   -11.9460     0.0000    32.0000 </r>
       <r>   -11.7530     0.0000    32.0000 </r>
       <r>   -11.5601     0.0000    32.0000 </r>
       <r>   -11.3671     0.0000    32.0000 </r>
       <r>   -11.1741     0.0000    32.0000 </r>
       <r>   -10.9812     0.0000    32.0000 </r>
       <r>   -10.7882     0.0000    32.0000 </r>
       <r>   -10.5952     0.0000    32.0000 </r>
       <r>   -10.4023     0.0000    32.0000 </r>
       <r>   -10.2093    14.1086    34.7225 </r>
       <r>   -10.0163    15.9976    37.8098 </r>
       <r>    -9.8234    31.2930    43.8484 </r>
       <r>    -9.6304     0.7828    44.0000 </r>
       <r>    -9.4374     0.0000    44.0000 </r>
       <r>    -9.2445     0.0000    44.0000 </r>
       <r>    -9.0515     0.0000    44.0000 </r>
       <r>    -8.8585     0.0000    44.0000 </r>
       <r>    -8.6656     0.0000    44.0000 </r>
       <r>    -8.4726     0.0000    44.0000 </r>
       <r>    -8.2796    19.0218    47.6706 </r>
       <r>    -8.0867     1.6776    48.0000 </r>
       <r>    -7.8937     0.0000    48.0000 </r>
       <r>    -7.7007     0.0000    48.0000 </r>
       <r>    -7.5078     0.0000    48.0000 </r>
       <r>    -7.3148     0.0000    48.0000 </r>
       <r>    -7.1218     0.0000    48.0000 </r>
       <r>    -6.9289     0.0000    48.0000 </r>
       <r>    -6.7359     0.0000    48.0000 </r>
       <r>    -6.5429     0.0000    48.0000 </r>
       <r>    -6.3500     0.0000    48.0000 </r>
       <r>    -6.1570     0.0596    48.0115 </r>
       <r>    -5.9640     5.1226    49.0000 </r>
       <r>    -5.7711     0.0099    49.0019 </r>
       <r>    -5.5781    13.9903    51.7016 </r>
       <r>    -5.3851     1.5335    52.0000 </r>
       <r>    -5.1922     0.0000    52.0000 </r>
       <r>    -4.9992     0.0000    52.0000 </r>
       <r>    -4.8062     0.0000    52.0000 </r>
       <r>    -4.6133     0.0000    52.0000 </r>
       <r>    -4.4203     0.0000    52.0000 </r>
       <r>    -4.2273     0.0000    52.0000 </r>
       <r>    -4.0344     0.0000    52.0000 </r>
       <r>    -3.8414     0.0000    52.0000 </r>
       <r>    -3.6484     0.0000    52.0000 </r>
       <r>    -3.4555     0.0000    52.0000 </r>
       <r>    -3.2625     0.3555    52.0686 </r>
       <r>    -3.0695    15.1911    55.0000 </r>
       <r>    -2.8766     0.2266    55.0437 </r>
       <r>    -2.6836    10.5953    57.0883 </r>
       <r>    -2.4906    10.6050    59.1347 </r>
       <r>    -2.2977    20.4121    63.0792 </r>
       <r>    -2.1047     4.7698    64.0000 </r>
       <r>    -1.9117     0.0000    64.0000 </r>
       <r>    -1.7188     0.0000    64.0000 </r>
       <r>    -1.5258     3.1289    64.6038 </r>
       <r>    -1.3328    31.2474    70.6335 </r>
       <r>    -1.1399    20.0711    74.5102 </r>
       <r>    -0.9469     7.7178    76.0000 </r>
       <r>    -0.7539     0.0000    76.0000 </r>
       <r>    -0.5610     3.0910    76.5965 </r>
       <r>    -0.3680    13.2523    79.1537 </r>
       <r>    -0.1750    12.1051    81.4896 </r>
       <r>     0.0179    24.2051    86.1604 </r>
       <r>     0.2109    26.9629    91.3660 </r>
       <r>     0.4039    19.8521    95.2008 </r>
       <r>     0.5968     4.1345    96.0000 </r>
       <r>     0.7898     7.0267    97.3559 </r>
       <r>     0.9828    20.4223   101.2986 </r>
       <r>     1.1757    22.3066   105.6077 </r>
       <r>     1.3687    26.4691   110.7184 </r>
       <r>     1.5617    31.5090   116.7997 </r>
       <r>     1.7546    13.4584   119.3988 </r>
       <r>     1.9476     3.0957   120.0000 </r>
       <r>     2.1406     0.0000   120.0000 </r>
       <r>     2.3335     0.0000   120.0000 </r>
       <r>     2.5265     0.0000   120.0000 </r>
       <r>     2.7195     0.0000   120.0000 </r>
       <r>     2.9124     0.0000   120.0000 </r>
       <r>     3.1054     0.0000   120.0000 </r>
       <r>     3.2984     0.0000   120.0000 </r>
       <r>     3.4913     0.0000   120.0000 </r>
       <r>     3.6843     0.0000   120.0000 </r>
       <r>     3.8773     0.0000   120.0000 </r>
       <r>     4.0702     0.0000   120.0000 </r>
       <r>     4.2632     0.0000   120.0000 </r>
       <r>     4.4562     3.4948   120.6744 </r>
       <r>     4.6491     1.6874   121.0000 </r>
       <r>     4.8421     0.0000   121.0000 </r>
       <r>     5.0351     0.0000   121.0000 </r>
       <r>     5.2280     1.4078   121.2717 </r>
       <r>     5.4210    13.8667   123.9475 </r>
       <r>     5.6140     0.2445   124.0000 </r>
       <r>     5.8069     0.0004   124.0001 </r>
       <r>     5.9999    10.9834   126.1195 </r>
       <r>     6.1929    12.2575   128.4850 </r>
       <r>     6.3859     7.8392   130.0000 </r>
       <r>     6.5788     8.7834   131.6949 </r>
       <r>     6.7718     7.9793   133.2377 </r>
       <r>     6.9648    14.2406   135.9857 </r>
       <r>     7.1577     5.1573   136.9809 </r>
       <r>     7.3507     0.2387   137.0278 </r>
       <r>     7.5437    12.9988   139.5361 </r>
       <r>     7.7366    12.4715   141.9428 </r>
       <r>     7.9296     9.6723   143.8114 </r>
       <r>     8.1226    11.0638   145.9464 </r>
       <r>     8.3155    15.6297   148.9649 </r>
       <r>     8.5085    16.0113   152.0557 </r>
       <r>     8.7015    15.1423   154.9811 </r>
       <r>     8.8944    15.5961   157.9921 </r>
       <r>     9.0874    15.9906   161.0805 </r>
       <r>     9.2804    18.0575   164.5654 </r>
       <r>     9.4733    19.0065   168.2373 </r>
       <r>     9.6663    18.6015   171.8284 </r>
       <r>     9.8593    16.1602   174.9477 </r>
       <r>    10.0522     5.4526   176.0000 </r>
       <r>    10.2452     0.0000   176.0000 </r>
       <r>    10.4382     0.0000   176.0000 </r>
       <r>    10.6311     0.0000   176.0000 </r>
       <r>    10.8241     0.0000   176.0000 </r>
       <r>    11.0171     0.0000   176.0000 </r>
       <r>    11.2100     0.0000   176.0000 </r>
       <r>    11.4030     0.0000   176.0000 </r>
       <r>    11.5960     0.0000   176.0000 </r>
       <r>    11.7889     0.0000   176.0000 </r>
       <r>    11.9819     0.0000   176.0000 </r>
       <r>    12.1749     0.0000   176.0000 </r>
       <r>    12.3678     0.0000   176.0000 </r>
       <r>    12.5608     0.0000   176.0000 </r>
      </set>
     </set>
    </array>
   </total>
  </dos>
 </calculation>
 <structure name="finalpos" >
  <crystal>
   <varray name="basis" >
    <v>       9.66459374       0.00000000       0.00000000 </v>
    <v>       0.00000000       9.66459374       0.00000000 </v>
    <v>       0.00000000       0.00000000       9.66459374 </v>
   </varray>
   <i name="volume">    902.71531103 </i>
   <varray name="rec_basis" >
    <v>       0.10347046       0.00000000       0.00000000 </v>
    <v>       0.00000000       0.10347046       0.00000000 </v>
    <v>       0.00000000       0.00000000       0.10347046 </v>
   </varray>
  </crystal>
  <varray name="positions" >
   <v>       0.99313953       0.22564821       0.17152943 </v>
   <v>       0.97933839       0.72466535       0.68138287 </v>
   <v>       0.03488031       0.18824403       0.78248788 </v>
   <v>       0.01982052       0.70465973       0.33135773 </v>
   <v>       0.22927689       0.18958323       0.97415270 </v>
   <v>       0.15638380       0.81924528       0.03807983 </v>
   <v>       0.70165222       0.29411205       0.00796192 </v>
   <v>       0.73583005       0.69630700       0.96941177 </v>
   <v>       0.29176170       0.98147375       0.28620956 </v>
   <v>       0.38974831       0.04434304       0.71755889 </v>
   <v>       0.81492656       0.97280896       0.81324398 </v>
   <v>       0.81666049       0.02002072       0.17952011 </v>
   <v>       0.31346964       0.79264492       0.48405535 </v>
   <v>       0.29634862       0.21543867       0.51438194 </v>
   <v>       0.67561917       0.84424017       0.52632003 </v>
   <v>       0.84806543       0.31684456       0.45500733 </v>
   <v>       0.17807342       0.46560423       0.68560077 </v>
   <v>       0.20868870       0.51537716       0.30607678 </v>
   <v>       0.71516556       0.48387742       0.21164428 </v>
   <v>       0.79685243       0.52406483       0.69043329 </v>
   <v>       0.47266487       0.35012287       0.80564987 </v>
   <v>       0.46202081       0.68244445       0.17752368 </v>
   <v>       0.56001942       0.18109773       0.32916922 </v>
   <v>       0.51872581       0.69602927       0.80359542 </v>
   <v>       0.51038929       0.49923088       0.49304687 </v>
   <v>       0.50638392       0.99611673       0.00144850 </v>
   <v>       0.01853532       0.50564458       0.99052625 </v>
   <v>       0.00221767       0.01071843       0.49575448 </v>
   <v>       0.13257541       0.90245603       0.62215896 </v>
   <v>       0.11626806       0.13876231       0.36868199 </v>
   <v>       0.87491402       0.88696029       0.37882104 </v>
   <v>       0.87048679       0.12594032       0.61599661 </v>
   <v>       0.90290153       0.62350945       0.12553957 </v>
   <v>       0.89479036       0.38043141       0.87043961 </v>
   <v>       0.12603862       0.63653497       0.86409199 </v>
   <v>       0.15627926       0.38913002       0.10189454 </v>
   <v>       0.61283895       0.11492166       0.85865620 </v>
   <v>       0.63305196       0.87126724       0.11628782 </v>
   <v>       0.40510742       0.13099202       0.12958991 </v>
   <v>       0.36770390       0.87469745       0.89636168 </v>
   <v>       0.62112359       0.63909127       0.37883321 </v>
   <v>       0.63361560       0.36686000       0.60396349 </v>
   <v>       0.37942191       0.60310806       0.62554476 </v>
   <v>       0.39977055       0.37762349       0.35886729 </v>
   <v>       0.74701632       0.75328239       0.74000738 </v>
   <v>       0.76717757       0.25220150       0.23484217 </v>
   <v>       0.24449029       0.74960740       0.25748898 </v>
   <v>       0.26266251       0.24930340       0.74606979 </v>
   <v>       0.00628553       0.03131646       0.99514769 </v>
   <v>       0.00344165       0.51919923       0.50767937 </v>
   <v>       0.46966713       0.00023705       0.48629777 </v>
   <v>       0.55230597       0.51274836       0.99391257 </v>
  </varray>
 </structure>
</modeling>
