unknown system                          
           1
     9.664594    0.000000    0.000000
     0.000000    9.664594    0.000000
     0.000000    0.000000    9.664594
   Li   P    S    Cl
    24     4    20     4
Direct configuration=     1
   0.99313253  0.22564220  0.17152669
   0.97934217  0.72466191  0.68138793
   0.03488805  0.18823285  0.78248457
   0.01981702  0.70465494  0.33135524
   0.22927544  0.18958762  0.97415418
   0.15639444  0.81925387  0.03807106
   0.70166168  0.29411789  0.00795923
   0.73583048  0.69631410  0.96941285
   0.29175953  0.98147108  0.28621338
   0.38981114  0.04437235  0.71756692
   0.81492713  0.97281274  0.81323502
   0.81665707  0.02001747  0.17952247
   0.31345954  0.79264499  0.48405895
   0.29633038  0.21542745  0.51438457
   0.67561273  0.84422299  0.52631331
   0.84805855  0.31684919  0.45500758
   0.17807354  0.46560430  0.68560087
   0.20869807  0.51538037  0.30606742
   0.71516352  0.48387450  0.21164039
   0.79685565  0.52406521  0.69043290
   0.47266309  0.35014510  0.80565499
   0.46202231  0.68244878  0.17752324
   0.56001090  0.18109052  0.32916766
   0.51872881  0.69603424  0.80359320
   0.51039133  0.49922982  0.49304860
   0.50638537  0.99611387  0.00145214
   0.01853671  0.50564621  0.99052723
   0.00221323  0.01071334  0.49575424
   0.13257382  0.90245764  0.62216573
   0.11626385  0.13875839  0.36867231
   0.87490379  0.88695296  0.37881925
   0.87048117  0.12594780  0.61599566
   0.90289564  0.62351002  0.12554196
   0.89479337  0.38042395  0.87043060
   0.12604781  0.63653525  0.86409494
   0.15627686  0.38912429  0.10190184
   0.61284954  0.11493333  0.85866184
   0.63304756  0.87126705  0.11629605
   0.40510067  0.13099137  0.12959332
   0.36770165  0.87470256  0.89634671
   0.62112101  0.63908405  0.37882717
   0.63361833  0.36685474  0.60397311
   0.37941691  0.60311322  0.62554948
   0.39976053  0.37761206  0.35887463
   0.74701784  0.75328495  0.74000533
   0.76716980  0.25219786  0.23484385
   0.24448827  0.74960733  0.25748466
   0.26266957  0.24930497  0.74607261
   0.00628256  0.03131604  0.99514654
   0.00343750  0.51919948  0.50768414
   0.46966538  0.00022785  0.48629518
   0.55230993  0.51275301  0.99391138
Direct configuration=     2
   0.99313320  0.22564290  0.17152694
   0.97934173  0.72466233  0.68138736
   0.03488720  0.18823406  0.78248486
   0.01981744  0.70465550  0.33135556
   0.22927565  0.18958715  0.97415396
   0.15639343  0.81925314  0.03807194
   0.70166076  0.29411732  0.00795947
   0.73583045  0.69631329  0.96941254
   0.29175973  0.98147150  0.28621293
   0.38980506  0.04436962  0.71756627
   0.81492703  0.97281259  0.81323586
   0.81665755  0.02001805  0.17952224
   0.31346052  0.79264499  0.48405861
   0.29633224  0.21542871  0.51438426
   0.67561338  0.84422487  0.52631411
   0.84805926  0.31684865  0.45500767
   0.17807357  0.46560419  0.68560083
   0.20869723  0.51537999  0.30606837
   0.71516375  0.48387459  0.21164071
   0.79685532  0.52406506  0.69043302
   0.47266326  0.35014287  0.80565444
   0.46202191  0.68244826  0.17752322
   0.56001162  0.18109142  0.32916781
   0.51872835  0.69603376  0.80359336
   0.51038838  0.49922668  0.49305011
   0.50638298  0.99611679  0.00144956
   0.01853594  0.50564423  0.99052654
   0.00221277  0.01071528  0.49575444
   0.13257351  0.90245790  0.62216476
   0.11626340  0.13875787  0.36867420
   0.87490516  0.88695414  0.37881989
   0.87048292  0.12594576  0.61599449
   0.90289678  0.62350992  0.12554161
   0.89479450  0.38042619  0.87043271
   0.12604685  0.63653512  0.86409508
   0.15627653  0.38912588  0.10190048
   0.61284728  0.11493067  0.85866272
   0.63304893  0.87126611  0.11629618
   0.40510238  0.13099034  0.12959205
   0.36770324  0.87470303  0.89634927
   0.62112229  0.63908611  0.37882707
   0.63361702  0.36685670  0.60397086
   0.37941885  0.60311187  0.62554788
   0.39976307  0.37761470  0.35887536
   0.74701758  0.75328490  0.74000537
   0.76717042  0.25219819  0.23484391
   0.24448852  0.74960727  0.25748483
   0.26266894  0.24930496  0.74607239
   0.00628308  0.03131497  0.99514648
   0.00343772  0.51919873  0.50768307
   0.46966707  0.00022891  0.48629561
   0.55230801  0.51275201  0.99391185
Direct configuration=     3
   0.99313344  0.22564315  0.17152702
   0.97934158  0.72466247  0.68138716
   0.03488690  0.18823448  0.78248497
   0.01981759  0.70465570  0.33135568
   0.22927573  0.18958699  0.97415389
   0.15639308  0.81925288  0.03807225
   0.70166044  0.29411712  0.00795956
   0.73583044  0.69631300  0.96941243
   0.29175980  0.98147165  0.28621277
   0.38980293  0.04436866  0.71756605
   0.81492699  0.97281254  0.81323615
   0.81665772  0.02001825  0.17952216
   0.31346087  0.79264499  0.48405850
   0.29633289  0.21542915  0.51438416
   0.67561361  0.84422553  0.52631439
   0.84805951  0.31684846  0.45500770
   0.17807358  0.46560415  0.68560082
   0.20869694  0.51537986  0.30606871
   0.71516383  0.48387463  0.21164083
   0.79685520  0.52406500  0.69043306
   0.47266331  0.35014209  0.80565425
   0.46202176  0.68244808  0.17752321
   0.56001187  0.18109174  0.32916786
   0.51872820  0.69603359  0.80359341
   0.51038735  0.49922559  0.49305063
   0.50638215  0.99611781  0.00144865
   0.01853566  0.50564354  0.99052629
   0.00221260  0.01071596  0.49575450
   0.13257341  0.90245798  0.62216443
   0.11626324  0.13875769  0.36867486
   0.87490564  0.88695455  0.37882011
   0.87048354  0.12594505  0.61599408
   0.90289719  0.62350988  0.12554148
   0.89479490  0.38042698  0.87043346
   0.12604651  0.63653507  0.86409513
   0.15627642  0.38912644  0.10190001
   0.61284649  0.11492974  0.85866303
   0.63304941  0.87126578  0.11629622
   0.40510298  0.13098998  0.12959161
   0.36770380  0.87470319  0.89635016
   0.62112274  0.63908683  0.37882703
   0.63361655  0.36685739  0.60397007
   0.37941952  0.60311140  0.62554732
   0.39976396  0.37761563  0.35887561
   0.74701749  0.75328489  0.74000539
   0.76717064  0.25219831  0.23484393
   0.24448860  0.74960725  0.25748489
   0.26266872  0.24930495  0.74607231
   0.00628326  0.03131459  0.99514646
   0.00343779  0.51919846  0.50768270
   0.46966767  0.00022928  0.48629575
   0.55230734  0.51275166  0.99391202
Direct configuration=     4
   0.99313391  0.22564364  0.17152720
   0.97934128  0.72466276  0.68138677
   0.03488630  0.18823533  0.78248517
   0.01981788  0.70465610  0.33135591
   0.22927588  0.18958666  0.97415374
   0.15639237  0.81925237  0.03807286
   0.70165979  0.29411673  0.00795973
   0.73583041  0.69631244  0.96941222
   0.29175993  0.98147195  0.28621246
   0.38979867  0.04436674  0.71756559
   0.81492692  0.97281244  0.81323674
   0.81665805  0.02001865  0.17952200
   0.31346156  0.79264499  0.48405826
   0.29633419  0.21543004  0.51438394
   0.67561406  0.84422685  0.52631494
   0.84806000  0.31684808  0.45500776
   0.17807360  0.46560407  0.68560080
   0.20869635  0.51537959  0.30606938
   0.71516398  0.48387470  0.21164106
   0.79685497  0.52406490  0.69043314
   0.47266343  0.35014053  0.80565386
   0.46202148  0.68244771  0.17752320
   0.56001238  0.18109237  0.32916796
   0.51872788  0.69603325  0.80359352
   0.51038529  0.49922339  0.49305169
   0.50638048  0.99611985  0.00144684
   0.01853512  0.50564216  0.99052581
   0.00221228  0.01071732  0.49575464
   0.13257320  0.90245816  0.62216375
   0.11626292  0.13875732  0.36867619
   0.87490660  0.88695537  0.37882056
   0.87048477  0.12594362  0.61599327
   0.90289799  0.62350981  0.12554123
   0.89479569  0.38042855  0.87043494
   0.12604584  0.63653498  0.86409522
   0.15627619  0.38912756  0.10189906
   0.61284491  0.11492789  0.85866365
   0.63305037  0.87126512  0.11629631
   0.40510417  0.13098926  0.12959072
   0.36770491  0.87470352  0.89635196
   0.62112364  0.63908828  0.37882696
   0.63361563  0.36685876  0.60396849
   0.37942088  0.60311045  0.62554620
   0.39976575  0.37761747  0.35887612
   0.74701731  0.75328486  0.74000542
   0.76717108  0.25219855  0.23484397
   0.24448878  0.74960721  0.25748500
   0.26266829  0.24930494  0.74607215
   0.00628362  0.03131384  0.99514643
   0.00343795  0.51919793  0.50768195
   0.46966885  0.00023003  0.48629605
   0.55230599  0.51275097  0.99391235
Direct configuration=     5
   0.99313491  0.22564450  0.17152760
   0.97934076  0.72466326  0.68138605
   0.03488532  0.18823676  0.78248561
   0.01981835  0.70465679  0.33135625
   0.22927606  0.18958603  0.97415354
   0.15639089  0.81925115  0.03807406
   0.70165848  0.29411594  0.00796017
   0.73583035  0.69631149  0.96941219
   0.29176026  0.98147223  0.28621192
   0.38979012  0.04436273  0.71756443
   0.81492686  0.97281175  0.81323809
   0.81665847  0.02001898  0.17952166
   0.31346299  0.79264498  0.48405770
   0.29633662  0.21543149  0.51438362
   0.67561492  0.84422907  0.52631575
   0.84806101  0.31684745  0.45500762
   0.17807356  0.46560410  0.68560080
   0.20869504  0.51537921  0.30607063
   0.71516426  0.48387525  0.21164168
   0.79685450  0.52406495  0.69043313
   0.47266364  0.35013757  0.80565320
   0.46202143  0.68244714  0.17752333
   0.56001364  0.18109326  0.32916818
   0.51872753  0.69603252  0.80359387
   0.51038616  0.49922528  0.49305059
   0.50638152  0.99611888  0.00144744
   0.01853508  0.50564280  0.99052604
   0.00221324  0.01071721  0.49575448
   0.13257327  0.90245802  0.62216268
   0.11626370  0.13875804  0.36867732
   0.87490812  0.88695643  0.37882087
   0.87048513  0.12594303  0.61599385
   0.90289883  0.62350945  0.12554059
   0.89479486  0.38042914  0.87043583
   0.12604441  0.63653478  0.86409483
   0.15627663  0.38912803  0.10189818
   0.61284378  0.11492669  0.85866237
   0.63305009  0.87126594  0.11629433
   0.40510466  0.13098979  0.12959061
   0.36770488  0.87470259  0.89635369
   0.62112315  0.63908815  0.37882853
   0.63361562  0.36685898  0.60396764
   0.37942123  0.60310989  0.62554583
   0.39976656  0.37761846  0.35887457
   0.74701713  0.75328441  0.74000577
   0.76717221  0.25219906  0.23484364
   0.24448905  0.74960725  0.25748569
   0.26266733  0.24930468  0.74607176
   0.00628398  0.03131433  0.99514666
   0.00343864  0.51919830  0.50768148
   0.46966855  0.00023132  0.48629636
   0.55230599  0.51275048  0.99391238
Direct configuration=     6
   0.99313608  0.22564550  0.17152808
   0.97934016  0.72466384  0.68138519
   0.03488417  0.18823845  0.78248612
   0.01981891  0.70465760  0.33135666
   0.22927628  0.18958529  0.97415331
   0.15638915  0.81924972  0.03807548
   0.70165694  0.29411501  0.00796069
   0.73583027  0.69631037  0.96941215
   0.29176065  0.98147256  0.28621129
   0.38978005  0.04435800  0.71756307
   0.81492679  0.97281095  0.81323967
   0.81665896  0.02001937  0.17952125
   0.31346468  0.79264497  0.48405704
   0.29633949  0.21543319  0.51438324
   0.67561593  0.84423168  0.52631671
   0.84806219  0.31684671  0.45500746
   0.17807352  0.46560414  0.68560081
   0.20869350  0.51537877  0.30607212
   0.71516459  0.48387591  0.21164240
   0.79685395  0.52406501  0.69043312
   0.47266388  0.35013409  0.80565243
   0.46202137  0.68244647  0.17752348
   0.56001512  0.18109431  0.32916844
   0.51872711  0.69603166  0.80359429
   0.51038720  0.49922751  0.49304929
   0.50638275  0.99611773  0.00144815
   0.01853504  0.50564356  0.99052632
   0.00221436  0.01071708  0.49575429
   0.13257336  0.90245786  0.62216142
   0.11626462  0.13875889  0.36867866
   0.87490990  0.88695766  0.37882124
   0.87048556  0.12594234  0.61599455
   0.90289982  0.62350904  0.12553983
   0.89479388  0.38042983  0.87043687
   0.12604274  0.63653455  0.86409436
   0.15627715  0.38912858  0.10189716
   0.61284244  0.11492528  0.85866086
   0.63304976  0.87126691  0.11629200
   0.40510523  0.13099041  0.12959048
   0.36770485  0.87470150  0.89635573
   0.62112256  0.63908800  0.37883037
   0.63361561  0.36685924  0.60396664
   0.37942164  0.60310923  0.62554540
   0.39976751  0.37761962  0.35887274
   0.74701692  0.75328388  0.74000618
   0.76717354  0.25219966  0.23484325
   0.24448938  0.74960731  0.25748650
   0.26266620  0.24930438  0.74607129
   0.00628440  0.03131491  0.99514693
   0.00343944  0.51919874  0.50768093
   0.46966820  0.00023284  0.48629673
   0.55230600  0.51274990  0.99391240
Direct configuration=     7
   0.99313842  0.22564752  0.17152903
   0.97933895  0.72466501  0.68138349
   0.03488186  0.18824182  0.78248715
   0.01982001  0.70465922  0.33135747
   0.22927671  0.18958381  0.97415285
   0.15638567  0.81924686  0.03807831
   0.70165385  0.29411315  0.00796174
   0.73583011  0.69630813  0.96941207
   0.29176142  0.98147322  0.28621003
   0.38975992  0.04434854  0.71756034
   0.81492665  0.97280934  0.81324285
   0.81665993  0.02002014  0.17952044
   0.31346805  0.79264495  0.48405573
   0.29634523  0.21543660  0.51438248
   0.67561794  0.84423691  0.52631861
   0.84806456  0.31684522  0.45500714
   0.17807344  0.46560423  0.68560082
   0.20869042  0.51537787  0.30607508
   0.71516525  0.48387722  0.21164386
   0.79685285  0.52406514  0.69043311
   0.47266437  0.35012712  0.80565089
   0.46202125  0.68244514  0.17752379
   0.56001808  0.18109641  0.32916896
   0.51872627  0.69602993  0.80359512
   0.51038926  0.49923196  0.49304670
   0.50638520  0.99611544  0.00144956
   0.01853494  0.50564509  0.99052687
   0.00221661  0.01071682  0.49575391
   0.13257354  0.90245754  0.62215889
   0.11626646  0.13876058  0.36868134
   0.87491346  0.88696014  0.37882198
   0.87048641  0.12594096  0.61599593
   0.90290179  0.62350820  0.12553833
   0.89479192  0.38043123  0.87043897
   0.12603938  0.63653408  0.86409343
   0.15627820  0.38912969  0.10189510
   0.61283977  0.11492245  0.85865785
   0.63304910  0.87126885  0.11628734
   0.40510637  0.13099166  0.12959023
   0.36770479  0.87469931  0.89635981
   0.62112140  0.63908770  0.37883406
   0.63361559  0.36685977  0.60396465
   0.37942247  0.60310792  0.62554453
   0.39976942  0.37762194  0.35886909
   0.74701649  0.75328283  0.74000700
   0.76717620  0.25220087  0.23484248
   0.24449003  0.74960742  0.25748812
   0.26266394  0.24930378  0.74607036
   0.00628524  0.03131606  0.99514748
   0.00344106  0.51919962  0.50767982
   0.46966749  0.00023589  0.48629747
   0.55230600  0.51274874  0.99391246
Direct configuration=     8
   0.99313953  0.22564821  0.17152943
   0.97933839  0.72466535  0.68138287
   0.03488031  0.18824403  0.78248788
   0.01982052  0.70465973  0.33135773
   0.22927689  0.18958323  0.97415270
   0.15638380  0.81924528  0.03807983
   0.70165222  0.29411205  0.00796192
   0.73583005  0.69630700  0.96941177
   0.29176170  0.98147375  0.28620956
   0.38974831  0.04434304  0.71755889
   0.81492656  0.97280896  0.81324398
   0.81666049  0.02002072  0.17952011
   0.31346964  0.79264492  0.48405535
   0.29634862  0.21543867  0.51438194
   0.67561917  0.84424017  0.52632003
   0.84806543  0.31684456  0.45500733
   0.17807342  0.46560423  0.68560077
   0.20868870  0.51537716  0.30607678
   0.71516556  0.48387742  0.21164428
   0.79685243  0.52406483  0.69043329
   0.47266487  0.35012287  0.80564987
   0.46202081  0.68244445  0.17752368
   0.56001942  0.18109773  0.32916922
   0.51872581  0.69602927  0.80359542
   0.51038929  0.49923088  0.49304687
   0.50638392  0.99611673  0.00144850
   0.01853532  0.50564458  0.99052625
   0.00221767  0.01071843  0.49575448
   0.13257541  0.90245603  0.62215896
   0.11626806  0.13876231  0.36868199
   0.87491402  0.88696029  0.37882104
   0.87048679  0.12594032  0.61599661
   0.90290153  0.62350945  0.12553957
   0.89479036  0.38043141  0.87043961
   0.12603862  0.63653497  0.86409199
   0.15627926  0.38913002  0.10189454
   0.61283895  0.11492166  0.85865620
   0.63305196  0.87126724  0.11628782
   0.40510742  0.13099202  0.12958991
   0.36770390  0.87469745  0.89636168
   0.62112359  0.63909127  0.37883321
   0.63361560  0.36686000  0.60396349
   0.37942191  0.60310806  0.62554476
   0.39977055  0.37762349  0.35886729
   0.74701632  0.75328239  0.74000738
   0.76717757  0.25220150  0.23484217
   0.24449029  0.74960740  0.25748898
   0.26266251  0.24930340  0.74606979
   0.00628553  0.03131646  0.99514769
   0.00344165  0.51919923  0.50767937
   0.46966713  0.00023705  0.48629777
   0.55230597  0.51274836  0.99391257
