  52  52   0   4
  0.1752721E+02  0.9695540E-09  0.9695540E-09  0.9695540E-09  0.2000000E-15
  1.000000000000000E-004
  CAR 
 unknown system                          
     12.45647699    -45.34763579  301      1.90722641      1.00000000
    -45.348  0.0000E+00  0.0000E+00  0.0000E+00  0.0000E+00
    -45.155  0.0000E+00  0.0000E+00  0.0000E+00  0.0000E+00
    -44.962  0.0000E+00  0.0000E+00  0.0000E+00  0.0000E+00
    -44.770  0.0000E+00  0.0000E+00  0.0000E+00  0.0000E+00
    -44.577  0.0000E+00  0.0000E+00  0.0000E+00  0.0000E+00
    -44.384  0.0000E+00  0.0000E+00  0.0000E+00  0.0000E+00
    -44.192  0.0000E+00  0.0000E+00  0.0000E+00  0.0000E+00
    -43.999  0.0000E+00  0.0000E+00  0.0000E+00  0.0000E+00
    -43.806  0.0000E+00  0.0000E+00  0.0000E+00  0.0000E+00
    -43.614  0.0000E+00  0.0000E+00  0.0000E+00  0.0000E+00
    -43.421  0.0000E+00  0.0000E+00  0.0000E+00  0.0000E+00
    -43.228  0.0000E+00  0.0000E+00  0.0000E+00  0.0000E+00
    -43.035  0.0000E+00  0.0000E+00  0.0000E+00  0.0000E+00
    -42.843  0.2158E-10  0.2158E-10  0.4158E-11  0.4158E-11
    -42.650  0.1220E-01  0.1220E-01  0.2351E-02  0.2351E-02
    -42.457  0.4540E-01  0.4540E-01  0.1110E-01  0.1110E-01
    -42.265  0.6678E-01  0.6678E-01  0.2398E-01  0.2398E-01
    -42.072  0.0000E+00  0.0000E+00  0.2400E-01  0.2400E-01
    -41.879  0.0000E+00  0.0000E+00  0.2400E-01  0.2400E-01
    -41.687  0.0000E+00  0.0000E+00  0.2400E-01  0.2400E-01
    -41.494  0.0000E+00  0.0000E+00  0.2400E-01  0.2400E-01
    -41.301  0.0000E+00  0.0000E+00  0.2400E-01  0.2400E-01
    -41.109  0.0000E+00  0.0000E+00  0.2400E-01  0.2400E-01
    -40.916  0.0000E+00  0.0000E+00  0.2400E-01  0.2400E-01
    -40.723  0.0000E+00  0.0000E+00  0.2400E-01  0.2400E-01
    -40.531  0.0000E+00  0.0000E+00  0.2400E-01  0.2400E-01
    -40.338  0.0000E+00  0.0000E+00  0.2400E-01  0.2400E-01
    -40.145  0.0000E+00  0.0000E+00  0.2400E-01  0.2400E-01
    -39.953  0.0000E+00  0.0000E+00  0.2400E-01  0.2400E-01
    -39.760  0.0000E+00  0.0000E+00  0.2400E-01  0.2400E-01
    -39.567  0.0000E+00  0.0000E+00  0.2400E-01  0.2400E-01
    -39.375  0.0000E+00  0.0000E+00  0.2400E-01  0.2400E-01
    -39.182  0.0000E+00  0.0000E+00  0.2400E-01  0.2400E-01
    -38.989  0.0000E+00  0.0000E+00  0.2400E-01  0.2400E-01
    -38.797  0.0000E+00  0.0000E+00  0.2400E-01  0.2400E-01
    -38.604  0.0000E+00  0.0000E+00  0.2400E-01  0.2400E-01
    -38.411  0.0000E+00  0.0000E+00  0.2400E-01  0.2400E-01
    -38.218  0.0000E+00  0.0000E+00  0.2400E-01  0.2400E-01
    -38.026  0.0000E+00  0.0000E+00  0.2400E-01  0.2400E-01
    -37.833  0.0000E+00  0.0000E+00  0.2400E-01  0.2400E-01
    -37.640  0.0000E+00  0.0000E+00  0.2400E-01  0.2400E-01
    -37.448  0.0000E+00  0.0000E+00  0.2400E-01  0.2400E-01
    -37.255  0.0000E+00  0.0000E+00  0.2400E-01  0.2400E-01
    -37.062  0.0000E+00  0.0000E+00  0.2400E-01  0.2400E-01
    -36.870  0.0000E+00  0.0000E+00  0.2400E-01  0.2400E-01
    -36.677  0.0000E+00  0.0000E+00  0.2400E-01  0.2400E-01
    -36.484  0.0000E+00  0.0000E+00  0.2400E-01  0.2400E-01
    -36.292  0.0000E+00  0.0000E+00  0.2400E-01  0.2400E-01
    -36.099  0.0000E+00  0.0000E+00  0.2400E-01  0.2400E-01
    -35.906  0.0000E+00  0.0000E+00  0.2400E-01  0.2400E-01
    -35.714  0.0000E+00  0.0000E+00  0.2400E-01  0.2400E-01
    -35.521  0.0000E+00  0.0000E+00  0.2400E-01  0.2400E-01
    -35.328  0.0000E+00  0.0000E+00  0.2400E-01  0.2400E-01
    -35.136  0.0000E+00  0.0000E+00  0.2400E-01  0.2400E-01
    -34.943  0.0000E+00  0.0000E+00  0.2400E-01  0.2400E-01
    -34.750  0.0000E+00  0.0000E+00  0.2400E-01  0.2400E-01
    -34.558  0.0000E+00  0.0000E+00  0.2400E-01  0.2400E-01
    -34.365  0.0000E+00  0.0000E+00  0.2400E-01  0.2400E-01
    -34.172  0.0000E+00  0.0000E+00  0.2400E-01  0.2400E-01
    -33.979  0.0000E+00  0.0000E+00  0.2400E-01  0.2400E-01
    -33.787  0.0000E+00  0.0000E+00  0.2400E-01  0.2400E-01
    -33.594  0.0000E+00  0.0000E+00  0.2400E-01  0.2400E-01
    -33.401  0.0000E+00  0.0000E+00  0.2400E-01  0.2400E-01
    -33.209  0.0000E+00  0.0000E+00  0.2400E-01  0.2400E-01
    -33.016  0.0000E+00  0.0000E+00  0.2400E-01  0.2400E-01
    -32.823  0.0000E+00  0.0000E+00  0.2400E-01  0.2400E-01
    -32.631  0.0000E+00  0.0000E+00  0.2400E-01  0.2400E-01
    -32.438  0.0000E+00  0.0000E+00  0.2400E-01  0.2400E-01
    -32.245  0.0000E+00  0.0000E+00  0.2400E-01  0.2400E-01
    -32.053  0.0000E+00  0.0000E+00  0.2400E-01  0.2400E-01
    -31.860  0.0000E+00  0.0000E+00  0.2400E-01  0.2400E-01
    -31.667  0.0000E+00  0.0000E+00  0.2400E-01  0.2400E-01
    -31.475  0.0000E+00  0.0000E+00  0.2400E-01  0.2400E-01
    -31.282  0.0000E+00  0.0000E+00  0.2400E-01  0.2400E-01
    -31.089  0.0000E+00  0.0000E+00  0.2400E-01  0.2400E-01
    -30.897  0.0000E+00  0.0000E+00  0.2400E-01  0.2400E-01
    -30.704  0.0000E+00  0.0000E+00  0.2400E-01  0.2400E-01
    -30.511  0.0000E+00  0.0000E+00  0.2400E-01  0.2400E-01
    -30.319  0.0000E+00  0.0000E+00  0.2400E-01  0.2400E-01
    -30.126  0.0000E+00  0.0000E+00  0.2400E-01  0.2400E-01
    -29.933  0.0000E+00  0.0000E+00  0.2400E-01  0.2400E-01
    -29.741  0.0000E+00  0.0000E+00  0.2400E-01  0.2400E-01
    -29.548  0.0000E+00  0.0000E+00  0.2400E-01  0.2400E-01
    -29.355  0.0000E+00  0.0000E+00  0.2400E-01  0.2400E-01
    -29.162  0.0000E+00  0.0000E+00  0.2400E-01  0.2400E-01
    -28.970  0.0000E+00  0.0000E+00  0.2400E-01  0.2400E-01
    -28.777  0.0000E+00  0.0000E+00  0.2400E-01  0.2400E-01
    -28.584  0.0000E+00  0.0000E+00  0.2400E-01  0.2400E-01
    -28.392  0.0000E+00  0.0000E+00  0.2400E-01  0.2400E-01
    -28.199  0.0000E+00  0.0000E+00  0.2400E-01  0.2400E-01
    -28.006  0.0000E+00  0.0000E+00  0.2400E-01  0.2400E-01
    -27.814  0.0000E+00  0.0000E+00  0.2400E-01  0.2400E-01
    -27.621  0.0000E+00  0.0000E+00  0.2400E-01  0.2400E-01
    -27.428  0.0000E+00  0.0000E+00  0.2400E-01  0.2400E-01
    -27.236  0.0000E+00  0.0000E+00  0.2400E-01  0.2400E-01
    -27.043  0.0000E+00  0.0000E+00  0.2400E-01  0.2400E-01
    -26.850  0.0000E+00  0.0000E+00  0.2400E-01  0.2400E-01
    -26.658  0.0000E+00  0.0000E+00  0.2400E-01  0.2400E-01
    -26.465  0.0000E+00  0.0000E+00  0.2400E-01  0.2400E-01
    -26.272  0.0000E+00  0.0000E+00  0.2400E-01  0.2400E-01
    -26.080  0.0000E+00  0.0000E+00  0.2400E-01  0.2400E-01
    -25.887  0.0000E+00  0.0000E+00  0.2400E-01  0.2400E-01
    -25.694  0.0000E+00  0.0000E+00  0.2400E-01  0.2400E-01
    -25.502  0.0000E+00  0.0000E+00  0.2400E-01  0.2400E-01
    -25.309  0.0000E+00  0.0000E+00  0.2400E-01  0.2400E-01
    -25.116  0.0000E+00  0.0000E+00  0.2400E-01  0.2400E-01
    -24.924  0.0000E+00  0.0000E+00  0.2400E-01  0.2400E-01
    -24.731  0.0000E+00  0.0000E+00  0.2400E-01  0.2400E-01
    -24.538  0.0000E+00  0.0000E+00  0.2400E-01  0.2400E-01
    -24.345  0.0000E+00  0.0000E+00  0.2400E-01  0.2400E-01
    -24.153  0.0000E+00  0.0000E+00  0.2400E-01  0.2400E-01
    -23.960  0.0000E+00  0.0000E+00  0.2400E-01  0.2400E-01
    -23.767  0.0000E+00  0.0000E+00  0.2400E-01  0.2400E-01
    -23.575  0.0000E+00  0.0000E+00  0.2400E-01  0.2400E-01
    -23.382  0.0000E+00  0.0000E+00  0.2400E-01  0.2400E-01
    -23.189  0.0000E+00  0.0000E+00  0.2400E-01  0.2400E-01
    -22.997  0.0000E+00  0.0000E+00  0.2400E-01  0.2400E-01
    -22.804  0.0000E+00  0.0000E+00  0.2400E-01  0.2400E-01
    -22.611  0.0000E+00  0.0000E+00  0.2400E-01  0.2400E-01
    -22.419  0.0000E+00  0.0000E+00  0.2400E-01  0.2400E-01
    -22.226  0.0000E+00  0.0000E+00  0.2400E-01  0.2400E-01
    -22.033  0.0000E+00  0.0000E+00  0.2400E-01  0.2400E-01
    -21.841  0.0000E+00  0.0000E+00  0.2400E-01  0.2400E-01
    -21.648  0.0000E+00  0.0000E+00  0.2400E-01  0.2400E-01
    -21.455  0.0000E+00  0.0000E+00  0.2400E-01  0.2400E-01
    -21.263  0.0000E+00  0.0000E+00  0.2400E-01  0.2400E-01
    -21.070  0.0000E+00  0.0000E+00  0.2400E-01  0.2400E-01
    -20.877  0.0000E+00  0.0000E+00  0.2400E-01  0.2400E-01
    -20.685  0.0000E+00  0.0000E+00  0.2400E-01  0.2400E-01
    -20.492  0.0000E+00  0.0000E+00  0.2400E-01  0.2400E-01
    -20.299  0.0000E+00  0.0000E+00  0.2400E-01  0.2400E-01
    -20.107  0.0000E+00  0.0000E+00  0.2400E-01  0.2400E-01
    -19.914  0.0000E+00  0.0000E+00  0.2400E-01  0.2400E-01
    -19.721  0.0000E+00  0.0000E+00  0.2400E-01  0.2400E-01
    -19.528  0.0000E+00  0.0000E+00  0.2400E-01  0.2400E-01
    -19.336  0.0000E+00  0.0000E+00  0.2400E-01  0.2400E-01
    -19.143  0.0000E+00  0.0000E+00  0.2400E-01  0.2400E-01
    -18.950  0.0000E+00  0.0000E+00  0.2400E-01  0.2400E-01
    -18.758  0.0000E+00  0.0000E+00  0.2400E-01  0.2400E-01
    -18.565  0.0000E+00  0.0000E+00  0.2400E-01  0.2400E-01
    -18.372  0.0000E+00  0.0000E+00  0.2400E-01  0.2400E-01
    -18.180  0.0000E+00  0.0000E+00  0.2400E-01  0.2400E-01
    -17.987  0.0000E+00  0.0000E+00  0.2400E-01  0.2400E-01
    -17.794  0.0000E+00  0.0000E+00  0.2400E-01  0.2400E-01
    -17.602  0.0000E+00  0.0000E+00  0.2400E-01  0.2400E-01
    -17.409  0.0000E+00  0.0000E+00  0.2400E-01  0.2400E-01
    -17.216  0.0000E+00  0.0000E+00  0.2400E-01  0.2400E-01
    -17.024  0.0000E+00  0.0000E+00  0.2400E-01  0.2400E-01
    -16.831  0.0000E+00  0.0000E+00  0.2400E-01  0.2400E-01
    -16.638  0.0000E+00  0.0000E+00  0.2400E-01  0.2400E-01
    -16.446  0.0000E+00  0.0000E+00  0.2400E-01  0.2400E-01
    -16.253  0.0000E+00  0.0000E+00  0.2400E-01  0.2400E-01
    -16.060  0.0000E+00  0.0000E+00  0.2400E-01  0.2400E-01
    -15.868  0.0000E+00  0.0000E+00  0.2400E-01  0.2400E-01
    -15.675  0.0000E+00  0.0000E+00  0.2400E-01  0.2400E-01
    -15.482  0.0000E+00  0.0000E+00  0.2400E-01  0.2400E-01
    -15.289  0.0000E+00  0.0000E+00  0.2400E-01  0.2400E-01
    -15.097  0.0000E+00  0.0000E+00  0.2400E-01  0.2400E-01
    -14.904  0.0000E+00  0.0000E+00  0.2400E-01  0.2400E-01
    -14.711  0.0000E+00  0.0000E+00  0.2400E-01  0.2400E-01
    -14.519  0.0000E+00  0.0000E+00  0.2400E-01  0.2400E-01
    -14.326  0.0000E+00  0.0000E+00  0.2400E-01  0.2400E-01
    -14.133  0.0000E+00  0.0000E+00  0.2400E-01  0.2400E-01
    -13.941  0.0000E+00  0.0000E+00  0.2400E-01  0.2400E-01
    -13.748  0.0000E+00  0.0000E+00  0.2400E-01  0.2400E-01
    -13.555  0.0000E+00  0.0000E+00  0.2400E-01  0.2400E-01
    -13.363  0.0000E+00  0.0000E+00  0.2400E-01  0.2400E-01
    -13.170  0.1003E-02  0.1003E-02  0.2419E-01  0.2419E-01
    -12.977  0.1963E-01  0.1963E-01  0.2797E-01  0.2797E-01
    -12.785  0.2813E-02  0.2813E-02  0.2852E-01  0.2852E-01
    -12.592  0.7543E-02  0.7543E-02  0.2997E-01  0.2997E-01
    -12.399  0.1008E-01  0.1008E-01  0.3191E-01  0.3191E-01
    -12.207  0.4428E-03  0.4428E-03  0.3200E-01  0.3200E-01
    -12.014  0.0000E+00  0.0000E+00  0.3200E-01  0.3200E-01
    -11.821  0.0000E+00  0.0000E+00  0.3200E-01  0.3200E-01
    -11.629  0.0000E+00  0.0000E+00  0.3200E-01  0.3200E-01
    -11.436  0.0000E+00  0.0000E+00  0.3200E-01  0.3200E-01
    -11.243  0.0000E+00  0.0000E+00  0.3200E-01  0.3200E-01
    -11.051  0.0000E+00  0.0000E+00  0.3200E-01  0.3200E-01
    -10.858  0.0000E+00  0.0000E+00  0.3200E-01  0.3200E-01
    -10.665  0.0000E+00  0.0000E+00  0.3200E-01  0.3200E-01
    -10.472  0.1186E-05  0.1186E-05  0.3200E-01  0.3200E-01
    -10.280  0.1459E-01  0.1459E-01  0.3481E-01  0.3481E-01
    -10.087  0.1765E-01  0.1765E-01  0.3821E-01  0.3821E-01
     -9.894  0.2983E-01  0.2983E-01  0.4396E-01  0.4396E-01
     -9.702  0.1882E-03  0.1882E-03  0.4400E-01  0.4400E-01
     -9.509  0.0000E+00  0.0000E+00  0.4400E-01  0.4400E-01
     -9.316  0.0000E+00  0.0000E+00  0.4400E-01  0.4400E-01
     -9.124  0.0000E+00  0.0000E+00  0.4400E-01  0.4400E-01
     -8.931  0.0000E+00  0.0000E+00  0.4400E-01  0.4400E-01
     -8.738  0.1729E-17  0.1729E-17  0.4400E-01  0.4400E-01
     -8.546  0.4381E-02  0.4381E-02  0.4484E-01  0.4484E-01
     -8.353  0.1116E-01  0.1116E-01  0.4699E-01  0.4699E-01
     -8.160  0.5188E-02  0.5188E-02  0.4800E-01  0.4800E-01
     -7.968  0.0000E+00  0.0000E+00  0.4800E-01  0.4800E-01
     -7.775  0.0000E+00  0.0000E+00  0.4800E-01  0.4800E-01
     -7.582  0.0000E+00  0.0000E+00  0.4800E-01  0.4800E-01
     -7.390  0.0000E+00  0.0000E+00  0.4800E-01  0.4800E-01
     -7.197  0.0000E+00  0.0000E+00  0.4800E-01  0.4800E-01
     -7.004  0.0000E+00  0.0000E+00  0.4800E-01  0.4800E-01
     -6.812  0.0000E+00  0.0000E+00  0.4800E-01  0.4800E-01
     -6.619  0.0000E+00  0.0000E+00  0.4800E-01  0.4800E-01
     -6.426  0.0000E+00  0.0000E+00  0.4800E-01  0.4800E-01
     -6.234  0.1386E-03  0.1386E-03  0.4803E-01  0.4803E-01
     -6.041  0.5051E-02  0.5051E-02  0.4900E-01  0.4900E-01
     -5.848  0.5285E-03  0.5285E-03  0.4910E-01  0.4910E-01
     -5.655  0.1353E-01  0.1353E-01  0.5171E-01  0.5171E-01
     -5.463  0.1487E-02  0.1487E-02  0.5200E-01  0.5200E-01
     -5.270  0.0000E+00  0.0000E+00  0.5200E-01  0.5200E-01
     -5.077  0.0000E+00  0.0000E+00  0.5200E-01  0.5200E-01
     -4.885  0.0000E+00  0.0000E+00  0.5200E-01  0.5200E-01
     -4.692  0.0000E+00  0.0000E+00  0.5200E-01  0.5200E-01
     -4.499  0.0000E+00  0.0000E+00  0.5200E-01  0.5200E-01
     -4.307  0.0000E+00  0.0000E+00  0.5200E-01  0.5200E-01
     -4.114  0.0000E+00  0.0000E+00  0.5200E-01  0.5200E-01
     -3.921  0.0000E+00  0.0000E+00  0.5200E-01  0.5200E-01
     -3.729  0.0000E+00  0.0000E+00  0.5200E-01  0.5200E-01
     -3.536  0.0000E+00  0.0000E+00  0.5200E-01  0.5200E-01
     -3.343  0.5076E-03  0.5076E-03  0.5210E-01  0.5210E-01
     -3.151  0.1506E-01  0.1506E-01  0.5500E-01  0.5500E-01
     -2.958  0.5393E-03  0.5393E-03  0.5510E-01  0.5510E-01
     -2.765  0.1000E-01  0.1000E-01  0.5703E-01  0.5703E-01
     -2.573  0.1082E-01  0.1082E-01  0.5912E-01  0.5912E-01
     -2.380  0.1886E-01  0.1886E-01  0.6275E-01  0.6275E-01
     -2.187  0.6476E-02  0.6476E-02  0.6400E-01  0.6400E-01
     -1.995  0.0000E+00  0.0000E+00  0.6400E-01  0.6400E-01
     -1.802  0.1440E-18  0.1440E-18  0.6400E-01  0.6400E-01
     -1.609  0.3941E-02  0.3941E-02  0.6476E-01  0.6476E-01
     -1.417  0.1547E-01  0.1547E-01  0.6774E-01  0.6774E-01
     -1.224  0.1613E-01  0.1613E-01  0.7085E-01  0.7085E-01
     -1.031  0.1511E-01  0.1511E-01  0.7376E-01  0.7376E-01
     -0.838  0.1161E-01  0.1161E-01  0.7600E-01  0.7600E-01
     -0.646  0.5240E-02  0.5240E-02  0.7701E-01  0.7701E-01
     -0.453  0.1032E-01  0.1032E-01  0.7900E-01  0.7900E-01
     -0.260  0.1276E-01  0.1276E-01  0.8146E-01  0.8146E-01
     -0.068  0.2265E-01  0.2265E-01  0.8583E-01  0.8583E-01
      0.125  0.2796E-01  0.2796E-01  0.9122E-01  0.9122E-01
      0.318  0.1603E-01  0.1603E-01  0.9431E-01  0.9431E-01
      0.510  0.8754E-02  0.8754E-02  0.9600E-01  0.9600E-01
      0.703  0.5697E-02  0.5697E-02  0.9710E-01  0.9710E-01
      0.896  0.2211E-01  0.2211E-01  0.1014E+00  0.1014E+00
      1.088  0.2518E-01  0.2518E-01  0.1062E+00  0.1062E+00
      1.281  0.2567E-01  0.2567E-01  0.1112E+00  0.1112E+00
      1.474  0.2687E-01  0.2687E-01  0.1163E+00  0.1163E+00
      1.666  0.1378E-01  0.1378E-01  0.1190E+00  0.1190E+00
      1.859  0.5164E-02  0.5164E-02  0.1200E+00  0.1200E+00
      2.052  0.0000E+00  0.0000E+00  0.1200E+00  0.1200E+00
      2.244  0.0000E+00  0.0000E+00  0.1200E+00  0.1200E+00
      2.437  0.0000E+00  0.0000E+00  0.1200E+00  0.1200E+00
      2.630  0.0000E+00  0.0000E+00  0.1200E+00  0.1200E+00
      2.822  0.0000E+00  0.0000E+00  0.1200E+00  0.1200E+00
      3.015  0.0000E+00  0.0000E+00  0.1200E+00  0.1200E+00
      3.208  0.0000E+00  0.0000E+00  0.1200E+00  0.1200E+00
      3.400  0.0000E+00  0.0000E+00  0.1200E+00  0.1200E+00
      3.593  0.0000E+00  0.0000E+00  0.1200E+00  0.1200E+00
      3.786  0.0000E+00  0.0000E+00  0.1200E+00  0.1200E+00
      3.979  0.0000E+00  0.0000E+00  0.1200E+00  0.1200E+00
      4.171  0.5762E-18  0.5762E-18  0.1200E+00  0.1200E+00
      4.364  0.4046E-02  0.4046E-02  0.1208E+00  0.1208E+00
      4.557  0.1144E-02  0.1144E-02  0.1210E+00  0.1210E+00
      4.749  0.0000E+00  0.0000E+00  0.1210E+00  0.1210E+00
      4.942  0.0000E+00  0.0000E+00  0.1210E+00  0.1210E+00
      5.135  0.2027E-02  0.2027E-02  0.1214E+00  0.1214E+00
      5.327  0.1329E-01  0.1329E-01  0.1240E+00  0.1240E+00
      5.520  0.2553E-03  0.2553E-03  0.1240E+00  0.1240E+00
      5.713  0.1107E-05  0.1107E-05  0.1240E+00  0.1240E+00
      5.905  0.9032E-02  0.9032E-02  0.1257E+00  0.1257E+00
      6.098  0.1493E-01  0.1493E-01  0.1286E+00  0.1286E+00
      6.291  0.7283E-02  0.7283E-02  0.1300E+00  0.1300E+00
      6.483  0.7919E-02  0.7919E-02  0.1315E+00  0.1315E+00
      6.676  0.8698E-02  0.8698E-02  0.1332E+00  0.1332E+00
      6.869  0.1317E-01  0.1317E-01  0.1358E+00  0.1358E+00
      7.061  0.5370E-02  0.5370E-02  0.1368E+00  0.1368E+00
      7.254  0.2622E-02  0.2622E-02  0.1373E+00  0.1373E+00
      7.447  0.1063E-01  0.1063E-01  0.1394E+00  0.1394E+00
      7.639  0.9360E-02  0.9360E-02  0.1412E+00  0.1412E+00
      7.832  0.1422E-01  0.1422E-01  0.1439E+00  0.1439E+00
      8.025  0.1209E-01  0.1209E-01  0.1462E+00  0.1462E+00
      8.218  0.1405E-01  0.1405E-01  0.1489E+00  0.1489E+00
      8.410  0.1448E-01  0.1448E-01  0.1517E+00  0.1517E+00
      8.603  0.1720E-01  0.1720E-01  0.1550E+00  0.1550E+00
      8.796  0.1290E-01  0.1290E-01  0.1575E+00  0.1575E+00
      8.988  0.2068E-01  0.2068E-01  0.1615E+00  0.1615E+00
      9.181  0.1627E-01  0.1627E-01  0.1646E+00  0.1646E+00
      9.374  0.2071E-01  0.2072E-01  0.1686E+00  0.1686E+00
      9.566  0.1603E-01  0.1604E-01  0.1717E+00  0.1717E+00
      9.759  0.1722E-01  0.1744E-01  0.1750E+00  0.1751E+00
      9.952  0.4940E-02  0.4710E-02  0.1760E+00  0.1760E+00
     10.144  0.0000E+00  0.0000E+00  0.1760E+00  0.1760E+00
     10.337  0.0000E+00  0.0000E+00  0.1760E+00  0.1760E+00
     10.530  0.0000E+00  0.0000E+00  0.1760E+00  0.1760E+00
     10.722  0.0000E+00  0.0000E+00  0.1760E+00  0.1760E+00
     10.915  0.0000E+00  0.0000E+00  0.1760E+00  0.1760E+00
     11.108  0.0000E+00  0.0000E+00  0.1760E+00  0.1760E+00
     11.300  0.0000E+00  0.0000E+00  0.1760E+00  0.1760E+00
     11.493  0.0000E+00  0.0000E+00  0.1760E+00  0.1760E+00
     11.686  0.0000E+00  0.0000E+00  0.1760E+00  0.1760E+00
     11.878  0.0000E+00  0.0000E+00  0.1760E+00  0.1760E+00
     12.071  0.0000E+00  0.0000E+00  0.1760E+00  0.1760E+00
     12.264  0.0000E+00  0.0000E+00  0.1760E+00  0.1760E+00
     12.456  0.0000E+00  0.0000E+00  0.1760E+00  0.1760E+00
