 vasp.6.4.1 05Apr23 (build Jun 07 2023 15:38:11) complex                        
  
 executed on             LinuxIFC date 2023.10.19  14:56:45
 running  128 mpi-ranks, with    1 threads/rank, on    1 nodes
 distrk:  each k-point on  128 cores,    1 groups
 distr:  one band on NCORE=  32 cores,    4 groups


--------------------------------------------------------------------------------------------------------


 INCAR:
   GGA = PE
   PREC = Accu
   EDIFF = 1.e-6
   EDIFFG = -1.e-3
   ENCUT = 520.
   NELM = 100
   NELMDL = -10
   LASPH = .TRUE.
   LREAL = Auto
   LMAXMIX = 4
   ISPIN = 2
   LDIAG = .TRUE.
   LPLANE = .TRUE.
   IVDW = 12
   SIGMA = 0.03
   ISMEAR = 0
   NSW = 1000    number of steps for IOM
   IBRION = 2    ionic relax: 0-MD 1-quasi-New 2-CG
   ISIF = 2    ionic relaxation + stress tensor calcn.
   LCHARG = .FALSE.
   LWAVE = .FALSE.
   ALGO = F
   KPAR = 1
   NPAR = 4
   POTIM = 0.2

 POTCAR:    PAW_PBE Li_sv_GW 25Mar2010            
 POTCAR:    PAW_PBE P_GW 19Mar2012                
 POTCAR:    PAW_PBE S_GW 19Mar2012                
 POTCAR:    PAW_PBE Cl_GW 19Mar2012               
 -----------------------------------------------------------------------------
|                                                                             |
|           W    W    AA    RRRRR   N    N  II  N    N   GGGG   !!!           |
|           W    W   A  A   R    R  NN   N  II  NN   N  G    G  !!!           |
|           W    W  A    A  R    R  N N  N  II  N N  N  G       !!!           |
|           W WW W  AAAAAA  RRRRR   N  N N  II  N  N N  G  GGG   !            |
|           WW  WW  A    A  R   R   N   NN  II  N   NN  G    G                |
|           W    W  A    A  R    R  N    N  II  N    N   GGGG   !!!           |
|                                                                             |
|     You use a magnetic or noncollinear calculation, but did not specify     |
|     the initial magnetic moment with the MAGMOM tag. Note that a            |
|     default of 1 will be used for all atoms. This ferromagnetic setup       |
|     may break the symmetry of the crystal, in particular it may rule        |
|     out finding an antiferromagnetic solution. Thence, we recommend         |
|     setting the initial magnetic moment manually or verifying carefully     |
|     that this magnetic setup is desired.                                    |
|                                                                             |
 -----------------------------------------------------------------------------

 POTCAR:    PAW_PBE Li_sv_GW 25Mar2010            
   SHA256 =  24a6ace15a582615486b36ce4dc781b048409f4015b7684ed1273ae395fa2fdc Li_sv_GW/POTCAR       
   COPYR  = (c) Copyright 25Mar2010 Georg Kresse                                                    
   COPYR  = This file is part of the software VASP. Any use, copying, and all other rights are regul
   COPYR  = If you do not have a valid VASP license, you may not use, copy or distribute this file. 
   VRHFIN =Li: 1s2s                                                                                 
   LEXCH  = PE                                                                                      
   EATOM  =   200.9989 eV,   14.7730 Ry                                                             
                                                                                                    
   TITEL  = PAW_PBE Li_sv_GW 25Mar2010                                                              
   LULTRA =        F    use ultrasoft PP ?                                                          
   IUNSCR =        0    unscreen: 0-lin 1-nonlin 2-no                                               
   RPACOR =    0.000    partial core radius                                                         
   POMASS =    7.010; ZVAL   =    3.000    mass and valenz                                          
   RCORE  =    1.500    outmost cutoff radius                                                       
   RWIGS  =    1.600; RWIGS  =    0.847    wigner-seitz radius (au A)                               
   ENMAX  =  433.699; ENMIN  =  325.274 eV                                                          
   RCLOC  =    1.003    cutoff for local pot                                                        
   LCOR   =        T    correct aug charges                                                         
   LPAW   =        T    paw PP                                                                      
   EAUG   = 1041.699                                                                                
   RMAX   =    1.536    core radius for proj-oper                                                   
   RAUG   =    1.300    factor for augmentation sphere                                              
   RDEP   =    1.520    radius for radial grids                                                     
   RDEPT  =    1.300    core radius for aug-charge                                                  
                                                                                                    
   Atomic configuration                                                                             
    4 entries                                                                                       
     n  l   j            E        occ.                                                              
     1  0  0.50       -53.3604   2.0000                                                             
     1  0  0.50       -52.0001   0.0000                                                             
     2  1  0.50        -1.5636   1.0000                                                             
     3  2  1.50        -1.3606   0.0000                                                             
   Description                                                                                      
     l       E           TYP  RCUT    TYP  RCUT                                                     
     0    -53.3603633     23  1.200                                                                 
     0    -52.0001064     23  1.200                                                                 
     0    176.8757380     23  1.300                                                                 
     1     -1.5635925     23  1.500                                                                 
     1    108.8466080     23  1.500                                                                 
     2     81.6349560     23  1.500                                                                 
  local pseudopotential read in
  kinetic energy density of atom read in
  atomic valenz-charges read in
  non local Contribution for L=           0  read in
    real space projection operators read in
  non local Contribution for L=           0  read in
    real space projection operators read in
  non local Contribution for L=           0  read in
    real space projection operators read in
  non local Contribution for L=           1  read in
    real space projection operators read in
  non local Contribution for L=           1  read in
    real space projection operators read in
  non local Contribution for L=           2  read in
    real space projection operators read in
    PAW grid and wavefunctions read in
 
   number of l-projection  operators is LMAX  =           6
   number of lm-projection operators is LMMAX =          14
 
 POTCAR:    PAW_PBE P_GW 19Mar2012                
   SHA256 =  715c28f2291d37b61637ce89646c59f66f71c8b8d8bfba631e5feb9f7b42defe P_GW/POTCAR           
   COPYR  = (c) Copyright 19Mar2012 Georg Kresse                                                    
   COPYR  = This file is part of the software VASP. Any use, copying, and all other rights are regul
   COPYR  = If you do not have a valid VASP license, you may not use, copy or distribute this file. 
   VRHFIN =P : s2p3                                                                                 
   LEXCH  = PE                                                                                      
   EATOM  =   176.0430 eV,   12.9388 Ry                                                             
                                                                                                    
   TITEL  = PAW_PBE P_GW 19Mar2012                                                                  
   LULTRA =        F    use ultrasoft PP ?                                                          
   IUNSCR =        1    unscreen: 0-lin 1-nonlin 2-no                                               
   RPACOR =    1.400    partial core radius                                                         
   POMASS =   30.974; ZVAL   =    5.000    mass and valenz                                          
   RCORE  =    2.000    outmost cutoff radius                                                       
   RWIGS  =    1.900; RWIGS  =    1.005    wigner-seitz radius (au A)                               
   ENMAX  =  255.040; ENMIN  =  191.280 eV                                                          
   ICORE  =        3    local potential                                                             
   LCOR   =        T    correct aug charges                                                         
   LPAW   =        T    paw PP                                                                      
   EAUG   =  499.732                                                                                
   DEXC   =    0.000                                                                                
   RMAX   =    2.047    core radius for proj-oper                                                   
   RAUG   =    1.300    factor for augmentation sphere                                              
   RDEP   =    2.059    radius for radial grids                                                     
   RDEPT  =    1.900    core radius for aug-charge                                                  
                                                                                                    
   Atomic configuration                                                                             
    7 entries                                                                                       
     n  l   j            E        occ.                                                              
     1  0  0.50     -2084.0982   2.0000                                                             
     2  0  0.50      -173.9859   2.0000                                                             
     2  1  1.50      -124.4865   6.0000                                                             
     3  0  0.50       -13.9692   2.0000                                                             
     3  1  0.50        -5.5067   3.0000                                                             
     3  2  1.50        -6.8029   0.0000                                                             
     4  3  2.50        -1.3606   0.0000                                                             
   Description                                                                                      
     l       E           TYP  RCUT    TYP  RCUT                                                     
     0    -13.9691528     23  1.900                                                                 
     0    102.0436950     23  1.900                                                                 
     1     -5.5066939     23  1.900                                                                 
     1    102.0436950     23  1.900                                                                 
     2     -8.1634956     23  2.000                                                                 
     2     81.6349560     23  2.000                                                                 
     3     27.2116520     23  2.000                                                                 
  local pseudopotential read in
  partial core-charges read in
  partial kinetic energy density read in
  kinetic energy density of atom read in
  atomic valenz-charges read in
  non local Contribution for L=           0  read in
    real space projection operators read in
  non local Contribution for L=           0  read in
    real space projection operators read in
  non local Contribution for L=           1  read in
    real space projection operators read in
  non local Contribution for L=           1  read in
    real space projection operators read in
  non local Contribution for L=           2  read in
    real space projection operators read in
  non local Contribution for L=           2  read in
    real space projection operators read in
    PAW grid and wavefunctions read in
 
   number of l-projection  operators is LMAX  =           6
   number of lm-projection operators is LMMAX =          18
 
 POTCAR:    PAW_PBE S_GW 19Mar2012                
   SHA256 =  357db9cfb0783579b2eebe03197c2d807131fea8ea663b1fcfb6ce2fa75af011 S_GW/POTCAR           
   COPYR  = (c) Copyright 19Mar2012 Georg Kresse                                                    
   COPYR  = This file is part of the software VASP. Any use, copying, and all other rights are regul
   COPYR  = If you do not have a valid VASP license, you may not use, copy or distribute this file. 
   VRHFIN =S : s2p4                                                                                 
   LEXCH  = PE                                                                                      
   EATOM  =   276.8230 eV,   20.3459 Ry                                                             
                                                                                                    
   TITEL  = PAW_PBE S_GW 19Mar2012                                                                  
   LULTRA =        F    use ultrasoft PP ?                                                          
   IUNSCR =        1    unscreen: 0-lin 1-nonlin 2-no                                               
   RPACOR =    1.400    partial core radius                                                         
   POMASS =   32.066; ZVAL   =    6.000    mass and valenz                                          
   RCORE  =    1.900    outmost cutoff radius                                                       
   RWIGS  =    1.900; RWIGS  =    1.005    wigner-seitz radius (au A)                               
   ENMAX  =  258.689; ENMIN  =  194.016 eV                                                          
   ICORE  =        3    local potential                                                             
   LCOR   =        T    correct aug charges                                                         
   LPAW   =        T    paw PP                                                                      
   EAUG   =  488.319                                                                                
   DEXC   =    0.000                                                                                
   RMAX   =    1.942    core radius for proj-oper                                                   
   RAUG   =    1.300    factor for augmentation sphere                                              
   RDEP   =    1.954    radius for radial grids                                                     
   RDEPT  =    1.900    core radius for aug-charge                                                  
                                                                                                    
   Atomic configuration                                                                             
    7 entries                                                                                       
     n  l   j            E        occ.                                                              
     1  0  0.50     -2405.8406   2.0000                                                             
     2  0  0.50      -211.7007   2.0000                                                             
     2  1  1.50      -156.4958   6.0000                                                             
     3  0  0.50       -17.2562   2.0000                                                             
     3  1  0.50        -7.0085   4.0000                                                             
     3  2  1.50        -8.1635   0.0000                                                             
     4  3  2.50        -1.3606   0.0000                                                             
   Description                                                                                      
     l       E           TYP  RCUT    TYP  RCUT                                                     
     0    -17.2561639     23  1.700                                                                 
     0     88.4378690     23  1.900                                                                 
     1     -7.0085399     23  1.900                                                                 
     1     88.4378690     23  1.900                                                                 
     2    -10.8846608     23  1.900                                                                 
     2     54.4233040     23  1.900                                                                 
     3     27.2116520     23  1.800                                                                 
  local pseudopotential read in
  partial core-charges read in
  partial kinetic energy density read in
  kinetic energy density of atom read in
  atomic valenz-charges read in
  non local Contribution for L=           0  read in
    real space projection operators read in
  non local Contribution for L=           0  read in
    real space projection operators read in
  non local Contribution for L=           1  read in
    real space projection operators read in
  non local Contribution for L=           1  read in
    real space projection operators read in
  non local Contribution for L=           2  read in
    real space projection operators read in
  non local Contribution for L=           2  read in
    real space projection operators read in
    PAW grid and wavefunctions read in
 
   number of l-projection  operators is LMAX  =           6
   number of lm-projection operators is LMMAX =          18
 
 POTCAR:    PAW_PBE Cl_GW 19Mar2012               
   SHA256 =  3ef3b3169d6a9a89979f58b4cf17d927a58518fc660d8883d88cacaee8175441 Cl_GW/POTCAR          
   COPYR  = (c) Copyright 19Mar2012 Georg Kresse                                                    
   COPYR  = This file is part of the software VASP. Any use, copying, and all other rights are regul
   COPYR  = If you do not have a valid VASP license, you may not use, copy or distribute this file. 
   VRHFIN =Cl: s2p5                                                                                 
   LEXCH  = PE                                                                                      
   EATOM  =   409.7259 eV,   30.1140 Ry                                                             
                                                                                                    
   TITEL  = PAW_PBE Cl_GW 19Mar2012                                                                 
   LULTRA =        F    use ultrasoft PP ?                                                          
   IUNSCR =        1    unscreen: 0-lin 1-nonlin 2-no                                               
   RPACOR =    1.400    partial core radius                                                         
   POMASS =   35.453; ZVAL   =    7.000    mass and valenz                                          
   RCORE  =    1.900    outmost cutoff radius                                                       
   RWIGS  =    1.900; RWIGS  =    1.005    wigner-seitz radius (au A)                               
   ENMAX  =  262.472; ENMIN  =  196.854 eV                                                          
   ICORE  =        3    local potential                                                             
   LCOR   =        T    correct aug charges                                                         
   LPAW   =        T    paw PP                                                                      
   EAUG   =  456.703                                                                                
   DEXC   =    0.000                                                                                
   RMAX   =    1.945    core radius for proj-oper                                                   
   RAUG   =    1.300    factor for augmentation sphere                                              
   RDEP   =    2.020    radius for radial grids                                                     
   RDEPT  =    1.900    core radius for aug-charge                                                  
                                                                                                    
   Atomic configuration                                                                             
    7 entries                                                                                       
     n  l   j            E        occ.                                                              
     1  0  0.50     -2751.1850   2.0000                                                             
     2  0  0.50      -252.6861   2.0000                                                             
     2  1  1.50      -191.6157   6.0000                                                             
     3  0  0.50       -20.6916   2.0000                                                             
     3  1  0.50        -8.5949   5.0000                                                             
     3  2  1.50        -9.5241   0.0000                                                             
     4  3  2.50        -9.5241   0.0000                                                             
   Description                                                                                      
     l       E           TYP  RCUT    TYP  RCUT                                                     
     0    -20.6915657     23  1.700                                                                 
     0     95.2407820     23  1.800                                                                 
     1     -8.5948577     23  1.900                                                                 
     1     95.2407820     23  1.900                                                                 
     2    -10.8846608     23  1.900                                                                 
     2     54.4233040     23  1.900                                                                 
     3     27.2116520     23  1.900                                                                 
  local pseudopotential read in
  partial core-charges read in
  partial kinetic energy density read in
  kinetic energy density of atom read in
  atomic valenz-charges read in
  non local Contribution for L=           0  read in
    real space projection operators read in
  non local Contribution for L=           0  read in
    real space projection operators read in
  non local Contribution for L=           1  read in
    real space projection operators read in
  non local Contribution for L=           1  read in
    real space projection operators read in
  non local Contribution for L=           2  read in
    real space projection operators read in
  non local Contribution for L=           2  read in
    real space projection operators read in
    PAW grid and wavefunctions read in
 
   number of l-projection  operators is LMAX  =           6
   number of lm-projection operators is LMMAX =          18
 
 Optimization of the real space projectors (new method)

 maximal supplied QI-value         = 25.13
 optimisation between [QCUT,QGAM] = [ 11.56, 23.12] = [ 37.43,149.72] Ry 
 Optimized for a Real-space Cutoff    1.28 Angstroem

   l    n(q)    QCUT    max X(q) W(low)/X(q) W(high)/X(q)  e(spline) 
   0      9    11.561    87.733    0.11E-03    0.32E-04    0.56E-06
   0      9    11.561    82.800    0.11E-03    0.35E-04    0.56E-06
   0      9    11.561     2.509    0.22E-03    0.42E-04    0.79E-06
   1      8    11.561    12.580    0.94E-04    0.26E-03    0.21E-06
   1      8    11.561     1.319    0.33E-04    0.15E-03    0.19E-06
   2      8    11.561     1.993    0.36E-04    0.89E-04    0.26E-06
 Optimization of the real space projectors (new method)

 maximal supplied QI-value         = 18.90
 optimisation between [QCUT,QGAM] = [ 11.53, 23.24] = [ 37.21,151.29] Ry 
 Optimized for a Real-space Cutoff    1.21 Angstroem

   l    n(q)    QCUT    max X(q) W(low)/X(q) W(high)/X(q)  e(spline) 
   0      8    11.527     8.355    0.73E-04    0.70E-04    0.26E-07
   0      8    11.527     1.401    0.17E-03    0.17E-03    0.63E-07
   1      8    11.527     4.747    0.13E-03    0.17E-03    0.11E-06
   1      8    11.527     2.025    0.16E-03    0.18E-03    0.12E-06
   2      7    11.527     3.169    0.51E-04    0.25E-03    0.60E-07
   2      7    11.527     3.441    0.82E-04    0.22E-03    0.14E-06
 Optimization of the real space projectors (new method)

 maximal supplied QI-value         = 19.84
 optimisation between [QCUT,QGAM] = [ 11.51, 23.22] = [ 37.09,150.92] Ry 
 Optimized for a Real-space Cutoff    1.49 Angstroem

   l    n(q)    QCUT    max X(q) W(low)/X(q) W(high)/X(q)  e(spline) 
   0     10    11.508     7.541    0.34E-04    0.13E-04    0.69E-07
   0     10    11.508     1.809    0.49E-04    0.27E-04    0.14E-06
   1     10    11.508     4.107    0.27E-05    0.41E-05    0.14E-06
   1     10    11.508     2.196    0.26E-05    0.25E-05    0.22E-06
   2      9    11.508     4.265    0.18E-03    0.11E-03    0.81E-06
   2      9    11.508     1.925    0.97E-04    0.76E-04    0.47E-06
 Optimization of the real space projectors (new method)

 maximal supplied QI-value         = 19.84
 optimisation between [QCUT,QGAM] = [ 11.51, 23.22] = [ 37.09,150.92] Ry 
 Optimized for a Real-space Cutoff    1.21 Angstroem

   l    n(q)    QCUT    max X(q) W(low)/X(q) W(high)/X(q)  e(spline) 
   0      8    11.508     6.761    0.57E-04    0.57E-04    0.35E-07
   0      8    11.508     1.642    0.14E-03    0.14E-03    0.91E-07
   1      8    11.508     3.519    0.20E-04    0.72E-04    0.47E-07
   1      8    11.508     2.150    0.27E-04    0.11E-03    0.89E-07
   2      7    11.508     2.976    0.19E-03    0.33E-03    0.16E-06
   2      7    11.508     1.494    0.14E-03    0.29E-03    0.14E-06
  PAW_PBE Li_sv_GW 25Mar2010            :
 energy of atom  1       EATOM= -200.9989
 kinetic energy error for atom=    0.0127 (will be added to EATOM!!)
  PAW_PBE P_GW 19Mar2012                :
 energy of atom  2       EATOM= -176.0430
 kinetic energy error for atom=    0.0011 (will be added to EATOM!!)
  PAW_PBE S_GW 19Mar2012                :
 energy of atom  3       EATOM= -276.8230
 kinetic energy error for atom=    0.0024 (will be added to EATOM!!)
  PAW_PBE Cl_GW 19Mar2012               :
 energy of atom  4       EATOM= -409.7259
 kinetic energy error for atom=    0.0030 (will be added to EATOM!!)
 
 
 POSCAR: Li24 P4 S20 Cl4
  positions in direct lattice
  velocities in cartesian coordinates
 exchange correlation table for  LEXCH =        8
   RHO(1)=    0.500       N(1)  =     2000
   RHO(2)=  100.500       N(2)  =     4000

 VTST: version 4.1, (05/19/21)

 CHAIN: initializing optimizer
 
 OPT: Using VASP Conjugate-Gradient optimizer
 CHAIN: Read ICHAIN            0
 
 POSCAR: Li24 P4 S20 Cl4
  positions in direct lattice
  velocities in cartesian coordinates
 


--------------------------------------------------------------------------------------------------------


 ion  position               nearest neighbor table
   1  0.980  0.303  0.322-
   2  0.980  0.822  0.803-
   3  0.011  0.238  0.738-
   4  0.286  0.577  0.077-
   5  0.185  0.186  0.979-
   6  0.069  0.850  0.144-
   7  0.828  0.169  0.023-
   8  0.740  0.702  0.971-
   9  0.333  0.976  0.287-
  10  0.269  0.020  0.738-
  11  0.674  0.965  0.703-
  12  0.723  0.010  0.285-
  13  0.333  0.787  0.476-
  14  0.269  0.238  0.520-
  15  0.723  0.785  0.510-
  16  0.674  0.203  0.465-
  17  0.185  0.479  0.686-
  18  0.069  0.644  0.350-
  19  0.740  0.471  0.202-
  20  0.828  0.523  0.669-
  21  0.471  0.321  0.821-
  22  0.493  0.703  0.203-
  23  0.535  0.294  0.171-
  24  0.535  0.671  0.794-
  25  0.510  0.486  0.495-  44 2.03  42 2.06  43 2.06  41 2.06
  26  0.510  0.995  0.986-  40 2.03  37 2.06  39 2.06  38 2.06
  27  0.013  0.498  0.998-  36 2.05  35 2.05  34 2.05  33 2.07
  28  0.012  0.986  0.486-  32 2.05  29 2.05  30 2.05  31 2.06
  29  0.134  0.865  0.610-  28 2.05
  30  0.134  0.110  0.365-  28 2.05
  31  0.905  0.856  0.356-  28 2.06
  32  0.872  0.098  0.598-  28 2.05
  33  0.907  0.629  0.129-  27 2.07
  34  0.874  0.384  0.884-  27 2.05
  35  0.133  0.624  0.880-  27 2.05
  36  0.133  0.380  0.124-  27 2.05
  37  0.628  0.130  0.873-  26 2.06
  38  0.638  0.876  0.108-  26 2.06
  39  0.384  0.118  0.105-  26 2.06
  40  0.396  0.865  0.868-  26 2.03
  41  0.638  0.608  0.376-  25 2.06
  42  0.628  0.373  0.630-  25 2.06
  43  0.384  0.605  0.618-  25 2.06
  44  0.396  0.368  0.365-  25 2.03
  45  0.759  0.743  0.741-
  46  0.759  0.241  0.243-
  47  0.265  0.750  0.250-
  48  0.248  0.254  0.754-
  49  0.012  0.010  0.968-
  50  0.012  0.468  0.510-
  51  0.535  0.976  0.476-
  52  0.525  0.514  0.014-
 
  LATTYP: Found a simple cubic cell.
 ALAT       =     9.6955402464
  
  Lattice vectors:
  
 A1 = (   9.6955402464,   0.0000000000,   0.0000000000)
 A2 = (   0.0000000000,   9.6955402464,   0.0000000000)
 A3 = (   0.0000000000,   0.0000000000,   9.6955402464)


Analysis of symmetry for initial positions (statically):
=====================================================================
 Subroutine PRICEL returns:
 Original cell was already a primitive cell.
 

 Routine SETGRP: Setting up the symmetry group for a 
 simple cubic supercell.


 Subroutine GETGRP returns: Found  2 space group operations
 (whereof  1 operations were pure point group operations)
 out of a pool of 48 trial point group operations.


The static configuration has the point symmetry C_1 .
 The point group associated with its full space group is C_1h.


Analysis of symmetry for dynamics (positions and initial velocities):
=====================================================================
 Subroutine PRICEL returns:
 Original cell was already a primitive cell.
 

 Routine SETGRP: Setting up the symmetry group for a 
 simple cubic supercell.


 Subroutine GETGRP returns: Found  2 space group operations
 (whereof  1 operations were pure point group operations)
 out of a pool of 48 trial point group operations.


The dynamic configuration has the point symmetry C_1 .
 The point group associated with its full space group is C_1h.


Analysis of structural, dynamic, and magnetic symmetry:
=====================================================================
 Subroutine PRICEL returns:
 Original cell was already a primitive cell.
 

 Routine SETGRP: Setting up the symmetry group for a 
 simple cubic supercell.


 Subroutine GETGRP returns: Found  2 space group operations
 (whereof  1 operations were pure point group operations)
 out of a pool of 48 trial point group operations.


The overall configuration has the point symmetry C_1 .
 The point group associated with its full space group is C_1h.


 Subroutine INISYM returns: Found  2 space group operations
 (whereof  1 operations are pure point group operations),
 and found     1 'primitive' translations


----------------------------------------------------------------------------------------

                                     Primitive cell                                     

  volume of cell :     911.4147

  direct lattice vectors                    reciprocal lattice vectors
     9.695540246  0.000000000  0.000000000     0.103140204  0.000000000  0.000000000
     0.000000000  9.695540246  0.000000000     0.000000000  0.103140204  0.000000000
     0.000000000  0.000000000  9.695540246     0.000000000  0.000000000  0.103140204

  length of vectors
     9.695540246  9.695540246  9.695540246     0.103140204  0.103140204  0.103140204

  position of ions in fractional coordinates (direct lattice)
     0.979611213  0.303310232  0.322025289
     0.979611213  0.822025289  0.803310232
     0.011363863  0.238289268  0.738289268
     0.286191801  0.576784886  0.076784886
     0.185352886  0.186010756  0.978922376
     0.068545644  0.850295307  0.143822875
     0.827757305  0.169415901  0.022744050
     0.739547633  0.702074991  0.971431772
     0.332913064  0.976384232  0.287450587
     0.269120975  0.020234468  0.738206955
     0.673577047  0.965302613  0.703408725
     0.722869085  0.009522294  0.284842263
     0.332913064  0.787450587  0.476384232
     0.269120975  0.238206955  0.520234468
     0.722869085  0.784842263  0.509522294
     0.673577047  0.203408725  0.465302613
     0.185352886  0.478922376  0.686010756
     0.068545644  0.643822875  0.350295307
     0.739547633  0.471431772  0.202074991
     0.827757305  0.522744050  0.669415901
     0.470993866  0.320909966  0.820909966
     0.493147325  0.703088643  0.203088643
     0.534775553  0.294159802  0.171363086
     0.534775553  0.671363086  0.794159802
     0.510012395  0.485988707  0.494601966
     0.510012395  0.994601966  0.985988707
     0.012615777  0.497699768  0.997699768
     0.011700192  0.985731619  0.485731619
     0.133587621  0.865034056  0.609984347
     0.133587621  0.109984347  0.365034056
     0.904721229  0.856218569  0.356218569
     0.872437583  0.098417749  0.598417749
     0.907480819  0.629360365  0.129360365
     0.874450742  0.384347167  0.884347167
     0.133422346  0.624343601  0.879517952
     0.133422346  0.379517952  0.124343601
     0.627965240  0.129959788  0.873193047
     0.637800227  0.876261305  0.107644481
     0.384478119  0.117727896  0.104875897
     0.395979345  0.864658065  0.868074610
     0.637800227  0.607644481  0.376261305
     0.627965240  0.373193047  0.629959788
     0.384478119  0.604875897  0.617727896
     0.395979345  0.368074610  0.364658065
     0.758876618  0.743091172  0.740550828
     0.758876618  0.240550828  0.243091172
     0.265479943  0.749582388  0.249582388
     0.247704262  0.253744488  0.753744488
     0.011641601  0.010320328  0.968016675
     0.011641601  0.468016675  0.510320328
     0.534660929  0.976367268  0.476367268
     0.524940985  0.513550936  0.013550936

  ion indices of the primitive-cell ions
   primitive index   ion index
                 1           1
                 2           2
                 3           3
                 4           4
                 5           5
                 6           6
                 7           7
                 8           8
                 9           9
                10          10
                11          11
                12          12
                13          13
                14          14
                15          15
                16          16
                17          17
                18          18
                19          19
                20          20
                21          21
                22          22
                23          23
                24          24
                25          25
                26          26
                27          27
                28          28
                29          29
                30          30
                31          31
                32          32
                33          33
                34          34
                35          35
                36          36
                37          37
                38          38
                39          39
                40          40
                41          41
                42          42
                43          43
                44          44
                45          45
                46          46
                47          47
                48          48
                49          49
                50          50
                51          51
                52          52

----------------------------------------------------------------------------------------

 
 
 KPOINTS: Automatic mesh                          

Automatic generation of k-mesh.
 Grid dimensions read from file:
 generate k-points for:    2    2    2

 Generating k-lattice:

  Cartesian coordinates                     Fractional coordinates (reciprocal lattice)
     0.051570102  0.000000000  0.000000000     0.500000000  0.000000000  0.000000000
     0.000000000  0.051570102  0.000000000     0.000000000  0.500000000  0.000000000
     0.000000000  0.000000000  0.051570102     0.000000000  0.000000000  0.500000000

  Length of vectors
     0.051570102  0.051570102  0.051570102

  Shift w.r.t. Gamma in fractional coordinates (k-lattice)
     0.500000000  0.500000000  0.500000000

 
 Subroutine IBZKPT returns following result:
 ===========================================
 
 Found      3 irreducible k-points:
 
 Following reciprocal coordinates:
            Coordinates               Weight
  0.250000  0.250000  0.250000      2.000000
 -0.250000  0.250000  0.250000      2.000000
 -0.250000 -0.250000  0.250000      4.000000
 
 Following cartesian coordinates:
            Coordinates               Weight
  0.025785  0.025785  0.025785      2.000000
 -0.025785  0.025785  0.025785      2.000000
 -0.025785 -0.025785  0.025785      4.000000
 


--------------------------------------------------------------------------------------------------------




 Dimension of arrays:
   k-points           NKPTS =      3   k-points in BZ     NKDIM =      3   number of bands    NBANDS=    176
   number of dos      NEDOS =    301   number of ions     NIONS =     52
   non local maximal  LDIM  =      6   non local SUM 2l+1 LMDIM =     18
   total plane-waves  NPLWV = 373248
   max r-space proj   IRMAX =   5714   max aug-charges    IRDMAX=  17482
   dimension x,y,z NGX =    72 NGY =   72 NGZ =   72
   dimension x,y,z NGXF=   144 NGYF=  144 NGZF=  144
   support grid    NGXF=   144 NGYF=  144 NGZF=  144
   ions per type =              24   4  20   4
   NGX,Y,Z   is equivalent  to a cutoff of  12.35, 12.35, 12.35 a.u.
   NGXF,Y,Z  is equivalent  to a cutoff of  24.69, 24.69, 24.69 a.u.

 SYSTEM =  unknown system                          
 POSCAR =  Li24 P4 S20 Cl4                         

 Startparameter for this run:
   NWRITE =      2    write-flag & timer
   PREC   = accu      normal or accurate (medium, high low for compatibility)
   ISTART =      0    job   : 0-new  1-cont  2-samecut
   ICHARG =      2    charge: 1-file 2-atom 10-const
   ISPIN  =      2    spin polarized calculation?
   LNONCOLLINEAR =      F non collinear calculations
   LSORBIT =      F    spin-orbit coupling
   INIWAV =      1    electr: 0-lowe 1-rand  2-diag
   LASPH  =      T    aspherical Exc in radial PAW
 Electronic Relaxation 1
   ENCUT  =  520.0 eV  38.22 Ry    6.18 a.u.  18.03 18.03 18.03*2*pi/ulx,y,z
   ENINI  =  520.0     initial cutoff
   ENAUG  = 1041.7 eV  augmentation charge cutoff
   NELM   =    100;   NELMIN=  2; NELMDL=-10     # of ELM steps 
   EDIFF  = 0.1E-05   stopping-criterion for ELM
   LREAL  =      T    real-space projection
   NLSPLINE    = F    spline interpolate recip. space projectors
   LCOMPAT=      F    compatible to vasp.4.4
   GGA_COMPAT  = T    GGA compatible to vasp.4.4-vasp.4.6
   LMAXPAW     = -100 max onsite density
   LMAXMIX     =    4 max onsite mixed and CHGCAR
   VOSKOWN=      0    Vosko Wilk Nusair interpolation
   ROPT   =   -0.00025  -0.00025  -0.00025  -0.00025
 Ionic relaxation
   EDIFFG = -.1E-02   stopping-criterion for IOM
   NSW    =   1000    number of steps for IOM
   NBLOCK =      1;   KBLOCK =   1000    inner block; outer block 
   IBRION =      2    ionic relax: 0-MD 1-quasi-New 2-CG
   NFREE  =      1    steps in history (QN), initial steepest desc. (CG)
   ISIF   =      2    stress and relaxation
   IWAVPR =     11    prediction:  0-non 1-charg 2-wave 3-comb
   ISYM   =      2    0-nonsym 1-usesym 2-fastsym
   LCORR  =      T    Harris-Foulkes like correction to forces

   POTIM  = 0.2000    time-step for ionic-motion
   TEIN   =    0.0    initial temperature
   TEBEG  =    0.0;   TEEND  =   0.0 temperature during run
   SMASS  =  -3.00    Nose mass-parameter (am)
   estimated Nose-frequenzy (Omega)   =  0.10E-29 period in steps = 0.31E+47 mass=  -0.215E-26a.u.
   SCALEE = 1.0000    scale energy and forces
   NPACO  =    256;   APACO  = 10.0  distance and # of slots for P.C.
   PSTRESS=    0.0 pullay stress

  Mass of Ions in am
   POMASS =   7.01 30.97 32.07 35.45
  Ionic Valenz
   ZVAL   =   3.00  5.00  6.00  7.00
  Atomic Wigner-Seitz radii
   RWIGS  =  -1.00 -1.00 -1.00 -1.00
  virtual crystal weights 
   VCA    =   1.00  1.00  1.00  1.00
   NELECT =     240.0000    total number of electrons
   NUPDOWN=      -1.0000    fix difference up-down

 DOS related values:
   EMIN   =  10.00;   EMAX   =-10.00  energy-range for DOS
   EFERMI =   0.00;   METHOD = LEGACY      
   ISMEAR =     0;   SIGMA  =   0.03  broadening in eV -4-tet -1-fermi 0-gaus

 Electronic relaxation 2 (details)
   IALGO  =     68    algorithm
   LDIAG  =      T    sub-space diagonalisation (order eigenvalues)
   LSUBROT=      F    optimize rotation matrix (better conditioning)
   TURBO    =      0    0=normal 1=particle mesh
   IRESTART =      0    0=no restart 2=restart with 2 vectors
   NREBOOT  =      0    no. of reboots
   NMIN     =      0    reboot dimension
   EREF     =   0.00    reference energy to select bands
   IMIX   =      4    mixing-type and parameters
     AMIX     =   0.40;   BMIX     =  1.00
     AMIX_MAG =   1.60;   BMIX_MAG =  1.00
     AMIN     =   0.10
     WC   =   100.;   INIMIX=   1;  MIXPRE=   1;  MAXMIX= -45

 Intra band minimization:
   WEIMIN = 0.0010     energy-eigenvalue tresh-hold
   EBREAK =  0.14E-08  absolut break condition
   DEPER  =   0.30     relativ break condition  

   TIME   =   0.40     timestep for ELM

  volume/ion in A,a.u.               =      17.53       118.28
  Fermi-wavevector in a.u.,A,eV,Ry     =   1.049317  1.982921 14.980905  1.101065
  Thomas-Fermi vector in A             =   2.184274
 
 Write flags
   LWAVE        =      F    write WAVECAR
   LDOWNSAMPLE  =      F    k-point downsampling of WAVECAR
   LCHARG       =      F    write CHGCAR
   LVTOT        =      F    write LOCPOT, total local potential
   LVHAR        =      F    write LOCPOT, Hartree potential only
   LELF         =      F    write electronic localiz. function (ELF)
   LORBIT       =      0    0 simple, 1 ext, 2 COOP (PROOUT), +10 PAW based schemes


 Dipole corrections
   LMONO  =      F    monopole corrections only (constant potential shift)
   LDIPOL =      F    correct potential (dipole corrections)
   IDIPOL =      0    1-x, 2-y, 3-z, 4-all directions 
   EPSILON=  1.0000000 bulk dielectric constant

 Exchange correlation treatment:
   GGA     =    PE    GGA type
   LEXCH   =     8    internal setting for exchange type
   LIBXC   =     F    Libxc                    
   VOSKOWN =     0    Vosko Wilk Nusair interpolation
   LHFCALC =     F    Hartree Fock is set to
   LHFONE  =     F    Hartree Fock one center treatment
   AEXX    =    0.0000 exact exchange contribution

 Linear response parameters
   LEPSILON=     F    determine dielectric tensor
   LRPA    =     F    only Hartree local field effects (RPA)
   LNABLA  =     F    use nabla operator in PAW spheres
   LVEL    =     F    velocity operator in full k-point grid
   CSHIFT  =0.1000    complex shift for real part using Kramers Kronig
   OMEGAMAX=  -1.0    maximum frequency
   DEG_THRESHOLD= 0.2000000E-02 threshold for treating states as degnerate
   RTIME   =   -0.100 relaxation time in fs
  (WPLASMAI=    0.000 imaginary part of plasma frequency in eV, 0.658/RTIME)
   DFIELD  = 0.0000000 0.0000000 0.0000000 field for delta impulse in time
 
  Optional k-point grid parameters
   LKPOINTS_OPT  =     F    use optional k-point grid
   KPOINTS_OPT_MODE=     1    mode for optional k-point grid
 
 Orbital magnetization related:
   ORBITALMAG=     F  switch on orbital magnetization
   LCHIMAG   =     F  perturbation theory with respect to B field
   DQ        =  0.001000  dq finite difference perturbation B field
   LLRAUG    =     F  two centre corrections for induced B field
   LBONE     =     F  B-component reconstruction in AE one-centre
   LVGVCALC  =     T  calculate vGv susceptibility
   LVGVAPPL  =     F  apply vGv susceptibility instead of pGv for G=0

 Random number generation:
   RANDOM_GENERATOR = DEFAULT
   PCG_SEED         = not used


--------------------------------------------------------------------------------------------------------


 conjugate gradient relaxation of ions
 charge density and potential will be updated during run
 spin polarized calculation
 RMM-DIIS sequential band-by-band and
  variant of blocked Davidson during initial phase
 perform sub-space diagonalisation
    before iterative eigenvector-optimisation
 modified Broyden-mixing scheme, WC =      100.0
 initial mixing is a Kerker type mixing with AMIX =  0.4000 and BMIX =      1.0000
 Hartree-type preconditioning will be used
 using additional bands           56
 real space projection scheme for non local part
 use partial core corrections
 calculate Harris-corrections to forces 
   (improved forces if not selfconsistent)
 use gradient corrections 
 use of overlap-Matrix (Vanderbilt PP)
 Gauss-broadening in eV      SIGMA  =   0.03


--------------------------------------------------------------------------------------------------------


  energy-cutoff  :      520.00
  volume of cell :      911.41
      direct lattice vectors                 reciprocal lattice vectors
     9.695540246  0.000000000  0.000000000     0.103140204  0.000000000  0.000000000
     0.000000000  9.695540246  0.000000000     0.000000000  0.103140204  0.000000000
     0.000000000  0.000000000  9.695540246     0.000000000  0.000000000  0.103140204

  length of vectors
     9.695540246  9.695540246  9.695540246     0.103140204  0.103140204  0.103140204


 
 k-points in units of 2pi/SCALE and weight: Automatic mesh                          
   0.02578505  0.02578505  0.02578505       0.250
  -0.02578505  0.02578505  0.02578505       0.250
  -0.02578505 -0.02578505  0.02578505       0.500
 
 k-points in reciprocal lattice and weights: Automatic mesh                          
   0.25000000  0.25000000  0.25000000       0.250
  -0.25000000  0.25000000  0.25000000       0.250
  -0.25000000 -0.25000000  0.25000000       0.500
 
 position of ions in fractional coordinates (direct lattice) 
   0.97961121  0.30331023  0.32202529
   0.97961121  0.82202529  0.80331023
   0.01136386  0.23828927  0.73828927
   0.28619180  0.57678489  0.07678489
   0.18535289  0.18601076  0.97892238
   0.06854564  0.85029531  0.14382288
   0.82775730  0.16941590  0.02274405
   0.73954763  0.70207499  0.97143177
   0.33291306  0.97638423  0.28745059
   0.26912098  0.02023447  0.73820696
   0.67357705  0.96530261  0.70340872
   0.72286909  0.00952229  0.28484226
   0.33291306  0.78745059  0.47638423
   0.26912098  0.23820696  0.52023447
   0.72286909  0.78484226  0.50952229
   0.67357705  0.20340872  0.46530261
   0.18535289  0.47892238  0.68601076
   0.06854564  0.64382288  0.35029531
   0.73954763  0.47143177  0.20207499
   0.82775730  0.52274405  0.66941590
   0.47099387  0.32090997  0.82090997
   0.49314732  0.70308864  0.20308864
   0.53477555  0.29415980  0.17136309
   0.53477555  0.67136309  0.79415980
   0.51001239  0.48598871  0.49460197
   0.51001239  0.99460197  0.98598871
   0.01261578  0.49769977  0.99769977
   0.01170019  0.98573162  0.48573162
   0.13358762  0.86503406  0.60998435
   0.13358762  0.10998435  0.36503406
   0.90472123  0.85621857  0.35621857
   0.87243758  0.09841775  0.59841775
   0.90748082  0.62936036  0.12936036
   0.87445074  0.38434717  0.88434717
   0.13342235  0.62434360  0.87951795
   0.13342235  0.37951795  0.12434360
   0.62796524  0.12995979  0.87319305
   0.63780023  0.87626130  0.10764448
   0.38447812  0.11772790  0.10487590
   0.39597935  0.86465806  0.86807461
   0.63780023  0.60764448  0.37626130
   0.62796524  0.37319305  0.62995979
   0.38447812  0.60487590  0.61772790
   0.39597935  0.36807461  0.36465806
   0.75887662  0.74309117  0.74055083
   0.75887662  0.24055083  0.24309117
   0.26547994  0.74958239  0.24958239
   0.24770426  0.25374449  0.75374449
   0.01164160  0.01032033  0.96801667
   0.01164160  0.46801667  0.51032033
   0.53466093  0.97636727  0.47636727
   0.52494098  0.51355094  0.01355094
 
 position of ions in cartesian coordinates  (Angst):
   9.49785994  2.94075656  3.12220915
   9.49785994  7.96997928  7.78852669
   0.11017879  2.31034318  7.15811331
   2.77478413  5.59224107  0.74447095
   1.79709636  1.80347477  9.49118129
   0.66458705  8.24407237  1.39444047
   8.02555426  1.64257869  0.22051585
   7.17031384  6.80699633  9.41855584
   3.22777201  9.46657261  2.78698874
   2.60927325  0.19618410  7.15731525
   6.53069337  9.35913033  6.81992760
   7.00860631  0.09232379  2.76169963
   3.22777201  7.63475886  4.61880249
   2.60927325  2.30954512  5.04395422
   7.00860631  7.60946975  4.94009391
   6.53069337  1.97215747  4.51136021
   1.79709636  4.64341117  6.65124489
   0.66458705  6.24221060  3.39630225
   7.17031384  4.57078572  1.95922621
   8.02555426  5.06828597  6.49034881
   4.56653999  3.11139549  7.95916561
   4.78132973  6.81682424  1.96905412
   5.18493790  2.85203820  1.66145770
   5.18493790  6.50922782  7.69980832
   4.94484570  4.71192307  4.79543327
   4.94484570  9.64320339  9.55969319
   0.12231678  4.82546813  9.67323825
   0.11343969  9.55720059  4.70943046
   1.29520415  8.38697251  5.91412778
   1.29520415  1.06635766  3.53920238
   8.77176109  8.30150160  3.45373147
   8.45875370  0.95421325  5.80198337
   8.79851681  6.10198875  1.25421862
   8.47827236  3.72645342  8.57422355
   1.29360172  6.05334852  8.52740170
   1.29360172  3.67963158  1.20557839
   6.08846226  1.26003035  8.46607833
   6.18381777  8.49582675  1.04367140
   3.72772308  1.14143555  1.01682848
   3.83923368  8.38332707  8.41645231
   6.18381777  5.89144152  3.64805662
   6.08846226  3.61830820  6.10780048
   3.72772308  5.86459860  5.98920568
   3.83923368  3.56868219  3.53555694
   7.35771879  7.20467036  7.18004035
   7.35771879  2.33227023  2.35690024
   2.57397147  7.26760621  2.41983608
   2.40162664  2.46018990  7.30796002
   0.11287161  0.10006115  9.38544463
   0.11287161  4.53767450  4.94783127
   5.18382656  9.46640814  4.61863802
   5.08958644  4.97915377  0.13138365
 


--------------------------------------------------------------------------------------------------------


 k-point   1 :   0.2500 0.2500 0.2500  plane waves:   24516
 k-point   2 :  -0.2500 0.2500 0.2500  plane waves:   24516
 k-point   3 :  -0.2500-0.2500 0.2500  plane waves:   24516

 maximum and minimum number of plane-waves per node :       782      747

 maximum number of plane-waves:     24516
 maximum index in each direction: 
   IXMAX=   18   IYMAX=   18   IZMAX=   17
   IXMIN=  -18   IYMIN=  -18   IZMIN=  -18


 real space projection operators:
  total allocation   :      28044.36 KBytes
  max/ min on nodes  :       1206.83        679.30


 parallel 3D FFT for wavefunctions:
    minimum data exchange during FFTs selected (reduces bandwidth)
 parallel 3D FFT for charge:
    minimum data exchange during FFTs selected (reduces bandwidth)


 total amount of memory used by VASP MPI-rank0    46955. kBytes
=======================================================================

   base      :      30000. kBytes
   nonlr-proj:       6439. kBytes
   fftplans  :       1747. kBytes
   grid      :       5278. kBytes
   one-center:         62. kBytes
   wavefun   :       3429. kBytes
 
     INWAV:  cpu time      0.0000: real time      0.0000
 Broyden mixing: mesh for mixing (old mesh)
   NGX = 37   NGY = 37   NGZ = 37
  (NGX  =144   NGY  =144   NGZ  =144)
  gives a total of  50653 points

 initial charge density was supplied:
 charge density of overlapping atoms calculated
 number of electron     240.0000000 magnetization      52.0000000
 keeping initial charge density in first step


--------------------------------------------------------------------------------------------------------


 Maximum index for non-local projection operator          609
 Maximum index for augmentation-charges          903 (set IRDMAX)


--------------------------------------------------------------------------------------------------------


 First call to EWALD:  gamma=   0.183
 Maximum number of real-space cells 3x 3x 3
 Maximum number of reciprocal cells 3x 3x 3

    FEWALD:  cpu time      0.0029: real time      0.0035


--------------------------------------- Ionic step        1  -------------------------------------------




--------------------------------------- Iteration      1(   1)  ---------------------------------------


    POTLOK:  cpu time      0.0572: real time      0.0657
    SETDIJ:  cpu time      0.4195: real time      0.4276
     EDDAV:  cpu time      5.7886: real time      5.9507
       DOS:  cpu time      0.0025: real time      0.0039
    --------------------------------------------
      LOOP:  cpu time      6.2678: real time      6.4478

 eigenvalue-minimisations  :  2328
 total energy-change (2. order) : 0.1587427E+04  (-0.1132975E+05)
 number of electron     240.0000000 magnetization      52.0000000
 augmentation part      240.0000000 magnetization      52.0000000

 Free energy of the ion-electron system (eV)
  ---------------------------------------------------
  alpha Z        PSCENC =       297.84191161
  Ewald energy   TEWEN  =     -8774.75144001
  -Hartree energ DENC   =     -2130.79647596
  -exchange      EXHF   =         0.00000000
  -V(xc)+E(xc)   XCENC  =       533.73380835
  PAW double counting   =      8141.38806575    -8271.61346273
  entropy T*S    EENTRO =        -0.00726772
  eigenvalues    EBANDS =      -911.50850445
  atomic energy  EATOM  =     12703.13999606
  Solvation  Ediel_sol  =         0.00000000
  ---------------------------------------------------
  free energy    TOTEN  =      1587.42663089 eV

  energy without entropy =     1587.43389862  energy(sigma->0) =     1587.43026476


--------------------------------------------------------------------------------------------------------




--------------------------------------- Iteration      1(   2)  ---------------------------------------


     EDDAV:  cpu time      2.0024: real time      2.0223
       DOS:  cpu time      0.0003: real time      0.0003
    --------------------------------------------
      LOOP:  cpu time      2.0027: real time      2.0227

 eigenvalue-minimisations  :  2864
 total energy-change (2. order) :-0.1641539E+04  (-0.1542313E+04)
 number of electron     240.0000000 magnetization      52.0000000
 augmentation part      240.0000000 magnetization      52.0000000

 Free energy of the ion-electron system (eV)
  ---------------------------------------------------
  alpha Z        PSCENC =       297.84191161
  Ewald energy   TEWEN  =     -8774.75144001
  -Hartree energ DENC   =     -2130.79647596
  -exchange      EXHF   =         0.00000000
  -V(xc)+E(xc)   XCENC  =       533.73380835
  PAW double counting   =      8141.38806575    -8271.61346273
  entropy T*S    EENTRO =        -0.00000000
  eigenvalues    EBANDS =     -2553.05497654
  atomic energy  EATOM  =     12703.13999606
  Solvation  Ediel_sol  =         0.00000000
  ---------------------------------------------------
  free energy    TOTEN  =       -54.11257347 eV

  energy without entropy =      -54.11257347  energy(sigma->0) =      -54.11257347


--------------------------------------------------------------------------------------------------------




--------------------------------------- Iteration      1(   3)  ---------------------------------------


     EDDAV:  cpu time      1.9488: real time      1.9659
       DOS:  cpu time      0.0004: real time      0.0004
    --------------------------------------------
      LOOP:  cpu time      1.9492: real time      1.9662

 eigenvalue-minimisations  :  2864
 total energy-change (2. order) :-0.1741659E+03  (-0.1721074E+03)
 number of electron     240.0000000 magnetization      52.0000000
 augmentation part      240.0000000 magnetization      52.0000000

 Free energy of the ion-electron system (eV)
  ---------------------------------------------------
  alpha Z        PSCENC =       297.84191161
  Ewald energy   TEWEN  =     -8774.75144001
  -Hartree energ DENC   =     -2130.79647596
  -exchange      EXHF   =         0.00000000
  -V(xc)+E(xc)   XCENC  =       533.73380835
  PAW double counting   =      8141.38806575    -8271.61346273
  entropy T*S    EENTRO =        -0.00000000
  eigenvalues    EBANDS =     -2727.22091080
  atomic energy  EATOM  =     12703.13999606
  Solvation  Ediel_sol  =         0.00000000
  ---------------------------------------------------
  free energy    TOTEN  =      -228.27850773 eV

  energy without entropy =     -228.27850773  energy(sigma->0) =     -228.27850773


--------------------------------------------------------------------------------------------------------




--------------------------------------- Iteration      1(   4)  ---------------------------------------


     EDDAV:  cpu time      2.3037: real time      2.3238
       DOS:  cpu time      0.0005: real time      0.0005
    --------------------------------------------
      LOOP:  cpu time      2.3041: real time      2.3242

 eigenvalue-minimisations  :  3504
 total energy-change (2. order) :-0.1312483E+02  (-0.1310076E+02)
 number of electron     240.0000000 magnetization      52.0000000
 augmentation part      240.0000000 magnetization      52.0000000

 Free energy of the ion-electron system (eV)
  ---------------------------------------------------
  alpha Z        PSCENC =       297.84191161
  Ewald energy   TEWEN  =     -8774.75144001
  -Hartree energ DENC   =     -2130.79647596
  -exchange      EXHF   =         0.00000000
  -V(xc)+E(xc)   XCENC  =       533.73380835
  PAW double counting   =      8141.38806575    -8271.61346273
  entropy T*S    EENTRO =        -0.00000000
  eigenvalues    EBANDS =     -2740.34574330
  atomic energy  EATOM  =     12703.13999606
  Solvation  Ediel_sol  =         0.00000000
  ---------------------------------------------------
  free energy    TOTEN  =      -241.40334023 eV

  energy without entropy =     -241.40334023  energy(sigma->0) =     -241.40334023


--------------------------------------------------------------------------------------------------------




--------------------------------------- Iteration      1(   5)  ---------------------------------------


     EDDAV:  cpu time      2.2897: real time      2.3091
       DOS:  cpu time      0.0005: real time      0.0005
    --------------------------------------------
      LOOP:  cpu time      2.2902: real time      2.3096

 eigenvalue-minimisations  :  3424
 total energy-change (2. order) :-0.2612526E+00  (-0.2611468E+00)
 number of electron     240.0000000 magnetization      52.0000000
 augmentation part      240.0000000 magnetization      52.0000000

 Free energy of the ion-electron system (eV)
  ---------------------------------------------------
  alpha Z        PSCENC =       297.84191161
  Ewald energy   TEWEN  =     -8774.75144001
  -Hartree energ DENC   =     -2130.79647596
  -exchange      EXHF   =         0.00000000
  -V(xc)+E(xc)   XCENC  =       533.73380835
  PAW double counting   =      8141.38806575    -8271.61346273
  entropy T*S    EENTRO =        -0.00000000
  eigenvalues    EBANDS =     -2740.60699592
  atomic energy  EATOM  =     12703.13999606
  Solvation  Ediel_sol  =         0.00000000
  ---------------------------------------------------
  free energy    TOTEN  =      -241.66459285 eV

  energy without entropy =     -241.66459285  energy(sigma->0) =     -241.66459285


--------------------------------------------------------------------------------------------------------




--------------------------------------- Iteration      1(   6)  ---------------------------------------


     EDDAV:  cpu time      2.3248: real time      2.3509
       DOS:  cpu time      0.0004: real time      0.0003
    --------------------------------------------
      LOOP:  cpu time      2.3252: real time      2.3513

 eigenvalue-minimisations  :  3464
 total energy-change (2. order) :-0.1100034E-01  (-0.1099918E-01)
 number of electron     240.0000000 magnetization      52.0000000
 augmentation part      240.0000000 magnetization      52.0000000

 Free energy of the ion-electron system (eV)
  ---------------------------------------------------
  alpha Z        PSCENC =       297.84191161
  Ewald energy   TEWEN  =     -8774.75144001
  -Hartree energ DENC   =     -2130.79647596
  -exchange      EXHF   =         0.00000000
  -V(xc)+E(xc)   XCENC  =       533.73380835
  PAW double counting   =      8141.38806575    -8271.61346273
  entropy T*S    EENTRO =        -0.00000000
  eigenvalues    EBANDS =     -2740.61799626
  atomic energy  EATOM  =     12703.13999606
  Solvation  Ediel_sol  =         0.00000000
  ---------------------------------------------------
  free energy    TOTEN  =      -241.67559319 eV

  energy without entropy =     -241.67559319  energy(sigma->0) =     -241.67559319


--------------------------------------------------------------------------------------------------------




--------------------------------------- Iteration      1(   7)  ---------------------------------------


     EDDAV:  cpu time      2.2869: real time      2.3059
       DOS:  cpu time      0.0004: real time      0.0004
    --------------------------------------------
      LOOP:  cpu time      2.2872: real time      2.3062

 eigenvalue-minimisations  :  3456
 total energy-change (2. order) :-0.4006713E-03  (-0.4006503E-03)
 number of electron     240.0000000 magnetization      52.0000000
 augmentation part      240.0000000 magnetization      52.0000000

 Free energy of the ion-electron system (eV)
  ---------------------------------------------------
  alpha Z        PSCENC =       297.84191161
  Ewald energy   TEWEN  =     -8774.75144001
  -Hartree energ DENC   =     -2130.79647596
  -exchange      EXHF   =         0.00000000
  -V(xc)+E(xc)   XCENC  =       533.73380835
  PAW double counting   =      8141.38806575    -8271.61346273
  entropy T*S    EENTRO =        -0.00000000
  eigenvalues    EBANDS =     -2740.61839693
  atomic energy  EATOM  =     12703.13999606
  Solvation  Ediel_sol  =         0.00000000
  ---------------------------------------------------
  free energy    TOTEN  =      -241.67599386 eV

  energy without entropy =     -241.67599386  energy(sigma->0) =     -241.67599386


--------------------------------------------------------------------------------------------------------




--------------------------------------- Iteration      1(   8)  ---------------------------------------


     EDDAV:  cpu time      2.2561: real time      2.2739
       DOS:  cpu time      0.0004: real time      0.0004
    --------------------------------------------
      LOOP:  cpu time      2.2565: real time      2.2743

 eigenvalue-minimisations  :  3424
 total energy-change (2. order) :-0.2415597E-04  (-0.2415542E-04)
 number of electron     240.0000000 magnetization      52.0000000
 augmentation part      240.0000000 magnetization      52.0000000

 Free energy of the ion-electron system (eV)
  ---------------------------------------------------
  alpha Z        PSCENC =       297.84191161
  Ewald energy   TEWEN  =     -8774.75144001
  -Hartree energ DENC   =     -2130.79647596
  -exchange      EXHF   =         0.00000000
  -V(xc)+E(xc)   XCENC  =       533.73380835
  PAW double counting   =      8141.38806575    -8271.61346273
  entropy T*S    EENTRO =        -0.00000000
  eigenvalues    EBANDS =     -2740.61842108
  atomic energy  EATOM  =     12703.13999606
  Solvation  Ediel_sol  =         0.00000000
  ---------------------------------------------------
  free energy    TOTEN  =      -241.67601801 eV

  energy without entropy =     -241.67601801  energy(sigma->0) =     -241.67601801


--------------------------------------------------------------------------------------------------------




--------------------------------------- Iteration      1(   9)  ---------------------------------------


     EDDAV:  cpu time      2.2280: real time      2.2455
       DOS:  cpu time      0.0004: real time      0.0004
    --------------------------------------------
      LOOP:  cpu time      2.2284: real time      2.2458

 eigenvalue-minimisations  :  3360
 total energy-change (2. order) :-0.1594584E-05  (-0.1594368E-05)
 number of electron     240.0000000 magnetization      52.0000000
 augmentation part      240.0000000 magnetization      52.0000000

 Free energy of the ion-electron system (eV)
  ---------------------------------------------------
  alpha Z        PSCENC =       297.84191161
  Ewald energy   TEWEN  =     -8774.75144001
  -Hartree energ DENC   =     -2130.79647596
  -exchange      EXHF   =         0.00000000
  -V(xc)+E(xc)   XCENC  =       533.73380835
  PAW double counting   =      8141.38806575    -8271.61346273
  entropy T*S    EENTRO =        -0.00000000
  eigenvalues    EBANDS =     -2740.61842268
  atomic energy  EATOM  =     12703.13999606
  Solvation  Ediel_sol  =         0.00000000
  ---------------------------------------------------
  free energy    TOTEN  =      -241.67601961 eV

  energy without entropy =     -241.67601961  energy(sigma->0) =     -241.67601961


--------------------------------------------------------------------------------------------------------




--------------------------------------- Iteration      1(  10)  ---------------------------------------


     EDDAV:  cpu time      1.5034: real time      1.5155
       DOS:  cpu time      0.0004: real time      0.0003
    CHARGE:  cpu time      0.2126: real time      0.3236
    MIXING:  cpu time      0.0020: real time      0.0037
    --------------------------------------------
      LOOP:  cpu time      1.7184: real time      1.8431

 eigenvalue-minimisations  :  2024
 total energy-change (2. order) :-0.7818744E-07  (-0.7805605E-07)
 number of electron     240.0000002 magnetization      27.3928893
 augmentation part        1.4794939 magnetization      27.8341970

 Broyden mixing:
  rms(total) = 0.64379E+01    rms(broyden)= 0.64377E+01
  rms(prec ) = 0.66743E+01
  weight for this iteration     100.00

 Free energy of the ion-electron system (eV)
  ---------------------------------------------------
  alpha Z        PSCENC =       297.84191161
  Ewald energy   TEWEN  =     -8774.75144001
  -Hartree energ DENC   =     -2130.79647596
  -exchange      EXHF   =         0.00000000
  -V(xc)+E(xc)   XCENC  =       533.73380835
  PAW double counting   =      8141.38806575    -8271.61346273
  entropy T*S    EENTRO =        -0.00000000
  eigenvalues    EBANDS =     -2740.61842276
  atomic energy  EATOM  =     12703.13999606
  Solvation  Ediel_sol  =         0.00000000
  ---------------------------------------------------
  free energy    TOTEN  =      -241.67601969 eV

  energy without entropy =     -241.67601969  energy(sigma->0) =     -241.67601969


--------------------------------------------------------------------------------------------------------




--------------------------------------- Iteration      1(  11)  ---------------------------------------


    POTLOK:  cpu time      0.0538: real time      0.0583
    SETDIJ:  cpu time      0.3976: real time      0.4013
    EDDIAG:  cpu time      0.2730: real time      0.2755
  RMM-DIIS:  cpu time      0.8774: real time      0.8848
    ORTHCH:  cpu time      0.0546: real time      0.0562
       DOS:  cpu time      0.0004: real time      0.0004
    CHARGE:  cpu time      0.2488: real time      0.4630
    MIXING:  cpu time      0.0009: real time      0.0097
    --------------------------------------------
      LOOP:  cpu time      1.9066: real time      2.1493

 eigenvalue-minimisations  :  2112
 total energy-change (2. order) : 0.7059402E+01  (-0.4906900E+01)
 number of electron     240.0000002 magnetization      16.4519184
 augmentation part        1.6955531 magnetization      16.6375413

 Broyden mixing:
  rms(total) = 0.32993E+01    rms(broyden)= 0.32992E+01
  rms(prec ) = 0.34137E+01
  weight for this iteration     100.00

 eigenvalues of (default mixing * dielectric matrix)
  average eigenvalue GAMMA=   0.7255
  0.7255

 Free energy of the ion-electron system (eV)
  ---------------------------------------------------
  alpha Z        PSCENC =       297.84191161
  Ewald energy   TEWEN  =     -8774.75144001
  -Hartree energ DENC   =     -2180.53770468
  -exchange      EXHF   =         0.00000000
  -V(xc)+E(xc)   XCENC  =       542.51158952
  PAW double counting   =      8933.47356360    -9069.79796035
  entropy T*S    EENTRO =        -0.00000000
  eigenvalues    EBANDS =     -2686.49657393
  atomic energy  EATOM  =     12703.13999606
  Solvation  Ediel_sol  =         0.00000000
  ---------------------------------------------------
  free energy    TOTEN  =      -234.61661817 eV

  energy without entropy =     -234.61661817  energy(sigma->0) =     -234.61661817


--------------------------------------------------------------------------------------------------------




--------------------------------------- Iteration      1(  12)  ---------------------------------------


    POTLOK:  cpu time      0.0516: real time      0.0558
    SETDIJ:  cpu time      0.3967: real time      0.4092
    EDDIAG:  cpu time      0.2711: real time      0.2728
  RMM-DIIS:  cpu time      0.9147: real time      0.9223
    ORTHCH:  cpu time      0.0520: real time      0.0525
       DOS:  cpu time      0.0005: real time      0.0005
    CHARGE:  cpu time      0.1242: real time      0.1574
    MIXING:  cpu time      0.0017: real time      0.0017
    --------------------------------------------
      LOOP:  cpu time      1.8124: real time      1.8723

 eigenvalue-minimisations  :  2213
 total energy-change (2. order) :-0.2117877E+02  (-0.2328641E+01)
 number of electron     240.0000002 magnetization       0.9717513
 augmentation part        1.8028235 magnetization       1.3172589

 Broyden mixing:
  rms(total) = 0.20603E+01    rms(broyden)= 0.20603E+01
  rms(prec ) = 0.21191E+01
  weight for this iteration     100.00

 eigenvalues of (default mixing * dielectric matrix)
  average eigenvalue GAMMA=   1.1083
  1.5492  0.6675

 Free energy of the ion-electron system (eV)
  ---------------------------------------------------
  alpha Z        PSCENC =       297.84191161
  Ewald energy   TEWEN  =     -8774.75144001
  -Hartree energ DENC   =     -2205.88070540
  -exchange      EXHF   =         0.00000000
  -V(xc)+E(xc)   XCENC  =       536.05348726
  PAW double counting   =      9289.93994456    -9429.93409462
  entropy T*S    EENTRO =        -0.00000000
  eigenvalues    EBANDS =     -2672.20448826
  atomic energy  EATOM  =     12703.13999606
  Solvation  Ediel_sol  =         0.00000000
  ---------------------------------------------------
  free energy    TOTEN  =      -255.79538880 eV

  energy without entropy =     -255.79538880  energy(sigma->0) =     -255.79538880


--------------------------------------------------------------------------------------------------------




--------------------------------------- Iteration      1(  13)  ---------------------------------------


    POTLOK:  cpu time      0.0524: real time      0.0532
    SETDIJ:  cpu time      0.4070: real time      0.4085
    EDDIAG:  cpu time      0.2679: real time      0.2699
  RMM-DIIS:  cpu time      0.9027: real time      0.9102
    ORTHCH:  cpu time      0.0527: real time      0.0531
       DOS:  cpu time      0.0004: real time      0.0004
    CHARGE:  cpu time      0.1220: real time      0.1484
    MIXING:  cpu time      0.0012: real time      0.0012
    --------------------------------------------
      LOOP:  cpu time      1.8062: real time      1.8449

 eigenvalue-minimisations  :  2173
 total energy-change (2. order) :-0.2517778E+01  (-0.8563428E+00)
 number of electron     240.0000002 magnetization      -1.9605602
 augmentation part        1.9073713 magnetization      -1.8478905

 Broyden mixing:
  rms(total) = 0.72749E+00    rms(broyden)= 0.72749E+00
  rms(prec ) = 0.75822E+00
  weight for this iteration     100.00

 eigenvalues of (default mixing * dielectric matrix)
  average eigenvalue GAMMA=   1.3078
  2.5320  0.7409  0.6506

 Free energy of the ion-electron system (eV)
  ---------------------------------------------------
  alpha Z        PSCENC =       297.84191161
  Ewald energy   TEWEN  =     -8774.75144001
  -Hartree energ DENC   =     -2233.12205467
  -exchange      EXHF   =         0.00000000
  -V(xc)+E(xc)   XCENC  =       537.47437257
  PAW double counting   =      9778.52555209    -9922.36351789
  entropy T*S    EENTRO =        -0.00000000
  eigenvalues    EBANDS =     -2645.05798650
  atomic energy  EATOM  =     12703.13999606
  Solvation  Ediel_sol  =         0.00000000
  ---------------------------------------------------
  free energy    TOTEN  =      -258.31316674 eV

  energy without entropy =     -258.31316674  energy(sigma->0) =     -258.31316674


--------------------------------------------------------------------------------------------------------




--------------------------------------- Iteration      1(  14)  ---------------------------------------


    POTLOK:  cpu time      0.0517: real time      0.0527
    SETDIJ:  cpu time      0.4074: real time      0.4088
    EDDIAG:  cpu time      0.2675: real time      0.2688
  RMM-DIIS:  cpu time      1.1419: real time      1.1515
    ORTHCH:  cpu time      0.0534: real time      0.0544
       DOS:  cpu time      0.0005: real time      0.0005
    CHARGE:  cpu time      0.1158: real time      0.1357
    MIXING:  cpu time      0.0011: real time      0.0012
    --------------------------------------------
      LOOP:  cpu time      2.0392: real time      2.0735

 eigenvalue-minimisations  :  2748
 total energy-change (2. order) :-0.1881062E+00  (-0.1994169E+00)
 number of electron     240.0000002 magnetization      -0.8941177
 augmentation part        1.8811569 magnetization      -0.8690225

 Broyden mixing:
  rms(total) = 0.32359E+00    rms(broyden)= 0.32359E+00
  rms(prec ) = 0.35930E+00
  weight for this iteration     100.00

 eigenvalues of (default mixing * dielectric matrix)
  average eigenvalue GAMMA=   1.2776
  2.6433  1.1775  0.6917  0.5980

 Free energy of the ion-electron system (eV)
  ---------------------------------------------------
  alpha Z        PSCENC =       297.84191161
  Ewald energy   TEWEN  =     -8774.75144001
  -Hartree energ DENC   =     -2235.32929683
  -exchange      EXHF   =         0.00000000
  -V(xc)+E(xc)   XCENC  =       538.02720611
  PAW double counting   =      9869.80646366   -10014.56219420
  entropy T*S    EENTRO =        -0.00000000
  eigenvalues    EBANDS =     -2642.67391940
  atomic energy  EATOM  =     12703.13999606
  Solvation  Ediel_sol  =         0.00000000
  ---------------------------------------------------
  free energy    TOTEN  =      -258.50127299 eV

  energy without entropy =     -258.50127299  energy(sigma->0) =     -258.50127299


--------------------------------------------------------------------------------------------------------




--------------------------------------- Iteration      1(  15)  ---------------------------------------


    POTLOK:  cpu time      0.0518: real time      0.0531
    SETDIJ:  cpu time      0.4045: real time      0.4059
    EDDIAG:  cpu time      0.2706: real time      0.2721
  RMM-DIIS:  cpu time      0.9553: real time      0.9632
    ORTHCH:  cpu time      0.0527: real time      0.0533
       DOS:  cpu time      0.0004: real time      0.0004
    CHARGE:  cpu time      0.1094: real time      0.1298
    MIXING:  cpu time      0.0014: real time      0.0015
    --------------------------------------------
      LOOP:  cpu time      1.8461: real time      1.8793

 eigenvalue-minimisations  :  2286
 total energy-change (2. order) : 0.3157650E-01  (-0.3553970E-01)
 number of electron     240.0000002 magnetization      -0.2492749
 augmentation part        1.8296926 magnetization      -0.2240568

 Broyden mixing:
  rms(total) = 0.65798E-01    rms(broyden)= 0.65796E-01
  rms(prec ) = 0.77330E-01
  weight for this iteration     100.00

 eigenvalues of (default mixing * dielectric matrix)
  average eigenvalue GAMMA=   1.2750
  2.5457  1.5804  0.9554  0.6870  0.6066

 Free energy of the ion-electron system (eV)
  ---------------------------------------------------
  alpha Z        PSCENC =       297.84191161
  Ewald energy   TEWEN  =     -8774.75144001
  -Hartree energ DENC   =     -2230.23610232
  -exchange      EXHF   =         0.00000000
  -V(xc)+E(xc)   XCENC  =       537.60943274
  PAW double counting   =      9836.58079786    -9981.12411344
  entropy T*S    EENTRO =        -0.00000000
  eigenvalues    EBANDS =     -2647.53017899
  atomic energy  EATOM  =     12703.13999606
  Solvation  Ediel_sol  =         0.00000000
  ---------------------------------------------------
  free energy    TOTEN  =      -258.46969649 eV

  energy without entropy =     -258.46969649  energy(sigma->0) =     -258.46969649


--------------------------------------------------------------------------------------------------------




--------------------------------------- Iteration      1(  16)  ---------------------------------------


    POTLOK:  cpu time      0.0505: real time      0.0533
    SETDIJ:  cpu time      0.4066: real time      0.4079
    EDDIAG:  cpu time      0.2673: real time      0.2695
  RMM-DIIS:  cpu time      0.9681: real time      0.9790
    ORTHCH:  cpu time      0.0520: real time      0.0532
       DOS:  cpu time      0.0004: real time      0.0004
    CHARGE:  cpu time      0.1135: real time      0.1339
    MIXING:  cpu time      0.0015: real time      0.0015
    --------------------------------------------
      LOOP:  cpu time      1.8599: real time      1.8987

 eigenvalue-minimisations  :  2314
 total energy-change (2. order) :-0.2154815E-01  (-0.1076139E-01)
 number of electron     240.0000002 magnetization      -0.1179064
 augmentation part        1.8067291 magnetization      -0.1041295

 Broyden mixing:
  rms(total) = 0.30826E-01    rms(broyden)= 0.30825E-01
  rms(prec ) = 0.37373E-01
  weight for this iteration     100.00

 eigenvalues of (default mixing * dielectric matrix)
  average eigenvalue GAMMA=   1.2477
  2.4575  1.9237  1.0421  0.6229  0.7032  0.7369

 Free energy of the ion-electron system (eV)
  ---------------------------------------------------
  alpha Z        PSCENC =       297.84191161
  Ewald energy   TEWEN  =     -8774.75144001
  -Hartree energ DENC   =     -2229.74809845
  -exchange      EXHF   =         0.00000000
  -V(xc)+E(xc)   XCENC  =       537.51956151
  PAW double counting   =      9824.56991808    -9968.87074848
  entropy T*S    EENTRO =        -0.00000000
  eigenvalues    EBANDS =     -2648.19234497
  atomic energy  EATOM  =     12703.13999606
  Solvation  Ediel_sol  =         0.00000000
[...]
 -0.349   0.358   0.001   0.435   0.026   0.010   0.004   0.000   0.000   0.005   0.003   0.005  -0.003  -0.001
 -0.286   0.294   0.001   0.026   0.415   0.087   0.000   0.003   0.001  -0.003   0.004  -0.000   0.002  -0.004
 -0.302   0.310   0.001   0.010   0.087   0.665   0.000   0.001   0.005  -0.006  -0.003   0.003  -0.006  -0.007
 -0.003   0.002   0.000   0.004   0.000   0.000   0.000   0.000  -0.000   0.000   0.000   0.000  -0.000  -0.000
 -0.002   0.002   0.000   0.000   0.003   0.001   0.000   0.000   0.000  -0.000   0.000   0.000   0.000  -0.000
 -0.002   0.001   0.000   0.000   0.001   0.005  -0.000   0.000   0.000  -0.000  -0.000   0.000  -0.000  -0.000
  0.001  -0.001  -0.000   0.005  -0.003  -0.006   0.000  -0.000  -0.000   0.000   0.000   0.000  -0.000   0.000
  0.005  -0.006  -0.000   0.003   0.004  -0.003   0.000   0.000  -0.000   0.000   0.000   0.000   0.000  -0.000
 -0.009   0.009   0.000   0.005  -0.000   0.003   0.000   0.000   0.000   0.000   0.000   0.000  -0.000  -0.000
  0.011  -0.012  -0.000  -0.003   0.002  -0.006  -0.000   0.000  -0.000  -0.000   0.000  -0.000   0.000   0.000
  0.013  -0.014  -0.000  -0.001  -0.004  -0.007  -0.000  -0.000  -0.000   0.000  -0.000  -0.000   0.000   0.000
 total augmentation occupancy for first ion, spin component:           2
 -0.000   0.000   0.000   0.000   0.000  -0.000  -0.000   0.000  -0.000   0.000  -0.000   0.000  -0.000   0.000
  0.000  -0.000  -0.000  -0.000   0.000   0.000   0.000  -0.000   0.000  -0.000   0.000  -0.000   0.000  -0.000
  0.000  -0.000  -0.000  -0.000  -0.000  -0.000  -0.000  -0.000  -0.000   0.000  -0.000  -0.000   0.000   0.000
  0.000  -0.000  -0.000   0.000   0.000   0.000   0.000  -0.000   0.000  -0.000   0.000   0.000  -0.000  -0.000
  0.000   0.000  -0.000   0.000   0.000  -0.000   0.000  -0.000   0.000  -0.000   0.000   0.000  -0.000   0.000
 -0.000   0.000  -0.000   0.000  -0.000  -0.000  -0.000  -0.000  -0.000   0.000   0.000  -0.000  -0.000   0.000
 -0.000   0.000  -0.000   0.000   0.000  -0.000   0.000  -0.000   0.000   0.000  -0.000   0.000  -0.000   0.000
  0.000  -0.000  -0.000  -0.000  -0.000  -0.000  -0.000  -0.000   0.000  -0.000   0.000  -0.000   0.000  -0.000
 -0.000   0.000  -0.000   0.000   0.000  -0.000   0.000   0.000   0.000   0.000   0.000   0.000  -0.000   0.000
  0.000  -0.000   0.000  -0.000  -0.000   0.000   0.000  -0.000   0.000   0.000  -0.000   0.000  -0.000  -0.000
 -0.000   0.000  -0.000   0.000   0.000   0.000  -0.000   0.000   0.000  -0.000   0.000   0.000  -0.000  -0.000
  0.000  -0.000  -0.000   0.000   0.000  -0.000   0.000  -0.000   0.000   0.000   0.000   0.000  -0.000  -0.000
 -0.000   0.000   0.000  -0.000  -0.000  -0.000  -0.000   0.000  -0.000  -0.000  -0.000  -0.000  -0.000  -0.000
  0.000  -0.000   0.000  -0.000   0.000   0.000   0.000  -0.000   0.000  -0.000  -0.000  -0.000  -0.000  -0.000


------------------------ aborting loop because EDIFF is reached ----------------------------------------


    CHARGE:  cpu time      0.0982: real time      0.1031
    FORLOC:  cpu time      0.0037: real time      0.0037
    FORNL :  cpu time      0.3069: real time      0.3086
    STRESS:  cpu time      0.9154: real time      0.9207
    FORCOR:  cpu time      0.0498: real time      0.0503
    FORHAR:  cpu time      0.0086: real time      0.0087
    MIXING:  cpu time      0.0008: real time      0.0008
    OFIELD:  cpu time      0.0000: real time      0.0000

 ---------------------------------------------------------------------------------------------

         DFTD3 V3.0 Rev 1        
 Edisp (eV)  -13.42488

 E6    (eV) :    -8.2711
 E8    (eV) :    -5.1537
 % E8        : 38.39
    FORVDW:  cpu time      0.2917: real time      0.2939

  FORCE on cell =-STRESS in cart. coord.  units (eV):
  Direction    XX          YY          ZZ          XY          YZ          ZX
  --------------------------------------------------------------------------------------
  Alpha Z   297.84191   297.84191   297.84191
  Ewald   -2979.67271 -2897.58112 -2897.58112    26.95721    58.82737    26.95721
  Hartree   714.96154   758.76324   758.76324     6.73171    29.99470     6.73171
  E(xc)    -947.75586  -947.63832  -947.63832     0.07808     0.10980     0.07808
  Local   -1442.25133 -1564.89906 -1564.89906   -30.24594   -86.86083   -30.24594
  n-local  1480.93022  1481.75882  1481.76880     0.21712     0.84897     1.25222
  augment  -356.78033  -356.79421  -356.79421     0.13586     0.01121     0.13345
  Kinetic  3245.58992  3243.47683  3243.41973    -4.51226    -1.45698    -3.05139
  Fock        0.00000     0.00000     0.00000     0.00000     0.00000     0.00000
  vdW       -14.26175   -14.21515   -14.21515     0.00722    -0.04458     0.00722
  -------------------------------------------------------------------------------------
  Total      -1.39838     0.68940     0.68940     0.61582     1.42977     0.61582
  in kB      -2.45822     1.21189     1.21189     1.08255     2.51339     1.08255
  external pressure =       -0.01 kB  Pullay stress =        0.00 kB


 VOLUME and BASIS-vectors are now :
 -----------------------------------------------------------------------------
  energy-cutoff  :      520.00
  volume of cell :      911.41
      direct lattice vectors                 reciprocal lattice vectors
     9.695540246  0.000000000  0.000000000     0.103140204  0.000000000  0.000000000
     0.000000000  9.695540246  0.000000000     0.000000000  0.103140204  0.000000000
     0.000000000  0.000000000  9.695540246     0.000000000  0.000000000  0.103140204

  length of vectors
     9.695540246  9.695540246  9.695540246     0.103140204  0.103140204  0.103140204


 FORCES acting on ions
    electron-ion (+dipol)            ewald-force                    non-local-force                 convergence-correction
 -----------------------------------------------------------------------------------------------
   -.320E+01 -.494E+01 -.169E+01   0.238E+01 0.406E+01 0.967E+00   0.817E+00 0.889E+00 0.723E+00   0.132E-03 0.736E-05 -.715E-04
   -.320E+01 -.169E+01 -.494E+01   0.238E+01 0.967E+00 0.406E+01   0.817E+00 0.723E+00 0.889E+00   0.132E-03 -.715E-04 0.736E-05
   0.741E+01 0.297E+01 0.297E+01   -.649E+01 -.293E+01 -.293E+01   -.907E+00 -.367E-01 -.367E-01   0.144E-03 -.494E-04 -.494E-04
   -.132E+02 0.252E+01 0.252E+01   0.121E+02 -.169E+01 -.169E+01   0.103E+01 -.834E+00 -.834E+00   -.112E-03 -.403E-04 -.403E-04
   0.827E+00 0.377E+01 -.689E+01   -.488E-02 -.304E+01 0.641E+01   -.824E+00 -.734E+00 0.477E+00   -.190E-04 0.108E-03 -.414E-04
   -.374E+01 -.126E+02 0.131E+02   0.481E+01 0.120E+02 -.124E+02   -.108E+01 0.593E+00 -.751E+00   0.102E-03 -.468E-04 0.307E-04
   -.784E+01 0.667E+01 0.336E-01   0.686E+01 -.598E+01 0.842E+00   0.978E+00 -.689E+00 -.874E+00   0.587E-04 0.368E-04 0.809E-04
   -.154E+01 0.203E+01 0.238E+01   0.239E+01 -.741E+00 -.319E+01   -.851E+00 -.130E+01 0.802E+00   -.513E-04 -.449E-04 -.935E-05
   -.462E+01 -.906E+01 -.939E+01   0.340E+01 0.826E+01 0.745E+01   0.122E+01 0.795E+00 0.194E+01   -.272E-04 -.913E-05 -.101E-03
   -.909E+01 0.878E+00 0.765E+01   0.885E+01 -.400E+00 -.725E+01   0.232E+00 -.473E+00 -.391E+00   -.299E-03 -.183E-03 0.480E-03
   0.860E+01 -.705E+01 0.569E+00   -.751E+01 0.643E+01 0.754E+00   -.109E+01 0.616E+00 -.132E+01   -.305E-04 -.672E-04 -.597E-04
   -.106E+01 -.155E+01 0.139E+01   0.161E+01 0.221E+01 -.291E+01   -.555E+00 -.656E+00 0.153E+01   0.122E-04 0.528E-04 0.143E-03
   -.462E+01 -.939E+01 -.906E+01   0.340E+01 0.745E+01 0.826E+01   0.122E+01 0.194E+01 0.795E+00   -.272E-04 -.101E-03 -.913E-05
   -.909E+01 0.765E+01 0.878E+00   0.885E+01 -.725E+01 -.400E+00   0.232E+00 -.391E+00 -.473E+00   -.299E-03 0.480E-03 -.183E-03
   -.106E+01 0.139E+01 -.155E+01   0.161E+01 -.291E+01 0.221E+01   -.555E+00 0.153E+01 -.656E+00   0.122E-04 0.143E-03 0.528E-04
   0.860E+01 0.569E+00 -.705E+01   -.751E+01 0.754E+00 0.643E+01   -.109E+01 -.132E+01 0.616E+00   -.305E-04 -.597E-04 -.672E-04
   0.827E+00 -.689E+01 0.377E+01   -.488E-02 0.641E+01 -.304E+01   -.824E+00 0.477E+00 -.734E+00   -.190E-04 -.414E-04 0.108E-03
   -.374E+01 0.131E+02 -.126E+02   0.481E+01 -.124E+02 0.120E+02   -.108E+01 -.751E+00 0.593E+00   0.102E-03 0.307E-04 -.468E-04
   -.154E+01 0.238E+01 0.203E+01   0.239E+01 -.319E+01 -.741E+00   -.851E+00 0.802E+00 -.130E+01   -.513E-04 -.935E-05 -.449E-04
   -.784E+01 0.336E-01 0.667E+01   0.686E+01 0.842E+00 -.598E+01   0.978E+00 -.874E+00 -.689E+00   0.587E-04 0.809E-04 0.368E-04
   0.393E+01 -.848E+01 -.848E+01   -.442E+01 0.702E+01 0.702E+01   0.491E+00 0.145E+01 0.145E+01   -.162E-03 -.428E-04 -.428E-04
   0.447E+01 0.155E+01 0.155E+01   -.531E+01 -.557E+00 -.557E+00   0.837E+00 -.992E+00 -.992E+00   -.106E-03 -.540E-04 -.540E-04
   0.720E+01 -.476E+01 0.895E+01   -.669E+01 0.327E+01 -.764E+01   -.502E+00 0.149E+01 -.131E+01   -.116E-03 0.354E-04 0.105E-03
   0.720E+01 0.895E+01 -.476E+01   -.669E+01 -.764E+01 0.327E+01   -.502E+00 -.131E+01 0.149E+01   -.116E-03 0.105E-03 0.354E-04
   0.639E+01 0.512E+01 -.103E+01   -.675E+01 -.581E+01 0.753E+00   0.369E+00 0.683E+00 0.283E+00   -.200E-04 0.520E-04 0.483E-04
   0.639E+01 -.103E+01 0.512E+01   -.675E+01 0.753E+00 -.581E+01   0.369E+00 0.283E+00 0.683E+00   -.200E-04 0.483E-04 0.520E-04
   0.638E+00 0.909E+01 0.909E+01   -.121E+00 -.917E+01 -.917E+01   -.511E+00 0.806E-01 0.806E-01   -.120E-04 0.534E-05 0.534E-05
   -.676E+01 -.583E+01 -.583E+01   0.678E+01 0.566E+01 0.566E+01   -.117E-01 0.167E+00 0.167E+00   0.130E-04 0.295E-04 0.295E-04
   -.362E+02 0.505E+02 -.403E+02   0.387E+02 -.544E+02 0.434E+02   -.242E+01 0.388E+01 -.303E+01   -.374E-04 0.286E-05 0.162E-03
   -.362E+02 -.403E+02 0.505E+02   0.387E+02 0.434E+02 -.544E+02   -.242E+01 -.303E+01 0.388E+01   -.374E-04 0.162E-03 0.286E-05
   0.215E+02 0.405E+02 0.405E+02   -.235E+02 -.437E+02 -.437E+02   0.202E+01 0.323E+01 0.323E+01   0.114E-03 -.303E-04 -.303E-04
   0.362E+02 -.426E+02 -.426E+02   -.396E+02 0.458E+02 0.458E+02   0.343E+01 -.324E+01 -.324E+01   0.265E-03 -.624E-05 -.624E-05
   0.208E+02 -.417E+02 -.417E+02   -.225E+02 0.448E+02 0.448E+02   0.169E+01 -.307E+01 -.307E+01   0.240E-03 -.190E-03 -.190E-03
   0.561E+02 0.336E+02 0.336E+02   -.608E+02 -.358E+02 -.358E+02   0.472E+01 0.214E+01 0.214E+01   0.433E-03 0.227E-03 0.227E-03
   -.483E+02 -.557E+02 0.467E+02   0.515E+02 0.590E+02 -.490E+02   -.322E+01 -.337E+01 0.223E+01   0.239E-03 0.275E-03 0.596E-04
   -.483E+02 0.467E+02 -.557E+02   0.515E+02 -.490E+02 0.590E+02   -.322E+01 0.223E+01 -.337E+01   0.239E-03 0.596E-04 0.275E-03
   -.357E+02 -.488E+02 0.429E+02   0.382E+02 0.521E+02 -.456E+02   -.257E+01 -.330E+01 0.271E+01   -.167E-04 -.241E-03 0.132E-03
   -.455E+02 0.216E+02 -.270E+02   0.494E+02 -.242E+02 0.300E+02   -.390E+01 0.268E+01 -.304E+01   -.228E-03 0.974E-05 -.138E-03
   0.486E+02 -.395E+02 -.320E+02   -.517E+02 0.427E+02 0.349E+02   0.311E+01 -.322E+01 -.292E+01   -.122E-03 0.355E-04 -.137E-03
   0.573E+02 0.450E+02 0.348E+02   -.608E+02 -.486E+02 -.370E+02   0.359E+01 0.364E+01 0.215E+01   -.235E-03 -.216E-03 -.427E-03
   -.455E+02 -.270E+02 0.216E+02   0.494E+02 0.300E+02 -.242E+02   -.390E+01 -.304E+01 0.268E+01   -.228E-03 -.138E-03 0.974E-05
   -.357E+02 0.429E+02 -.488E+02   0.382E+02 -.456E+02 0.521E+02   -.257E+01 0.271E+01 -.330E+01   -.167E-04 0.132E-03 -.241E-03
   0.486E+02 -.320E+02 -.395E+02   -.517E+02 0.349E+02 0.427E+02   0.311E+01 -.292E+01 -.322E+01   -.122E-03 -.137E-03 0.355E-04
   0.573E+02 0.348E+02 0.450E+02   -.608E+02 -.370E+02 -.486E+02   0.359E+01 0.215E+01 0.364E+01   -.235E-03 -.427E-03 -.216E-03
   -.163E+02 0.117E+01 0.153E+01   0.167E+02 -.123E+01 -.159E+01   -.385E+00 0.623E-01 0.646E-01   0.416E-04 -.182E-04 -.117E-03
   -.163E+02 0.153E+01 0.117E+01   0.167E+02 -.159E+01 -.123E+01   -.385E+00 0.646E-01 0.623E-01   0.416E-04 -.117E-03 -.182E-04
   0.442E+01 0.898E+01 0.898E+01   -.464E+01 -.923E+01 -.923E+01   0.211E+00 0.253E+00 0.253E+00   -.133E-03 -.161E-03 -.161E-03
   -.214E+02 -.218E+01 -.218E+01   0.219E+02 0.253E+01 0.253E+01   -.487E+00 -.351E+00 -.351E+00   -.365E-03 0.412E-03 0.412E-03
   0.276E+01 0.833E+01 -.439E+01   -.299E+01 -.842E+01 0.419E+01   0.241E+00 0.916E-01 0.198E+00   0.740E-03 0.317E-03 -.222E-03
   0.276E+01 -.439E+01 0.833E+01   -.299E+01 0.419E+01 -.842E+01   0.241E+00 0.198E+00 0.916E-01   0.740E-03 -.222E-03 0.317E-03
   0.406E+02 -.198E+02 -.198E+02   -.411E+02 0.200E+02 0.200E+02   0.492E+00 -.227E+00 -.227E+00   0.886E-03 -.327E-03 -.327E-03
   0.914E+01 0.227E+02 0.227E+02   -.887E+01 -.230E+02 -.230E+02   -.267E+00 0.349E+00 0.349E+00   -.279E-03 0.160E-03 0.160E-03
 -----------------------------------------------------------------------------------------------
   0.949E+00 -.644E-01 -.644E-01   0.426E-13 0.355E-14 -.355E-14   -.938E+00 0.772E-01 0.772E-01   0.117E-02 -.420E-04 -.420E-04
 
 
 POSITION                                       TOTAL-FORCE (eV/Angst)
 -----------------------------------------------------------------------------------
      9.49792      2.94080      3.12214        -0.000070     -0.000026      0.000128
      9.49792      7.96991      7.78857        -0.000070      0.000128     -0.000026
      0.11019      2.31028      7.15805        -0.000020      0.000162      0.000162
      2.77476      5.59224      0.74447         0.000115      0.000038      0.000038
      1.79712      1.80330      9.49106        -0.000002     -0.000371     -0.000166
      0.66466      8.24412      1.39448        -0.000114     -0.000008     -0.000011
      8.02549      1.64255      0.22052         0.000099      0.000086     -0.000039
      7.17039      6.80706      9.41862        -0.000025     -0.000045     -0.000044
      3.22779      9.46659      2.78705        -0.000029     -0.000018     -0.000065
      2.60968      0.19610      7.15698         0.000472     -0.000031     -0.000395
      6.53070      9.35916      6.82003         0.000066      0.000013     -0.000065
      7.00859      0.09240      2.76175         0.000003     -0.000096     -0.000068
      3.22779      7.63482      4.61882        -0.000029     -0.000065     -0.000018
      2.60968      2.30921      5.04387         0.000472     -0.000395     -0.000031
      7.00859      7.60952      4.94017         0.000003     -0.000068     -0.000096
      6.53070      1.97226      4.51139         0.000066     -0.000065      0.000013
      1.79712      4.64329      6.65107        -0.000002     -0.000166     -0.000371
      0.66466      6.24225      3.39635        -0.000114     -0.000011     -0.000008
      7.17039      4.57085      1.95929        -0.000025     -0.000044     -0.000045
      8.02549      5.06829      6.49032         0.000099     -0.000039      0.000086
      4.56643      3.11154      7.95931        -0.000057      0.000260      0.000260
      4.78136      6.81680      1.96903         0.000067      0.000093      0.000093
      5.18491      2.85211      1.66149         0.000173     -0.000074     -0.000068
      5.18491      6.50926      7.69988         0.000173     -0.000068     -0.000074
      4.94484      4.71198      4.79545         0.000359      0.000270      0.000308
      4.94484      9.64323      9.55975         0.000359      0.000308      0.000270
      0.12230      4.82543      9.67320        -0.000197     -0.000247     -0.000247
      0.11330      9.55720      4.70943         0.000258      0.000009      0.000009
      1.29515      8.38695      5.91411        -0.000306      0.000498     -0.000277
      1.29515      1.06634      3.53918        -0.000306     -0.000277      0.000498
      8.77172      8.30150      3.45373        -0.000516     -0.000262     -0.000262
      8.45868      0.95418      5.80195        -0.000568      0.000431      0.000431
      8.79862      6.10197      1.25420         0.000163     -0.000209     -0.000209
      8.47825      3.72643      8.57420         0.000289      0.000096      0.000096
      1.29362      6.05324      8.52730         0.000271      0.000091     -0.000333
      1.29362      3.67953      1.20547         0.000271     -0.000333      0.000091
      6.08837      1.26008      8.46609        -0.000299     -0.000272      0.000158
      6.18385      8.49588      1.04371        -0.000105      0.000163      0.000027
      3.72772      1.14146      1.01688         0.000026      0.000107      0.000199
      3.83916      8.38327      8.41664        -0.000373     -0.000307     -0.000177
      6.18385      5.89148      3.64811        -0.000105      0.000027      0.000163
      6.08837      3.61832      6.10785        -0.000299      0.000158     -0.000272
      3.72772      5.86465      5.98923         0.000026      0.000199      0.000107
      3.83916      3.56887      3.53550        -0.000373     -0.000177     -0.000307
      7.35772      7.20468      7.18007        -0.000135      0.000132      0.000183
      7.35772      2.33230      2.35691        -0.000135      0.000183      0.000132
      2.57399      7.26761      2.41984         0.000261      0.000096      0.000096
      2.40166      2.46010      7.30787         0.000106     -0.000343     -0.000343
      0.11272      0.09995      9.38549         0.000033      0.000217      0.000021
      0.11272      4.53772      4.94772         0.000033      0.000021      0.000217
      5.18359      9.46653      4.61876         0.000106     -0.000052     -0.000052
      5.08962      4.97910      0.13133        -0.000095      0.000283      0.000283
 -----------------------------------------------------------------------------------
    total drift:                                0.012491      0.012736      0.012731


--------------------------------------------------------------------------------------------------------



  FREE ENERGIE OF THE ION-ELECTRON SYSTEM (eV)
  ---------------------------------------------------
  free  energy   TOTEN  =      -271.92375542 eV

  energy  without entropy=     -271.92375542  energy(sigma->0) =     -271.92375542
 
 d Force = 0.9144816E-06[ 0.162E-06, 0.167E-05]  d Energy = 0.1265368E-05-0.351E-06
 d Force = 0.8439800E-02[ 0.844E-02, 0.844E-02]  d Ewald  = 0.8439069E-02 0.731E-06


--------------------------------------------------------------------------------------------------------


    POTLOK:  cpu time      0.4607: real time      0.4621


--------------------------------------------------------------------------------------------------------


 stress matrix after NEB project (eV)
     -1.39838      0.61582      0.61582
      0.61582      0.68940      1.42977
      0.61582      1.42977      0.68940
  FORCES: max atom, RMS     0.000833    0.000361
  FORCE total and by dimension    0.002601    0.000568
  Stress total and by dimension    2.917437    1.429769


--------------------------------------------------------------------------------------------------------


  
 reached required accuracy - stopping structural energy minimisation
     LOOP+:  cpu time      7.9633: real time      8.0428
    4ORBIT:  cpu time      0.0000: real time      0.0000

 total amount of memory used by VASP MPI-rank0    46955. kBytes
=======================================================================

   base      :      30000. kBytes
   nonlr-proj:       6439. kBytes
   fftplans  :       1747. kBytes
   grid      :       5278. kBytes
   one-center:         62. kBytes
   wavefun   :       3429. kBytes
 
  
  
 General timing and accounting informations for this job:
 ========================================================
  
                  Total CPU time used (sec):      110.904
                            User time (sec):      109.237
                          System time (sec):        1.667
                         Elapsed time (sec):      119.127
  
                   Maximum memory used (kb):      397556.
                   Average memory used (kb):          N/A
  
                          Minor page faults:        72338
                          Major page faults:          135
                 Voluntary context switches:         6472
