<?xml version="1.0" encoding="ISO-8859-1"?>
<modeling>
 <generator>
  <i name="program" type="string">vasp </i>
  <i name="version" type="string">6.4.1  </i>
  <i name="subversion" type="string">05Apr23 (build Jun 07 2023 15:38:11) complex                          parallel </i>
  <i name="platform" type="string">LinuxIFC </i>
  <i name="date" type="string">2023 10 19 </i>
  <i name="time" type="string">14:56:45 </i>
 </generator>
 <incar>
  <i type="string" name="PREC">Accu</i>
  <i type="string" name="ALGO">F</i>
  <i type="logical" name="LDIAG"> T  </i>
  <i type="int" name="ISPIN">     2</i>
  <i type="int" name="NELM">   100</i>
  <i type="int" name="NELMDL">   -10</i>
  <i type="int" name="IBRION">     2</i>
  <i name="EDIFF">      0.00000100</i>
  <i name="EDIFFG">     -0.00100000</i>
  <i type="int" name="NSW">  1000</i>
  <i type="int" name="ISIF">     2</i>
  <i name="ENCUT">    520.00000000</i>
  <i name="POTIM">      0.20000000</i>
  <i type="string" name="LREAL">Auto</i>
  <i type="logical" name="LPLANE"> T  </i>
  <i type="int" name="ISMEAR">     0</i>
  <i name="SIGMA">      0.03000000</i>
  <i type="int" name="LMAXMIX">     4</i>
  <i type="logical" name="LWAVE"> F  </i>
  <i type="logical" name="LCHARG"> F  </i>
  <i type="logical" name="LASPH"> T  </i>
  <i type="string" name="GGA">PE</i>
  <i type="int" name="IVDW">    12</i>
 </incar>
 <primitive_cell>
  <structure name="primitive_cell" >
   <crystal>
    <varray name="basis" >
     <v>       9.69554025       0.00000000       0.00000000 </v>
     <v>       0.00000000       9.69554025       0.00000000 </v>
     <v>       0.00000000       0.00000000       9.69554025 </v>
    </varray>
    <i name="volume">    911.41472404 </i>
    <varray name="rec_basis" >
     <v>       0.10314020       0.00000000       0.00000000 </v>
     <v>       0.00000000       0.10314020       0.00000000 </v>
     <v>       0.00000000       0.00000000       0.10314020 </v>
    </varray>
   </crystal>
   <varray name="positions" >
    <v>       0.97961121       0.30331023       0.32202529 </v>
    <v>       0.97961121       0.82202529       0.80331023 </v>
    <v>       0.01136386       0.23828927       0.73828927 </v>
    <v>       0.28619180       0.57678489       0.07678489 </v>
    <v>       0.18535289       0.18601076       0.97892238 </v>
    <v>       0.06854564       0.85029531       0.14382288 </v>
    <v>       0.82775730       0.16941590       0.02274405 </v>
    <v>       0.73954763       0.70207499       0.97143177 </v>
    <v>       0.33291306       0.97638423       0.28745059 </v>
    <v>       0.26912098       0.02023447       0.73820696 </v>
    <v>       0.67357705       0.96530261       0.70340872 </v>
    <v>       0.72286909       0.00952229       0.28484226 </v>
    <v>       0.33291306       0.78745059       0.47638423 </v>
    <v>       0.26912098       0.23820696       0.52023447 </v>
    <v>       0.72286909       0.78484226       0.50952229 </v>
    <v>       0.67357705       0.20340872       0.46530261 </v>
    <v>       0.18535289       0.47892238       0.68601076 </v>
    <v>       0.06854564       0.64382288       0.35029531 </v>
    <v>       0.73954763       0.47143177       0.20207499 </v>
    <v>       0.82775730       0.52274405       0.66941590 </v>
    <v>       0.47099387       0.32090997       0.82090997 </v>
    <v>       0.49314732       0.70308864       0.20308864 </v>
    <v>       0.53477555       0.29415980       0.17136309 </v>
    <v>       0.53477555       0.67136309       0.79415980 </v>
    <v>       0.51001239       0.48598871       0.49460197 </v>
    <v>       0.51001239       0.99460197       0.98598871 </v>
    <v>       0.01261578       0.49769977       0.99769977 </v>
    <v>       0.01170019       0.98573162       0.48573162 </v>
    <v>       0.13358762       0.86503406       0.60998435 </v>
    <v>       0.13358762       0.10998435       0.36503406 </v>
    <v>       0.90472123       0.85621857       0.35621857 </v>
    <v>       0.87243758       0.09841775       0.59841775 </v>
    <v>       0.90748082       0.62936036       0.12936036 </v>
    <v>       0.87445074       0.38434717       0.88434717 </v>
    <v>       0.13342235       0.62434360       0.87951795 </v>
    <v>       0.13342235       0.37951795       0.12434360 </v>
    <v>       0.62796524       0.12995979       0.87319305 </v>
    <v>       0.63780023       0.87626130       0.10764448 </v>
    <v>       0.38447812       0.11772790       0.10487590 </v>
    <v>       0.39597935       0.86465806       0.86807461 </v>
    <v>       0.63780023       0.60764448       0.37626130 </v>
    <v>       0.62796524       0.37319305       0.62995979 </v>
    <v>       0.38447812       0.60487590       0.61772790 </v>
    <v>       0.39597935       0.36807461       0.36465806 </v>
    <v>       0.75887662       0.74309117       0.74055083 </v>
    <v>       0.75887662       0.24055083       0.24309117 </v>
    <v>       0.26547994       0.74958239       0.24958239 </v>
    <v>       0.24770426       0.25374449       0.75374449 </v>
    <v>       0.01164160       0.01032033       0.96801667 </v>
    <v>       0.01164160       0.46801667       0.51032033 </v>
    <v>       0.53466093       0.97636727       0.47636727 </v>
    <v>       0.52494098       0.51355094       0.01355094 </v>
   </varray>
  </structure>
  <varray name="primitive_index" >
   <v type="int" >        1 </v>
   <v type="int" >        2 </v>
   <v type="int" >        3 </v>
   <v type="int" >        4 </v>
   <v type="int" >        5 </v>
   <v type="int" >        6 </v>
   <v type="int" >        7 </v>
   <v type="int" >        8 </v>
   <v type="int" >        9 </v>
   <v type="int" >       10 </v>
   <v type="int" >       11 </v>
   <v type="int" >       12 </v>
   <v type="int" >       13 </v>
   <v type="int" >       14 </v>
   <v type="int" >       15 </v>
   <v type="int" >       16 </v>
   <v type="int" >       17 </v>
   <v type="int" >       18 </v>
   <v type="int" >       19 </v>
   <v type="int" >       20 </v>
   <v type="int" >       21 </v>
   <v type="int" >       22 </v>
   <v type="int" >       23 </v>
   <v type="int" >       24 </v>
   <v type="int" >       25 </v>
   <v type="int" >       26 </v>
   <v type="int" >       27 </v>
   <v type="int" >       28 </v>
   <v type="int" >       29 </v>
   <v type="int" >       30 </v>
   <v type="int" >       31 </v>
   <v type="int" >       32 </v>
   <v type="int" >       33 </v>
   <v type="int" >       34 </v>
   <v type="int" >       35 </v>
   <v type="int" >       36 </v>
   <v type="int" >       37 </v>
   <v type="int" >       38 </v>
   <v type="int" >       39 </v>
   <v type="int" >       40 </v>
   <v type="int" >       41 </v>
   <v type="int" >       42 </v>
   <v type="int" >       43 </v>
   <v type="int" >       44 </v>
   <v type="int" >       45 </v>
   <v type="int" >       46 </v>
   <v type="int" >       47 </v>
   <v type="int" >       48 </v>
   <v type="int" >       49 </v>
   <v type="int" >       50 </v>
   <v type="int" >       51 </v>
   <v type="int" >       52 </v>
  </varray>
 </primitive_cell>
 <kpoints>
  <generation param="Monkhorst-Pack">
   <v type="int" name="divisions">       2        2        2 </v>
   <v name="usershift">      0.00000000       0.00000000       0.00000000 </v>
   <v name="genvec1">      0.50000000       0.00000000       0.00000000 </v>
   <v name="genvec2">      0.00000000       0.50000000       0.00000000 </v>
   <v name="genvec3">      0.00000000       0.00000000       0.50000000 </v>
   <v name="shift">      0.50000000       0.50000000       0.50000000 </v>
  </generation>
  <varray name="kpointlist" >
   <v>       0.25000000       0.25000000       0.25000000 </v>
   <v>      -0.25000000       0.25000000       0.25000000 </v>
   <v>      -0.25000000      -0.25000000       0.25000000 </v>
  </varray>
  <varray name="weights" >
   <v>       0.25000000 </v>
   <v>       0.25000000 </v>
   <v>       0.50000000 </v>
  </varray>
 </kpoints>
 <parameters>
  <separator name="general" >
   <i type="string" name="SYSTEM">unknown system</i>
   <i type="logical" name="LCOMPAT"> F  </i>
  </separator>
  <separator name="electronic" >
   <i type="string" name="PREC">accu</i>
   <i name="ENMAX">    520.00000000</i>
   <i name="ENAUG">   1041.69900000</i>
   <i name="EDIFF">      0.00000100</i>
   <i type="int" name="IALGO">    68</i>
   <i type="int" name="IWAVPR">    11</i>
   <i type="int" name="NBANDS">   176</i>
   <i type="int" name="NBANDSLOW">    -1</i>
   <i type="int" name="NBANDSHIGH">    -1</i>
   <i name="NELECT">    240.00000000</i>
   <i type="int" name="TURBO">     0</i>
   <i type="int" name="IRESTART">     0</i>
   <i type="int" name="NREBOOT">     0</i>
   <i type="int" name="NMIN">     0</i>
   <i name="EREF">      0.00000000</i>
   <separator name="electronic smearing" >
    <i type="int" name="ISMEAR">     0</i>
    <i name="SIGMA">      0.03000000</i>
    <i name="KSPACING">      0.50000000</i>
    <i type="logical" name="KGAMMA"> T  </i>
    <i type="logical" name="KBLOWUP"> T  </i>
   </separator>
   <separator name="electronic projectors" >
    <i type="logical" name="LREAL"> T  </i>
    <v name="ROPT">     -0.00025000     -0.00025000     -0.00025000     -0.00025000</v>
    <i type="int" name="LMAXPAW">  -100</i>
    <i type="int" name="LMAXMIX">     4</i>
    <i type="logical" name="NLSPLINE"> F  </i>
   </separator>
   <separator name="electronic startup" >
    <i type="int" name="ISTART">     0</i>
    <i type="int" name="ICHARG">     2</i>
    <i type="int" name="INIWAV">     1</i>
   </separator>
   <separator name="electronic spin" >
    <i type="int" name="ISPIN">     2</i>
    <i type="logical" name="LNONCOLLINEAR"> F  </i>
    <v name="MAGMOM">      1.00000000      1.00000000      1.00000000      1.00000000      1.00000000      1.00000000      1.00000000      1.00000000      1.00000000      1.00000000      1.00000000      1.00000000      1.00000000      1.00000000      1.00000000      1.00000000      1.00000000      1.00000000      1.00000000      1.00000000
      1.00000000      1.00000000      1.00000000      1.00000000      1.00000000      1.00000000      1.00000000      1.00000000      1.00000000      1.00000000      1.00000000      1.00000000      1.00000000      1.00000000      1.00000000      1.00000000      1.00000000      1.00000000      1.00000000      1.00000000
      1.00000000      1.00000000      1.00000000      1.00000000      1.00000000      1.00000000      1.00000000      1.00000000      1.00000000      1.00000000      1.00000000      1.00000000</v>
    <i name="NUPDOWN">     -1.00000000</i>
    <i type="logical" name="LSORBIT"> F  </i>
    <v name="SAXIS">      0.00000000      0.00000000      1.00000000</v>
    <i type="logical" name="LSPIRAL"> F  </i>
    <v name="QSPIRAL">      0.00000000      0.00000000      0.00000000</v>
    <i type="logical" name="LZEROZ"> F  </i>
   </separator>
   <separator name="electronic exchange-correlation" >
    <i type="logical" name="LASPH"> T  </i>
    <i type="logical" name="LMETAGGA"> F  </i>
   </separator>
   <separator name="electronic convergence" >
    <i type="int" name="NELM">   100</i>
    <i type="int" name="NELMDL">   -10</i>
    <i type="int" name="NELMIN">     2</i>
    <i name="ENINI">    520.00000000</i>
    <separator name="electronic convergence detail" >
     <i type="logical" name="LDIAG"> T  </i>
     <i type="logical" name="LSUBROT"> F  </i>
     <i name="WEIMIN">      0.00100000</i>
     <i name="EBREAK">      0.00000000</i>
     <i name="DEPER">      0.30000000</i>
     <i type="int" name="NRMM">     4</i>
     <i name="TIME">      0.40000000</i>
    </separator>
   </separator>
   <separator name="electronic mixer" >
    <i name="AMIX">      0.40000000</i>
    <i name="BMIX">      1.00000000</i>
    <i name="AMIN">      0.10000000</i>
    <i name="AMIX_MAG">      1.60000000</i>
    <i name="BMIX_MAG">      1.00000000</i>
    <separator name="electronic mixer details" >
     <i type="int" name="IMIX">     4</i>
     <i type="logical" name="MIXFIRST"> F  </i>
     <i type="int" name="MAXMIX">   -45</i>
     <i name="WC">    100.00000000</i>
     <i type="int" name="INIMIX">     1</i>
     <i type="int" name="MIXPRE">     1</i>
     <i type="int" name="MREMOVE">     5</i>
    </separator>
   </separator>
   <separator name="electronic dipolcorrection" >
    <i type="logical" name="LDIPOL"> F  </i>
    <i type="logical" name="LMONO"> F  </i>
    <i type="int" name="IDIPOL">     0</i>
    <i name="EPSILON">      1.00000000</i>
    <v name="DIPOL">   -100.00000000   -100.00000000   -100.00000000</v>
    <i name="EFIELD">      0.00000000</i>
   </separator>
  </separator>
  <separator name="grids" >
   <i type="int" name="NGX">    72</i>
   <i type="int" name="NGY">    72</i>
   <i type="int" name="NGZ">    72</i>
   <i type="int" name="NGXF">   144</i>
   <i type="int" name="NGYF">   144</i>
   <i type="int" name="NGZF">   144</i>
   <i type="logical" name="ADDGRID"> F  </i>
  </separator>
  <separator name="ionic" >
   <i type="int" name="NSW">  1000</i>
   <i type="int" name="IBRION">     2</i>
   <i type="int" name="MDALGO">     0</i>
   <i type="int" name="ISIF">     2</i>
   <i name="PSTRESS">      0.00000000</i>
   <i name="EDIFFG">     -0.00100000</i>
   <i type="int" name="NFREE">     1</i>
   <i name="POTIM">      0.20000000</i>
   <i name="SMASS">     -3.00000000</i>
   <i name="SCALEE">      1.00000000</i>
  </separator>
  <separator name="ionic md" >
   <i name="TEBEG">      0.00010000</i>
   <i name="TEEND">      0.00010000</i>
   <i type="int" name="NBLOCK">     1</i>
   <i type="int" name="KBLOCK">  1000</i>
   <i type="int" name="NPACO">   256</i>
   <i name="APACO">     10.00000000</i>
  </separator>
  <separator name="symmetry" >
   <i type="int" name="ISYM">     2</i>
   <i name="SYMPREC">      0.00001000</i>
  </separator>
  <separator name="dos" >
   <i type="int" name="LORBIT">     0</i>
   <v name="RWIGS">     -1.00000000     -1.00000000     -1.00000000     -1.00000000</v>
   <i type="int" name="NEDOS">   301</i>
   <i name="EMIN">     10.00000000</i>
   <i name="EMAX">    -10.00000000</i>
   <i name="EFERMI">      0.00000000</i>
  </separator>
  <separator name="writing" >
   <i type="int" name="NWRITE">     2</i>
   <i type="logical" name="LWAVE"> F  </i>
   <i type="logical" name="LDOWNSAMPLE"> F  </i>
   <i type="logical" name="LCHARG"> F  </i>
   <i type="logical" name="LPARD"> F  </i>
   <i type="logical" name="LVTOT"> F  </i>
   <i type="logical" name="LVHAR"> F  </i>
   <i type="logical" name="LELF"> F  </i>
   <i type="logical" name="LOPTICS"> F  </i>
   <v name="STM">      0.00000000      0.00000000      0.00000000      0.00000000      0.00000000      0.00000000      0.00000000</v>
  </separator>
  <separator name="performance" >
   <i type="int" name="NPAR">     4</i>
   <i type="int" name="NSIM">     4</i>
   <i type="int" name="NBLK">    -1</i>
   <i type="logical" name="LPLANE"> T  </i>
   <i type="logical" name="LSCALAPACK"> T  </i>
   <i type="logical" name="LSCAAWARE"> F  </i>
   <i type="logical" name="LSCALU"> F  </i>
   <i type="logical" name="LASYNC"> F  </i>
   <i type="logical" name="LORBITALREAL"> F  </i>
  </separator>
  <separator name="miscellaneous" >
   <i type="int" name="IDIOT">     3</i>
   <i type="int" name="PHON_NSTRUCT">    -1</i>
   <i type="logical" name="LMUSIC"> F  </i>
   <v name="POMASS">      7.01000000     30.97400000     32.06600000     35.45300000</v>
   <v name="DARWINR">      0.00000000      0.00000000      0.00000000      0.00000000</v>
   <v name="DARWINV">      1.00000000      1.00000000      1.00000000      1.00000000</v>
   <i type="logical" name="LCORR"> T  </i>
  </separator>
  <i type="logical" name="GGA_COMPAT"> T  </i>
  <i type="logical" name="LBERRY"> F  </i>
  <i type="int" name="ICORELEVEL">     0</i>
  <i type="logical" name="LDAU"> F  </i>
  <i type="int" name="I_CONSTRAINED_M">     0</i>
  <separator name="electronic exchange-correlation" >
   <i type="string" name="GGA">PE</i>
   <i type="int" name="VOSKOWN">     0</i>
   <i type="logical" name="LHFCALC"> F  </i>
   <i type="string" name="PRECFOCK"></i>
   <i type="logical" name="LSYMGRAD"> F  </i>
   <i type="logical" name="LHFONE"> F  </i>
   <i type="logical" name="LRHFCALC"> F  </i>
   <i type="logical" name="LTHOMAS"> F  </i>
   <i type="logical" name="LMODELHF"> F  </i>
   <i type="logical" name="LFOCKACE"> F  </i>
   <i name="ENCUT4O">     -1.00000000</i>
   <i type="int" name="EXXOEP">     0</i>
   <i type="int" name="FOURORBIT">     0</i>
   <i name="AEXX">      0.00000000</i>
   <i name="HFALPHA">      0.00000000</i>
   <i name="MCALPHA">      0.00000000</i>
   <i name="ALDAX">      1.00000000</i>
   <i name="AGGAX">      1.00000000</i>
   <i name="ALDAC">      1.00000000</i>
   <i name="AGGAC">      1.00000000</i>
   <i type="int" name="NKREDX">     1</i>
   <i type="int" name="NKREDY">     1</i>
   <i type="int" name="NKREDZ">     1</i>
   <i type="logical" name="SHIFTRED"> F  </i>
   <i type="logical" name="ODDONLY"> F  </i>
   <i type="logical" name="EVENONLY"> F  </i>
   <i type="int" name="LMAXFOCK">     0</i>
   <i type="int" name="NMAXFOCKAE">     0</i>
   <i type="logical" name="LFOCKAEDFT"> F  </i>
   <i name="HFSCREEN">      0.00000000</i>
   <i name="HFSCREENC">      0.00000000</i>
   <i type="int" name="NBANDSGWLOW">     0</i>
  </separator>
  <separator name="vdW DFT" >
   <i type="logical" name="LUSE_VDW"> F  </i>
   <i type="int" name="IVDW_NL">     1</i>
   <i type="logical" name="LSPIN_VDW"> F  </i>
   <i name="Zab_VDW">     -0.84910000</i>
   <i name="PARAM1">      0.12340000</i>
   <i name="PARAM2">      1.00000000</i>
   <i name="PARAM3">      0.00000000</i>
  </separator>
  <separator name="model GW" >
   <i type="int" name="MODEL_GW">     0</i>
   <i name="MODEL_EPS0">     10.51632374</i>
   <i name="MODEL_ALPHA">      1.00000000</i>
  </separator>
  <separator name="linear response parameters" >
   <i type="logical" name="LEPSILON"> F  </i>
   <i type="logical" name="LRPA"> F  </i>
   <i type="logical" name="LNABLA"> F  </i>
   <i type="logical" name="LVEL"> F  </i>
   <i name="CSHIFT">      0.10000000</i>
   <i name="OMEGAMAX">     -1.00000000</i>
   <i name="DEG_THRESHOLD">      0.00200000</i>
   <i name="RTIME">     -0.10000000</i>
   <i name="WPLASMAI">      0.00000000</i>
   <v name="DFIELD">      0.00000000      0.00000000      0.00000000</v>
   <v name="WPLASMA">      0.00000000      0.00000000      0.00000000      0.00000000      0.00000000      0.00000000      0.00000000      0.00000000      0.00000000</v>
  </separator>
  <separator name="orbital magnetization" >
   <i type="logical" name="NUCIND"> F  </i>
   <v name="MAGPOS">      0.00000000      0.00000000      0.00000000</v>
   <i type="logical" name="LNICSALL"> T  </i>
   <i type="logical" name="ORBITALMAG"> F  </i>
   <i type="logical" name="LMAGBLOCH"> F  </i>
   <i type="logical" name="LCHIMAG"> F  </i>
   <i type="logical" name="LGAUGE"> T  </i>
   <i type="int" name="MAGATOM">     0</i>
   <v name="MAGDIPOL">      0.00000000      0.00000000      0.00000000</v>
   <v name="AVECCONST">      0.00000000      0.00000000      0.00000000</v>
  </separator>
  <separator name="response functions" >
   <i type="logical" name="LALL_IN_ONE"> F  </i>
   <i type="int" name="IALL_IN_ONE">    -1</i>
   <i type="int" name="NBANDS_WAVE">    -1</i>
   <i type="logical" name="LFINITE_TEMPERATURE"> F  </i>
   <i type="logical" name="LADDER"> F  </i>
   <i type="logical" name="LRPAFORCE"> F  </i>
   <i type="logical" name="LFXC"> F  </i>
   <i type="logical" name="LHARTREE"> T  </i>
   <i type="int" name="IBSE">     0</i>
   <v type="int" name="KPOINT">    -1     0     0     0</v>
   <i type="logical" name="LTCTC"> F  </i>
   <i type="logical" name="LTCTE"> F  </i>
   <i type="logical" name="LTETE"> F  </i>
   <i type="logical" name="LTRIPLET"> F  </i>
   <i type="logical" name="LFXCEPS"> F  </i>
   <i type="logical" name="LFXHEG"> F  </i>
   <i type="int" name="NATURALO">     2</i>
   <i type="logical" name="LHOLEGF"> F  </i>
   <i type="logical" name="L2ORDER"> F  </i>
   <i type="logical" name="LDMP1"> F  </i>
   <i type="logical" name="LMP2LT"> F  </i>
   <i type="logical" name="LSMP2LT"> F  </i>
   <i type="logical" name="LGWLF"> F  </i>
   <i name="ENCUTGW">     -1.60000002</i>
   <i name="ENCUTGWSOFT">     -1.60000002</i>
   <i name="ENCUTLF">     -1.00000000</i>
   <i type="logical" name="LESF_SPLINES"> F  </i>
   <i type="int" name="LMAXMP2">    -1</i>
   <i name="SCISSOR">      0.00000000</i>
   <i type="int" name="NOMEGA">     0</i>
   <i type="int" name="NOMEGAR">     0</i>
   <i type="int" name="NBANDSGW">    -1</i>
   <i type="int" name="NBANDSO">    -1</i>
   <i type="int" name="NBANDSV">    -1</i>
   <i type="int" name="NELMGW">     1</i>
   <i type="int" name="NELMHF">     1</i>
   <i type="int" name="DIM">     3</i>
   <i type="int" name="IESPILON">     4</i>
   <i type="int" name="ANTIRES">     0</i>
   <i name="OMEGAMAX">    -30.00000000</i>
   <i name="OMEGAMIN">    -30.00000000</i>
   <i name="OMEGATL">   -200.00000000</i>
   <i type="int" name="OMEGAGRID">     0</i>
   <i name="CSHIFT">     -0.10000000</i>
   <i type="logical" name="LSELFENERGY"> F  </i>
   <i type="logical" name="LSPECTRAL"> F  </i>
   <i type="logical" name="LSPECTRALGW"> F  </i>
   <i type="logical" name="LSINGLES"> F  </i>
   <i type="logical" name="LFERMIGW"> F  </i>
   <i type="logical" name="ODDONLYGW"> F  </i>
   <i type="logical" name="EVENONLYGW"> F  </i>
   <i type="int" name="NKREDLFX">     1</i>
   <i type="int" name="NKREDLFY">     1</i>
   <i type="int" name="NKREDLFZ">     1</i>
   <i type="int" name="MAXMEM">  2800</i>
   <i type="int" name="TELESCOPE">     0</i>
   <i type="int" name="NTAUPAR">    -1</i>
   <i type="int" name="NOMEGAPAR">    -1</i>
   <i name="DAMP_NEWTON">      0.80000001</i>
   <i name="LAMBDA">      1.00000000</i>
  </separator>
  <separator name="External order field" >
   <i name="OFIELD_KAPPA">      0.00000000</i>
   <v name="OFIELD_K">      0.00000000      0.00000000      0.00000000</v>
   <i name="OFIELD_Q6_NEAR">      0.00000000</i>
   <i name="OFIELD_Q6_FAR">      0.00000000</i>
   <i name="OFIELD_A">      0.00000000</i>
  </separator>
  <separator name="optional k-points parameters" >
   <i type="int" name="KPOINTS_OPT_MODE">     1</i>
   <i type="logical" name="LKPOINTS_OPT"> F  </i>
  </separator>
 </parameters>
 <atominfo>
  <atoms>      52 </atoms>
  <types>       4 </types>
  <array name="atoms" >
   <dimension dim="1">ion</dimension>
   <field type="string">element</field>
   <field type="int">atomtype</field>
   <set>
    <rc><c>Li</c><c>   1</c></rc>
    <rc><c>Li</c><c>   1</c></rc>
    <rc><c>Li</c><c>   1</c></rc>
    <rc><c>Li</c><c>   1</c></rc>
    <rc><c>Li</c><c>   1</c></rc>
    <rc><c>Li</c><c>   1</c></rc>
    <rc><c>Li</c><c>   1</c></rc>
    <rc><c>Li</c><c>   1</c></rc>
    <rc><c>Li</c><c>   1</c></rc>
    <rc><c>Li</c><c>   1</c></rc>
    <rc><c>Li</c><c>   1</c></rc>
    <rc><c>Li</c><c>   1</c></rc>
    <rc><c>Li</c><c>   1</c></rc>
    <rc><c>Li</c><c>   1</c></rc>
    <rc><c>Li</c><c>   1</c></rc>
    <rc><c>Li</c><c>   1</c></rc>
    <rc><c>Li</c><c>   1</c></rc>
    <rc><c>Li</c><c>   1</c></rc>
    <rc><c>Li</c><c>   1</c></rc>
    <rc><c>Li</c><c>   1</c></rc>
    <rc><c>Li</c><c>   1</c></rc>
    <rc><c>Li</c><c>   1</c></rc>
    <rc><c>Li</c><c>   1</c></rc>
    <rc><c>Li</c><c>   1</c></rc>
    <rc><c>P </c><c>   2</c></rc>
    <rc><c>P </c><c>   2</c></rc>
    <rc><c>P </c><c>   2</c></rc>
    <rc><c>P </c><c>   2</c></rc>
    <rc><c>S </c><c>   3</c></rc>
    <rc><c>S </c><c>   3</c></rc>
    <rc><c>S </c><c>   3</c></rc>
    <rc><c>S </c><c>   3</c></rc>
    <rc><c>S </c><c>   3</c></rc>
    <rc><c>S </c><c>   3</c></rc>
    <rc><c>S </c><c>   3</c></rc>
    <rc><c>S </c><c>   3</c></rc>
    <rc><c>S </c><c>   3</c></rc>
    <rc><c>S </c><c>   3</c></rc>
    <rc><c>S </c><c>   3</c></rc>
    <rc><c>S </c><c>   3</c></rc>
    <rc><c>S </c><c>   3</c></rc>
    <rc><c>S </c><c>   3</c></rc>
    <rc><c>S </c><c>   3</c></rc>
    <rc><c>S </c><c>   3</c></rc>
    <rc><c>S </c><c>   3</c></rc>
    <rc><c>S </c><c>   3</c></rc>
    <rc><c>S </c><c>   3</c></rc>
    <rc><c>S </c><c>   3</c></rc>
    <rc><c>Cl</c><c>   4</c></rc>
    <rc><c>Cl</c><c>   4</c></rc>
    <rc><c>Cl</c><c>   4</c></rc>
    <rc><c>Cl</c><c>   4</c></rc>
   </set>
  </array>
  <array name="atomtypes" >
   <dimension dim="1">type</dimension>
   <field type="int">atomspertype</field>
   <field type="string">element</field>
   <field>mass</field>
   <field>valence</field>
   <field type="string">pseudopotential</field>
   <set>
    <rc><c>  24</c><c>Li</c><c>      7.01000000</c><c>      3.00000000</c><c>  PAW_PBE Li_sv_GW 25Mar2010            </c></rc>
    <rc><c>   4</c><c>P </c><c>     30.97400000</c><c>      5.00000000</c><c>  PAW_PBE P_GW 19Mar2012                </c></rc>
    <rc><c>  20</c><c>S </c><c>     32.06600000</c><c>      6.00000000</c><c>  PAW_PBE S_GW 19Mar2012                </c></rc>
    <rc><c>   4</c><c>Cl</c><c>     35.45300000</c><c>      7.00000000</c><c>  PAW_PBE Cl_GW 19Mar2012               </c></rc>
   </set>
  </array>
 </atominfo>
 <structure name="initialpos" >
  <crystal>
   <varray name="basis" >
    <v>       9.69554025       0.00000000       0.00000000 </v>
    <v>       0.00000000       9.69554025       0.00000000 </v>
    <v>       0.00000000       0.00000000       9.69554025 </v>
   </varray>
   <i name="volume">    911.41472404 </i>
   <varray name="rec_basis" >
    <v>       0.10314020       0.00000000       0.00000000 </v>
    <v>       0.00000000       0.10314020       0.00000000 </v>
    <v>       0.00000000       0.00000000       0.10314020 </v>
   </varray>
  </crystal>
  <varray name="positions" >
   <v>       0.97961121       0.30331023       0.32202529 </v>
   <v>       0.97961121       0.82202529       0.80331023 </v>
   <v>       0.01136386       0.23828927       0.73828927 </v>
   <v>       0.28619180       0.57678489       0.07678489 </v>
   <v>       0.18535289       0.18601076       0.97892238 </v>
   <v>       0.06854564       0.85029531       0.14382288 </v>
   <v>       0.82775730       0.16941590       0.02274405 </v>
   <v>       0.73954763       0.70207499       0.97143177 </v>
   <v>       0.33291306       0.97638423       0.28745059 </v>
   <v>       0.26912098       0.02023447       0.73820696 </v>
   <v>       0.67357705       0.96530261       0.70340872 </v>
   <v>       0.72286909       0.00952229       0.28484226 </v>
   <v>       0.33291306       0.78745059       0.47638423 </v>
   <v>       0.26912098       0.23820696       0.52023447 </v>
   <v>       0.72286909       0.78484226       0.50952229 </v>
   <v>       0.67357705       0.20340872       0.46530261 </v>
   <v>       0.18535289       0.47892238       0.68601076 </v>
   <v>       0.06854564       0.64382288       0.35029531 </v>
   <v>       0.73954763       0.47143177       0.20207499 </v>
   <v>       0.82775730       0.52274405       0.66941590 </v>
   <v>       0.47099387       0.32090997       0.82090997 </v>
   <v>       0.49314732       0.70308864       0.20308864 </v>
   <v>       0.53477555       0.29415980       0.17136309 </v>
   <v>       0.53477555       0.67136309       0.79415980 </v>
   <v>       0.51001239       0.48598871       0.49460197 </v>
   <v>       0.51001239       0.99460197       0.98598871 </v>
   <v>       0.01261578       0.49769977       0.99769977 </v>
   <v>       0.01170019       0.98573162       0.48573162 </v>
   <v>       0.13358762       0.86503406       0.60998435 </v>
   <v>       0.13358762       0.10998435       0.36503406 </v>
   <v>       0.90472123       0.85621857       0.35621857 </v>
   <v>       0.87243758       0.09841775       0.59841775 </v>
   <v>       0.90748082       0.62936036       0.12936036 </v>
   <v>       0.87445074       0.38434717       0.88434717 </v>
   <v>       0.13342235       0.62434360       0.87951795 </v>
   <v>       0.13342235       0.37951795       0.12434360 </v>
   <v>       0.62796524       0.12995979       0.87319305 </v>
   <v>       0.63780023       0.87626130       0.10764448 </v>
   <v>       0.38447812       0.11772790       0.10487590 </v>
   <v>       0.39597935       0.86465806       0.86807461 </v>
   <v>       0.63780023       0.60764448       0.37626130 </v>
   <v>       0.62796524       0.37319305       0.62995979 </v>
   <v>       0.38447812       0.60487590       0.61772790 </v>
   <v>       0.39597935       0.36807461       0.36465806 </v>
   <v>       0.75887662       0.74309117       0.74055083 </v>
   <v>       0.75887662       0.24055083       0.24309117 </v>
   <v>       0.26547994       0.74958239       0.24958239 </v>
   <v>       0.24770426       0.25374449       0.75374449 </v>
   <v>       0.01164160       0.01032033       0.96801667 </v>
   <v>       0.01164160       0.46801667       0.51032033 </v>
   <v>       0.53466093       0.97636727       0.47636727 </v>
   <v>       0.52494098       0.51355094       0.01355094 </v>
  </varray>
 </structure>
 <calculation>
  <scstep>
   <time name="dav">    5.79    5.95</time>
   <time name="total">    6.27    6.45</time>
   <energy>
    <i name="alphaZ">    297.84191161 </i>
    <i name="ewald">  -8774.75144001 </i>
    <i name="hartreedc">  -2130.79647596 </i>
    <i name="XCdc">    533.73380835 </i>
    <i name="pawpsdc">   8141.38806575 </i>
    <i name="pawaedc">  -8271.61346273 </i>
    <i name="eentropy">     -0.00726772 </i>
    <i name="bandstr">   -911.50850445 </i>
    <i name="atom">  12703.13999606 </i>
    <i name="e_fr_energy">   1587.42663089 </i>
    <i name="e_wo_entrp">   1587.43389862 </i>
    <i name="e_0_energy">   1587.43026476 </i>
   </energy>
  </scstep>
  <scstep>
   <time name="dav">    2.00    2.02</time>
   <time name="total">    2.00    2.02</time>
   <energy>
    <i name="e_fr_energy">    -54.11257347 </i>
    <i name="e_wo_entrp">    -54.11257347 </i>
    <i name="e_0_energy">    -54.11257347 </i>
   </energy>
  </scstep>
  <scstep>
   <time name="dav">    1.95    1.97</time>
   <time name="total">    1.95    1.97</time>
   <energy>
    <i name="e_fr_energy">   -228.27850773 </i>
    <i name="e_wo_entrp">   -228.27850773 </i>
    <i name="e_0_energy">   -228.27850773 </i>
   </energy>
  </scstep>
  <scstep>
   <time name="dav">    2.30    2.32</time>
   <time name="total">    2.30    2.32</time>
   <energy>
    <i name="e_fr_energy">   -241.40334023 </i>
    <i name="e_wo_entrp">   -241.40334023 </i>
    <i name="e_0_energy">   -241.40334023 </i>
   </energy>
  </scstep>
  <scstep>
   <time name="dav">    2.29    2.31</time>
   <time name="total">    2.29    2.31</time>
   <energy>
    <i name="e_fr_energy">   -241.66459285 </i>
    <i name="e_wo_entrp">   -241.66459285 </i>
    <i name="e_0_energy">   -241.66459285 </i>
   </energy>
  </scstep>
  <scstep>
   <time name="dav">    2.32    2.35</time>
   <time name="total">    2.33    2.35</time>
   <energy>
    <i name="e_fr_energy">   -241.67559319 </i>
    <i name="e_wo_entrp">   -241.67559319 </i>
    <i name="e_0_energy">   -241.67559319 </i>
   </energy>
  </scstep>
  <scstep>
   <time name="dav">    2.29    2.31</time>
   <time name="total">    2.29    2.31</time>
   <energy>
    <i name="e_fr_energy">   -241.67599386 </i>
    <i name="e_wo_entrp">   -241.67599386 </i>
    <i name="e_0_energy">   -241.67599386 </i>
   </energy>
  </scstep>
  <scstep>
   <time name="dav">    2.26    2.27</time>
   <time name="total">    2.26    2.27</time>
   <energy>
    <i name="e_fr_energy">   -241.67601801 </i>
    <i name="e_wo_entrp">   -241.67601801 </i>
    <i name="e_0_energy">   -241.67601801 </i>
   </energy>
  </scstep>
  <scstep>
   <time name="dav">    2.23    2.25</time>
   <time name="total">    2.23    2.25</time>
   <energy>
    <i name="e_fr_energy">   -241.67601961 </i>
    <i name="e_wo_entrp">   -241.67601961 </i>
    <i name="e_0_energy">   -241.67601961 </i>
   </energy>
  </scstep>
  <scstep>
   <time name="dav">    1.50    1.52</time>
   <time name="total">    1.72    1.84</time>
   <energy>
    <i name="e_fr_energy">   -241.67601969 </i>
    <i name="e_wo_entrp">   -241.67601969 </i>
    <i name="e_0_energy">   -241.67601969 </i>
   </energy>
  </scstep>
  <scstep>
   <time name="diag">    0.27    0.28</time>
   <time name="diis">    0.88    0.88</time>
   <time name="orth">    0.05    0.06</time>
   <time name="total">    1.91    2.15</time>
   <energy>
    <i name="e_fr_energy">   -234.61661817 </i>
    <i name="e_wo_entrp">   -234.61661817 </i>
    <i name="e_0_energy">   -234.61661817 </i>
   </energy>
  </scstep>
  <scstep>
   <time name="diag">    0.27    0.27</time>
   <time name="diis">    0.91    0.92</time>
   <time name="orth">    0.05    0.05</time>
   <time name="total">    1.81    1.87</time>
   <energy>
    <i name="e_fr_energy">   -255.79538880 </i>
    <i name="e_wo_entrp">   -255.79538880 </i>
    <i name="e_0_energy">   -255.79538880 </i>
   </energy>
  </scstep>
  <scstep>
   <time name="diag">    0.27    0.27</time>
   <time name="diis">    0.90    0.91</time>
   <time name="orth">    0.05    0.05</time>
   <time name="total">    1.81    1.84</time>
   <energy>
    <i name="e_fr_energy">   -258.31316674 </i>
    <i name="e_wo_entrp">   -258.31316674 </i>
    <i name="e_0_energy">   -258.31316674 </i>
   </energy>
  </scstep>
  <scstep>
   <time name="diag">    0.27    0.27</time>
   <time name="diis">    1.14    1.15</time>
   <time name="orth">    0.05    0.05</time>
   <time name="total">    2.04    2.07</time>
   <energy>
    <i name="e_fr_energy">   -258.50127299 </i>
    <i name="e_wo_entrp">   -258.50127299 </i>
    <i name="e_0_energy">   -258.50127299 </i>
   </energy>
  </scstep>
  <scstep>
   <time name="diag">    0.27    0.27</time>
   <time name="diis">    0.96    0.96</time>
   <time name="orth">    0.05    0.05</time>
   <time name="total">    1.85    1.88</time>
   <energy>
    <i name="e_fr_energy">   -258.46969649 </i>
    <i name="e_wo_entrp">   -258.46969649 </i>
    <i name="e_0_energy">   -258.46969649 </i>
   </energy>
  </scstep>
  <scstep>
   <time name="diag">    0.27    0.27</time>
   <time name="diis">    0.97    0.98</time>
   <time name="orth">    0.05    0.05</time>
   <time name="total">    1.86    1.90</time>
   <energy>
    <i name="e_fr_energy">   -258.49124464 </i>
    <i name="e_wo_entrp">   -258.49124464 </i>
    <i name="e_0_energy">   -258.49124464 </i>
   </energy>
  </scstep>
  <scstep>
   <time name="diag">    0.27    0.27</time>
   <time name="diis">    1.10    1.11</time>
   <time name="orth">    0.05    0.05</time>
   <time name="total">    1.98    2.01</time>
   <energy>
    <i name="e_fr_energy">   -258.49709069 </i>
    <i name="e_wo_entrp">   -258.49709069 </i>
    <i name="e_0_energy">   -258.49709069 </i>
   </energy>
  </scstep>
  <scstep>
   <time name="diag">    0.27    0.27</time>
   <time name="diis">    1.05    1.05</time>
   <time name="orth">    0.05    0.05</time>
   <time name="total">    1.93    1.95</time>
   <energy>
    <i name="e_fr_energy">   -258.49830973 </i>
    <i name="e_wo_entrp">   -258.49830973 </i>
    <i name="e_0_energy">   -258.49830973 </i>
   </energy>
  </scstep>
  <scstep>
   <time name="diag">    0.27    0.27</time>
   <time name="diis">    1.24    1.25</time>
   <time name="orth">    0.05    0.05</time>
   <time name="total">    2.12    2.14</time>
   <energy>
    <i name="e_fr_energy">   -258.49877767 </i>
    <i name="e_wo_entrp">   -258.49877767 </i>
    <i name="e_0_energy">   -258.49877767 </i>
   </energy>
  </scstep>
  <scstep>
   <time name="diag">    0.27    0.27</time>
   <time name="diis">    1.19    1.20</time>
   <time name="orth">    0.05    0.05</time>
   <time name="total">    2.08    2.09</time>
   <energy>
    <i name="e_fr_energy">   -258.49885672 </i>
    <i name="e_wo_entrp">   -258.49885672 </i>
    <i name="e_0_energy">   -258.49885672 </i>
   </energy>
  </scstep>
  <scstep>
   <time name="diag">    0.27    0.27</time>
   <time name="diis">    1.05    1.06</time>
   <time name="orth">    0.05    0.05</time>
   <time name="total">    1.93    1.95</time>
   <energy>
    <i name="e_fr_energy">   -258.49887424 </i>
    <i name="e_wo_entrp">   -258.49887424 </i>
    <i name="e_0_energy">   -258.49887424 </i>
   </energy>
  </scstep>
  <scstep>
   <time name="diag">    0.27    0.27</time>
   <time name="diis">    1.21    1.22</time>
   <time name="orth">    0.05    0.05</time>
   <time name="total">    2.09    2.11</time>
   <energy>
    <i name="e_fr_energy">   -258.49888154 </i>
    <i name="e_wo_entrp">   -258.49888154 </i>
    <i name="e_0_energy">   -258.49888154 </i>
   </energy>
  </scstep>
  <scstep>
   <time name="diag">    0.27    0.27</time>
   <time name="diis">    0.97    0.98</time>
   <time name="orth">    0.05    0.05</time>
   <time name="total">    1.85    1.86</time>
   <energy>
    <i name="e_fr_energy">   -258.49888126 </i>
    <i name="e_wo_entrp">   -258.49888126 </i>
    <i name="e_0_energy">   -258.49888126 </i>
   </energy>
  </scstep>
  <scstep>
   <time name="diag">    0.27    0.27</time>
   <time name="diis">    0.74    0.75</time>
   <time name="orth">    0.05    0.05</time>
   <time name="total">    1.51    1.52</time>
   <energy>
    <i name="alphaZ">    297.84191161 </i>
    <i name="ewald">  -8774.75144001 </i>
    <i name="hartreedc">  -2232.51825697 </i>
    <i name="XCdc">    537.62227163 </i>
    <i name="pawpsdc">   9822.69070767 </i>
    <i name="pawaedc">  -9966.74574869 </i>
    <i name="eentropy">     -0.00000000 </i>
    <i name="bandstr">  -2645.77832165 </i>
    <i name="atom">  12703.13999606 </i>
    <i name="e_fr_energy">   -258.49888033 </i>
    <i name="e_wo_entrp">   -258.49888033 </i>
    <i name="e_0_energy">   -258.49888033 </i>
   </energy>
  </scstep>
  <structure>
   <crystal>
    <varray name="basis" >
     <v>       9.69554025       0.00000000       0.00000000 </v>
     <v>       0.00000000       9.69554025       0.00000000 </v>
     <v>       0.00000000       0.00000000       9.69554025 </v>
    </varray>
    <i name="volume">    911.41472404 </i>
    <varray name="rec_basis" >
     <v>       0.10314020       0.00000000       0.00000000 </v>
     <v>       0.00000000       0.10314020       0.00000000 </v>
     <v>       0.00000000       0.00000000       0.10314020 </v>
    </varray>
   </crystal>
   <varray name="positions" >
    <v>       0.97961121       0.30331023       0.32202529 </v>
    <v>       0.97961121       0.82202529       0.80331023 </v>
    <v>       0.01136386       0.23828927       0.73828927 </v>
    <v>       0.28619180       0.57678489       0.07678489 </v>
    <v>       0.18535289       0.18601076       0.97892238 </v>
    <v>       0.06854564       0.85029531       0.14382288 </v>
    <v>       0.82775730       0.16941590       0.02274405 </v>
    <v>       0.73954763       0.70207499       0.97143177 </v>
    <v>       0.33291306       0.97638423       0.28745059 </v>
    <v>       0.26912098       0.02023447       0.73820696 </v>
    <v>       0.67357705       0.96530261       0.70340872 </v>
    <v>       0.72286909       0.00952229       0.28484226 </v>
    <v>       0.33291306       0.78745059       0.47638423 </v>
    <v>       0.26912098       0.23820696       0.52023447 </v>
    <v>       0.72286909       0.78484226       0.50952229 </v>
    <v>       0.67357705       0.20340872       0.46530261 </v>
    <v>       0.18535289       0.47892238       0.68601076 </v>
    <v>       0.06854564       0.64382288       0.35029531 </v>
    <v>       0.73954763       0.47143177       0.20207499 </v>
    <v>       0.82775730       0.52274405       0.66941590 </v>
    <v>       0.47099387       0.32090997       0.82090997 </v>
    <v>       0.49314732       0.70308864       0.20308864 </v>
    <v>       0.53477555       0.29415980       0.17136309 </v>
    <v>       0.53477555       0.67136309       0.79415980 </v>
    <v>       0.51001239       0.48598871       0.49460197 </v>
    <v>       0.51001239       0.99460197       0.98598871 </v>
    <v>       0.01261578       0.49769977       0.99769977 </v>
    <v>       0.01170019       0.98573162       0.48573162 </v>
    <v>       0.13358762       0.86503406       0.60998435 </v>
    <v>       0.13358762       0.10998435       0.36503406 </v>
    <v>       0.90472123       0.85621857       0.35621857 </v>
    <v>       0.87243758       0.09841775       0.59841775 </v>
    <v>       0.90748082       0.62936036       0.12936036 </v>
    <v>       0.87445074       0.38434717       0.88434717 </v>
    <v>       0.13342235       0.62434360       0.87951795 </v>
    <v>       0.13342235       0.37951795       0.12434360 </v>
    <v>       0.62796524       0.12995979       0.87319305 </v>
    <v>       0.63780023       0.87626130       0.10764448 </v>
    <v>       0.38447812       0.11772790       0.10487590 </v>
    <v>       0.39597935       0.86465806       0.86807461 </v>
    <v>       0.63780023       0.60764448       0.37626130 </v>
    <v>       0.62796524       0.37319305       0.62995979 </v>
    <v>       0.38447812       0.60487590       0.61772790 </v>
    <v>       0.39597935       0.36807461       0.36465806 </v>
    <v>       0.75887662       0.74309117       0.74055083 </v>
    <v>       0.75887662       0.24055083       0.24309117 </v>
    <v>       0.26547994       0.74958239       0.24958239 </v>
    <v>       0.24770426       0.25374449       0.75374449 </v>
    <v>       0.01164160       0.01032033       0.96801667 </v>
    <v>       0.01164160       0.46801667       0.51032033 </v>
    <v>       0.53466093       0.97636727       0.47636727 </v>
    <v>       0.52494098       0.51355094       0.01355094 </v>
   </varray>
  </structure>
  <varray name="forces" >
   <v>       0.00027679       0.00018680      -0.00030825 </v>
   <v>       0.00027679      -0.00030825       0.00018680 </v>
   <v>       0.00005346      -0.00033697      -0.00033697 </v>
   <v>      -0.00011691       0.00002033       0.00002033 </v>
   <v>       0.00014235      -0.00086755      -0.00059831 </v>
   <v>       0.00036411       0.00023734       0.00019568 </v>
   <v>      -0.00035324      -0.00011602       0.00002175 </v>
   <v>       0.00036263       0.00032267       0.00032844 </v>
   <v>       0.00007259       0.00008689       0.00030031 </v>
   <v>       0.00195883      -0.00039704      -0.00162434 </v>
   <v>       0.00003489       0.00015964       0.00051171 </v>
   <v>      -0.00008433       0.00040281       0.00024369 </v>
   <v>       0.00007259       0.00030031       0.00008689 </v>
   <v>       0.00195883      -0.00162434      -0.00039704 </v>
   <v>      -0.00008433       0.00024369       0.00040281 </v>
   <v>       0.00003489       0.00051171       0.00015964 </v>
   <v>       0.00014235      -0.00059831      -0.00086755 </v>
   <v>       0.00036411       0.00019568       0.00023734 </v>
   <v>       0.00036263       0.00032844       0.00032267 </v>
   <v>      -0.00035324       0.00002175      -0.00011602 </v>
   <v>      -0.00052618       0.00069940       0.00069940 </v>
   <v>       0.00020283      -0.00010255      -0.00010255 </v>
   <v>      -0.00012512       0.00035840       0.00015785 </v>
   <v>      -0.00012512       0.00015785       0.00035840 </v>
   <v>       0.00040908       0.00049144       0.00041903 </v>
   <v>       0.00040908       0.00041903       0.00049144 </v>
   <v>      -0.00082055      -0.00009342      -0.00009342 </v>
   <v>      -0.00034153       0.00007383       0.00007383 </v>
   <v>      -0.00025939      -0.00020571      -0.00005619 </v>
   <v>      -0.00025939      -0.00005619      -0.00020571 </v>
   <v>      -0.00017522      -0.00002825      -0.00002825 </v>
   <v>      -0.00030540      -0.00025341      -0.00025341 </v>
   <v>       0.00069319      -0.00025810      -0.00025810 </v>
   <v>       0.00007123       0.00007573       0.00007573 </v>
   <v>       0.00025427      -0.00035103      -0.00067706 </v>
   <v>       0.00025427      -0.00067706      -0.00035103 </v>
   <v>      -0.00056967       0.00016273       0.00017794 </v>
   <v>       0.00005794       0.00031822       0.00008974 </v>
   <v>      -0.00005186       0.00008910       0.00020260 </v>
   <v>      -0.00062026      -0.00055157       0.00075836 </v>
   <v>       0.00005794       0.00008974       0.00031822 </v>
   <v>      -0.00056967       0.00017794       0.00016273 </v>
   <v>      -0.00005186       0.00020260       0.00008910 </v>
   <v>      -0.00062026       0.00075836      -0.00055157 </v>
   <v>       0.00005854       0.00001673       0.00012625 </v>
   <v>       0.00005854       0.00012625       0.00001673 </v>
   <v>       0.00002144      -0.00000236      -0.00000236 </v>
   <v>       0.00017737      -0.00036691      -0.00036691 </v>
   <v>      -0.00082732      -0.00064093       0.00026405 </v>
   <v>      -0.00082732       0.00026405      -0.00064093 </v>
   <v>      -0.00132034       0.00071832       0.00071832 </v>
   <v>       0.00018496      -0.00038178      -0.00038178 </v>
  </varray>
  <varray name="stress" >
   <v>      -2.43832923       1.08405615       1.08405615 </v>
   <v>       1.08405536       1.22516022       2.51151051 </v>
   <v>       1.08405536       2.51151051       1.22516022 </v>
  </varray>
  <energy>
   <i name="e_fr_energy">   -271.92374989 </i>
   <i name="e_wo_entrp">   -271.92374989 </i>
   <i name="e_0_energy">   -271.92374989 </i>
  </energy>
  <time name="totalsc">   55.12   56.23</time>
 </calculation>
 <calculation>
  <scstep>
   <time name="dav">    1.67    1.68</time>
   <time name="total">    2.24    2.29</time>
   <energy>
    <i name="alphaZ">    297.84191161 </i>
    <i name="ewald">  -8774.75604816 </i>
    <i name="hartreedc">  -2232.51809204 </i>
    <i name="XCdc">    537.62226213 </i>
    <i name="pawpsdc">   9822.67834545 </i>
    <i name="pawaedc">  -9966.73327287 </i>
    <i name="eentropy">     -0.00000000 </i>
    <i name="bandstr">  -2645.77398197 </i>
    <i name="atom">  12703.13999606 </i>
    <i name="e_fr_energy">   -258.49887979 </i>
    <i name="e_wo_entrp">   -258.49887979 </i>
    <i name="e_0_energy">   -258.49887979 </i>
   </energy>
  </scstep>
  <scstep>
   <time name="diag">    0.28    0.28</time>
   <time name="diis">    0.65    0.73</time>
   <time name="orth">    0.05    0.05</time>
   <time name="total">    1.42    1.51</time>
   <energy>
    <i name="alphaZ">    297.84191161 </i>
    <i name="ewald">  -8774.75604816 </i>
    <i name="hartreedc">  -2232.52050445 </i>
    <i name="XCdc">    537.62216165 </i>
    <i name="pawpsdc">   9822.66017995 </i>
    <i name="pawaedc">  -9966.71470118 </i>
    <i name="eentropy">     -0.00000000 </i>
    <i name="bandstr">  -2645.77187552 </i>
    <i name="atom">  12703.13999606 </i>
    <i name="e_fr_energy">   -258.49888003 </i>
    <i name="e_wo_entrp">   -258.49888003 </i>
    <i name="e_0_energy">   -258.49888003 </i>
   </energy>
  </scstep>
  <structure>
   <crystal>
    <varray name="basis" >
     <v>       9.69554025       0.00000000       0.00000000 </v>
     <v>       0.00000000       9.69554025       0.00000000 </v>
     <v>       0.00000000       0.00000000       9.69554025 </v>
    </varray>
    <i name="volume">    911.41472404 </i>
    <varray name="rec_basis" >
     <v>       0.10314020       0.00000000       0.00000000 </v>
     <v>       0.00000000       0.10314020       0.00000000 </v>
     <v>       0.00000000       0.00000000       0.10314020 </v>
    </varray>
   </crystal>
   <varray name="positions" >
    <v>       0.97961176       0.30331060       0.32202468 </v>
    <v>       0.97961176       0.82202468       0.80331060 </v>
    <v>       0.01136397       0.23828860       0.73828860 </v>
    <v>       0.28619157       0.57678493       0.07678493 </v>
    <v>       0.18535317       0.18600903       0.97892118 </v>
    <v>       0.06854637       0.85029578       0.14382326 </v>
    <v>       0.82775660       0.16941567       0.02274409 </v>
    <v>       0.73954835       0.70207563       0.97143243 </v>
    <v>       0.33291321       0.97638440       0.28745119 </v>
    <v>       0.26912487       0.02023368       0.73820372 </v>
    <v>       0.67357712       0.96530293       0.70340974 </v>
    <v>       0.72286892       0.00952310       0.28484275 </v>
    <v>       0.33291321       0.78745119       0.47638440 </v>
    <v>       0.26912487       0.23820372       0.52023368 </v>
    <v>       0.72286892       0.78484275       0.50952310 </v>
    <v>       0.67357712       0.20340974       0.46530293 </v>
    <v>       0.18535317       0.47892118       0.68600903 </v>
    <v>       0.06854637       0.64382326       0.35029578 </v>
    <v>       0.73954835       0.47143243       0.20207563 </v>
    <v>       0.82775660       0.52274409       0.66941567 </v>
    <v>       0.47099282       0.32091136       0.82091136 </v>
    <v>       0.49314773       0.70308844       0.20308844 </v>
    <v>       0.53477530       0.29416052       0.17136340 </v>
    <v>       0.53477530       0.67136340       0.79416052 </v>
    <v>       0.51001321       0.48598969       0.49460280 </v>
    <v>       0.51001321       0.99460280       0.98598969 </v>
    <v>       0.01261414       0.49769958       0.99769958 </v>
    <v>       0.01169951       0.98573177       0.48573177 </v>
    <v>       0.13358710       0.86503365       0.60998423 </v>
    <v>       0.13358710       0.10998423       0.36503365 </v>
    <v>       0.90472088       0.85621851       0.35621851 </v>
    <v>       0.87243698       0.09841724       0.59841724 </v>
    <v>       0.90748220       0.62935985       0.12935985 </v>
    <v>       0.87445088       0.38434732       0.88434732 </v>
    <v>       0.13342285       0.62434290       0.87951660 </v>
    <v>       0.13342285       0.37951660       0.12434290 </v>
    <v>       0.62796411       0.12996011       0.87319340 </v>
    <v>       0.63780034       0.87626194       0.10764466 </v>
    <v>       0.38447802       0.11772807       0.10487630 </v>
    <v>       0.39597811       0.86465697       0.86807612 </v>
    <v>       0.63780034       0.60764466       0.37626194 </v>
    <v>       0.62796411       0.37319340       0.62996011 </v>
    <v>       0.38447802       0.60487630       0.61772807 </v>
    <v>       0.39597811       0.36807612       0.36465697 </v>
    <v>       0.75887673       0.74309121       0.74055108 </v>
    <v>       0.75887673       0.24055108       0.24309121 </v>
    <v>       0.26547999       0.74958238       0.24958238 </v>
    <v>       0.24770462       0.25374376       0.75374376 </v>
    <v>       0.01163995       0.01031905       0.96801720 </v>
    <v>       0.01163995       0.46801720       0.51031905 </v>
    <v>       0.53465830       0.97636870       0.47636870 </v>
    <v>       0.52494135       0.51355018       0.01355018 </v>
   </varray>
  </structure>
  <varray name="forces" >
   <v>       0.00014647       0.00012345      -0.00019305 </v>
   <v>       0.00014647      -0.00019305       0.00012345 </v>
   <v>       0.00003992      -0.00019468      -0.00019468 </v>
   <v>      -0.00016184      -0.00002547      -0.00002547 </v>
   <v>       0.00001768      -0.00055235      -0.00035199 </v>
   <v>       0.00018851       0.00015086       0.00007071 </v>
   <v>      -0.00020522      -0.00009447      -0.00000104 </v>
   <v>       0.00016833       0.00018106       0.00015461 </v>
   <v>       0.00003218       0.00003424       0.00017512 </v>
   <v>       0.00118963      -0.00023633      -0.00100373 </v>
   <v>      -0.00003786       0.00004231       0.00030902 </v>
   <v>      -0.00011221       0.00022595       0.00016377 </v>
   <v>       0.00003218       0.00017512       0.00003424 </v>
   <v>       0.00118963      -0.00100373      -0.00023633 </v>
   <v>      -0.00011221       0.00016377       0.00022595 </v>
   <v>      -0.00003786       0.00030902       0.00004231 </v>
   <v>       0.00001768      -0.00035199      -0.00055235 </v>
   <v>       0.00018851       0.00007071       0.00015086 </v>
   <v>       0.00016833       0.00015461       0.00018106 </v>
   <v>      -0.00020522      -0.00000104      -0.00009447 </v>
   <v>      -0.00040281       0.00042061       0.00042061 </v>
   <v>       0.00004882      -0.00006392      -0.00006392 </v>
   <v>      -0.00011443       0.00019807       0.00010875 </v>
   <v>      -0.00011443       0.00010875       0.00019807 </v>
   <v>       0.00001048       0.00019234       0.00011823 </v>
   <v>       0.00001048       0.00011823       0.00019234 </v>
   <v>      -0.00008858      -0.00019505      -0.00019505 </v>
   <v>      -0.00017016       0.00001027       0.00001027 </v>
   <v>      -0.00006919       0.00005941       0.00000495 </v>
   <v>      -0.00006919       0.00000495       0.00005941 </v>
   <v>      -0.00026896       0.00000126       0.00000126 </v>
   <v>      -0.00025517      -0.00001865      -0.00001865 </v>
   <v>       0.00014250      -0.00005933      -0.00005933 </v>
   <v>      -0.00003697      -0.00019860      -0.00019860 </v>
   <v>       0.00003624      -0.00042681      -0.00028059 </v>
   <v>       0.00003624      -0.00028059      -0.00042681 </v>
   <v>      -0.00027762       0.00001041      -0.00004601 </v>
   <v>       0.00002338       0.00002580       0.00016956 </v>
   <v>      -0.00004282       0.00008558       0.00021420 </v>
   <v>      -0.00016902      -0.00008898       0.00044066 </v>
   <v>       0.00002338       0.00016956       0.00002580 </v>
   <v>      -0.00027762      -0.00004601       0.00001041 </v>
   <v>      -0.00004282       0.00021420       0.00008558 </v>
   <v>      -0.00016902       0.00044066      -0.00008898 </v>
   <v>      -0.00020069       0.00007166       0.00009940 </v>
   <v>      -0.00020069       0.00009940       0.00007166 </v>
   <v>       0.00016689       0.00004957       0.00004957 </v>
   <v>      -0.00011072      -0.00037510      -0.00037510 </v>
   <v>      -0.00009773       0.00015150      -0.00007952 </v>
   <v>      -0.00009773      -0.00007952       0.00015150 </v>
   <v>       0.00016455      -0.00000141      -0.00000141 </v>
   <v>      -0.00003971       0.00042372       0.00042372 </v>
  </varray>
  <varray name="stress" >
   <v>      -2.44552928       1.08326227       1.08326227 </v>
   <v>       1.08326158       1.21796360       2.51131570 </v>
   <v>       1.08326158       2.51131570       1.21796360 </v>
  </varray>
  <energy>
   <i name="e_fr_energy">   -271.92375097 </i>
   <i name="e_wo_entrp">   -271.92375097 </i>
   <i name="e_0_energy">   -271.92375097 </i>
  </energy>
  <time name="totalsc">    6.39    6.60</time>
 </calculation>
 <calculation>
  <scstep>
   <time name="dav">    1.62    1.63</time>
   <time name="total">    2.19    2.23</time>
   <energy>
    <i name="alphaZ">    297.84191161 </i>
    <i name="ewald">  -8774.75957605 </i>
    <i name="hartreedc">  -2232.51847092 </i>
    <i name="XCdc">    537.62202016 </i>
    <i name="pawpsdc">   9822.64504389 </i>
    <i name="pawaedc">  -9966.69919183 </i>
    <i name="eentropy">     -0.00000000 </i>
    <i name="bandstr">  -2645.77061228 </i>
    <i name="atom">  12703.13999606 </i>
    <i name="e_fr_energy">   -258.49887936 </i>
    <i name="e_wo_entrp">   -258.49887936 </i>
    <i name="e_0_energy">   -258.49887936 </i>
   </energy>
  </scstep>
  <scstep>
   <time name="diag">    0.27    0.28</time>
   <time name="diis">    0.61    0.62</time>
   <time name="orth">    0.05    0.05</time>
   <time name="total">    1.39    1.41</time>
   <energy>
    <i name="alphaZ">    297.84191161 </i>
    <i name="ewald">  -8774.75957605 </i>
    <i name="hartreedc">  -2232.51835398 </i>
    <i name="XCdc">    537.62191868 </i>
    <i name="pawpsdc">   9822.63263162 </i>
    <i name="pawaedc">  -9966.68659816 </i>
    <i name="eentropy">     -0.00000000 </i>
    <i name="bandstr">  -2645.77080921 </i>
    <i name="atom">  12703.13999606 </i>
    <i name="e_fr_energy">   -258.49887943 </i>
    <i name="e_wo_entrp">   -258.49887943 </i>
    <i name="e_0_energy">   -258.49887943 </i>
   </energy>
  </scstep>
  <structure>
   <crystal>
    <varray name="basis" >
     <v>       9.69554025       0.00000000       0.00000000 </v>
     <v>       0.00000000       9.69554025       0.00000000 </v>
     <v>       0.00000000       0.00000000       9.69554025 </v>
    </varray>
    <i name="volume">    911.41472404 </i>
    <varray name="rec_basis" >
     <v>       0.10314020       0.00000000       0.00000000 </v>
     <v>       0.00000000       0.10314020       0.00000000 </v>
     <v>       0.00000000       0.00000000       0.10314020 </v>
    </varray>
   </crystal>
   <varray name="positions" >
    <v>       0.97961219       0.30331089       0.32202421 </v>
    <v>       0.97961219       0.82202421       0.80331089 </v>
    <v>       0.01136405       0.23828808       0.73828808 </v>
    <v>       0.28619139       0.57678496       0.07678496 </v>
    <v>       0.18535339       0.18600771       0.97892027 </v>
    <v>       0.06854692       0.85029614       0.14382356 </v>
    <v>       0.82775606       0.16941549       0.02274413 </v>
    <v>       0.73954891       0.70207612       0.97143293 </v>
    <v>       0.33291332       0.97638454       0.28745164 </v>
    <v>       0.26912786       0.02023307       0.73820125 </v>
    <v>       0.67357717       0.96530317       0.70341052 </v>
    <v>       0.72286879       0.00952371       0.28484312 </v>
    <v>       0.33291332       0.78745164       0.47638454 </v>
    <v>       0.26912786       0.23820125       0.52023307 </v>
    <v>       0.72286879       0.78484312       0.50952371 </v>
    <v>       0.67357717       0.20341052       0.46530317 </v>
    <v>       0.18535339       0.47892027       0.68600771 </v>
    <v>       0.06854692       0.64382356       0.35029614 </v>
    <v>       0.73954891       0.47143293       0.20207612 </v>
    <v>       0.82775606       0.52274413       0.66941549 </v>
    <v>       0.47099202       0.32091242       0.82091242 </v>
    <v>       0.49314804       0.70308828       0.20308828 </v>
    <v>       0.53477511       0.29416106       0.17136364 </v>
    <v>       0.53477511       0.67136364       0.79416106 </v>
    <v>       0.51001383       0.48599043       0.49460344 </v>
    <v>       0.51001383       0.99460344       0.98599043 </v>
    <v>       0.01261289       0.49769944       0.99769944 </v>
    <v>       0.01169899       0.98573188       0.48573188 </v>
    <v>       0.13358671       0.86503333       0.60998415 </v>
    <v>       0.13358671       0.10998415       0.36503333 </v>
    <v>       0.90472061       0.85621847       0.35621847 </v>
    <v>       0.87243651       0.09841686       0.59841686 </v>
    <v>       0.90748326       0.62935946       0.12935946 </v>
    <v>       0.87445099       0.38434743       0.88434743 </v>
    <v>       0.13342324       0.62434237       0.87951557 </v>
    <v>       0.13342324       0.37951557       0.12434237 </v>
    <v>       0.62796324       0.12996036       0.87319367 </v>
    <v>       0.63780043       0.87626242       0.10764480 </v>
    <v>       0.38447794       0.11772821       0.10487661 </v>
    <v>       0.39597717       0.86465613       0.86807727 </v>
    <v>       0.63780043       0.60764480       0.37626242 </v>
    <v>       0.62796324       0.37319367       0.62996036 </v>
    <v>       0.38447794       0.60487661       0.61772821 </v>
    <v>       0.39597717       0.36807727       0.36465613 </v>
    <v>       0.75887682       0.74309123       0.74055127 </v>
    <v>       0.75887682       0.24055127       0.24309123 </v>
    <v>       0.26548002       0.74958238       0.24958238 </v>
    <v>       0.24770489       0.25374320       0.75374320 </v>
    <v>       0.01163869       0.01031808       0.96801760 </v>
    <v>       0.01163869       0.46801760       0.51031808 </v>
    <v>       0.53465629       0.97636979       0.47636979 </v>
    <v>       0.52494163       0.51354959       0.01354959 </v>
   </varray>
  </structure>
  <varray name="forces" >
   <v>       0.00016635       0.00015403      -0.00020166 </v>
   <v>       0.00016635      -0.00020166       0.00015403 </v>
   <v>       0.00003761      -0.00021293      -0.00021293 </v>
   <v>      -0.00014530      -0.00003523      -0.00003523 </v>
   <v>       0.00003250      -0.00066141      -0.00040549 </v>
   <v>       0.00021182       0.00020066       0.00009326 </v>
   <v>      -0.00022013      -0.00009902       0.00002147 </v>
   <v>       0.00018343       0.00021603       0.00016841 </v>
   <v>       0.00002617       0.00005705       0.00020087 </v>
   <v>       0.00151341      -0.00029380      -0.00124955 </v>
   <v>      -0.00005137       0.00005601       0.00034783 </v>
   <v>      -0.00010808       0.00024372       0.00016728 </v>
   <v>       0.00002617       0.00020087       0.00005705 </v>
   <v>       0.00151341      -0.00124955      -0.00029380 </v>
   <v>      -0.00010808       0.00016728       0.00024372 </v>
   <v>      -0.00005137       0.00034783       0.00005601 </v>
   <v>       0.00003250      -0.00040549      -0.00066141 </v>
   <v>       0.00021182       0.00009326       0.00020066 </v>
   <v>       0.00018343       0.00016841       0.00021603 </v>
   <v>      -0.00022013       0.00002147      -0.00009902 </v>
   <v>      -0.00047572       0.00054011       0.00054011 </v>
   <v>       0.00006150      -0.00006971      -0.00006971 </v>
   <v>      -0.00014659       0.00023646       0.00012177 </v>
   <v>      -0.00014659       0.00012177       0.00023646 </v>
   <v>      -0.00031483       0.00004560      -0.00009933 </v>
   <v>      -0.00031483      -0.00009933       0.00004560 </v>
   <v>       0.00042339      -0.00021360      -0.00021360 </v>
   <v>      -0.00004893      -0.00005654      -0.00005654 </v>
   <v>      -0.00011963       0.00009733      -0.00000932 </v>
   <v>      -0.00011963      -0.00000932       0.00009733 </v>
   <v>      -0.00026415       0.00003799       0.00003799 </v>
   <v>      -0.00029019       0.00002917       0.00002917 </v>
   <v>       0.00005332       0.00004618       0.00004618 </v>
   <v>      -0.00018272      -0.00024890      -0.00024890 </v>
   <v>      -0.00008166      -0.00050526      -0.00019408 </v>
   <v>      -0.00008166      -0.00019408      -0.00050526 </v>
   <v>      -0.00024362       0.00010313      -0.00008186 </v>
   <v>       0.00007498       0.00006183       0.00022422 </v>
   <v>      -0.00001719       0.00009638       0.00022403 </v>
   <v>      -0.00008959       0.00007195       0.00061885 </v>
   <v>       0.00007498       0.00022422       0.00006183 </v>
   <v>      -0.00024362      -0.00008186       0.00010313 </v>
   <v>      -0.00001719       0.00022403       0.00009638 </v>
   <v>      -0.00008959       0.00061885       0.00007195 </v>
   <v>      -0.00017718       0.00008586       0.00013755 </v>
   <v>      -0.00017718       0.00013755       0.00008586 </v>
   <v>       0.00014201       0.00005779       0.00005779 </v>
   <v>      -0.00002355      -0.00041029      -0.00041029 </v>
   <v>      -0.00024320       0.00004284      -0.00000077 </v>
   <v>      -0.00024320      -0.00000077       0.00004284 </v>
   <v>      -0.00004449      -0.00010434      -0.00010434 </v>
   <v>      -0.00003396       0.00034746       0.00034746 </v>
  </varray>
  <varray name="stress" >
   <v>      -2.44985307       1.08245603       1.08245603 </v>
   <v>       1.08245534       1.21390166       2.51149569 </v>
   <v>       1.08245534       2.51149569       1.21390166 </v>
  </varray>
  <energy>
   <i name="e_fr_energy">   -271.92375142 </i>
   <i name="e_wo_entrp">   -271.92375142 </i>
   <i name="e_0_energy">   -271.92375142 </i>
  </energy>
  <time name="totalsc">    6.29    6.41</time>
 </calculation>
 <calculation>
  <scstep>
   <time name="dav">    1.86    1.89</time>
   <time name="total">    2.42    2.47</time>
   <energy>
    <i name="alphaZ">    297.84191161 </i>
    <i name="ewald">  -8774.76663117 </i>
    <i name="hartreedc">  -2232.51211748 </i>
    <i name="XCdc">    537.62180262 </i>
    <i name="pawpsdc">   9822.62536389 </i>
    <i name="pawaedc">  -9966.67925470 </i>
    <i name="eentropy">     -0.00000000 </i>
    <i name="bandstr">  -2645.76994857 </i>
    <i name="atom">  12703.13999606 </i>
    <i name="e_fr_energy">   -258.49887773 </i>
    <i name="e_wo_entrp">   -258.49887773 </i>
    <i name="e_0_energy">   -258.49887773 </i>
   </energy>
  </scstep>
  <scstep>
   <time name="diag">    0.28    0.28</time>
   <time name="diis">    0.62    0.63</time>
   <time name="orth">    0.05    0.05</time>
   <time name="total">    1.40    1.41</time>
   <energy>
    <i name="alphaZ">    297.84191161 </i>
    <i name="ewald">  -8774.76663117 </i>
    <i name="hartreedc">  -2232.51176813 </i>
    <i name="XCdc">    537.62176400 </i>
    <i name="pawpsdc">   9822.61873631 </i>
    <i name="pawaedc">  -9966.67257709 </i>
    <i name="eentropy">     -0.00000000 </i>
    <i name="bandstr">  -2645.77030957 </i>
    <i name="atom">  12703.13999606 </i>
    <i name="e_fr_energy">   -258.49887798 </i>
    <i name="e_wo_entrp">   -258.49887798 </i>
    <i name="e_0_energy">   -258.49887798 </i>
   </energy>
  </scstep>
  <structure>
   <crystal>
    <varray name="basis" >
     <v>       9.69554025       0.00000000       0.00000000 </v>
     <v>       0.00000000       9.69554025       0.00000000 </v>
     <v>       0.00000000       0.00000000       9.69554025 </v>
    </varray>
    <i name="volume">    911.41472404 </i>
    <varray name="rec_basis" >
     <v>       0.10314020       0.00000000       0.00000000 </v>
     <v>       0.00000000       0.10314020       0.00000000 </v>
     <v>       0.00000000       0.00000000       0.10314020 </v>
    </varray>
   </crystal>
   <varray name="positions" >
    <v>       0.97961303       0.30331146       0.32202327 </v>
    <v>       0.97961303       0.82202327       0.80331146 </v>
    <v>       0.01136421       0.23828706       0.73828706 </v>
    <v>       0.28619103       0.57678502       0.07678502 </v>
    <v>       0.18535382       0.18600506       0.97891845 </v>
    <v>       0.06854803       0.85029686       0.14382416 </v>
    <v>       0.82775499       0.16941514       0.02274419 </v>
    <v>       0.73955001       0.70207711       0.97143393 </v>
    <v>       0.33291354       0.97638480       0.28745256 </v>
    <v>       0.26913383       0.02023186       0.73819630 </v>
    <v>       0.67357728       0.96530366       0.70341208 </v>
    <v>       0.72286853       0.00952494       0.28484386 </v>
    <v>       0.33291354       0.78745256       0.47638480 </v>
    <v>       0.26913383       0.23819630       0.52023186 </v>
    <v>       0.72286853       0.78484386       0.50952494 </v>
    <v>       0.67357728       0.20341208       0.46530366 </v>
    <v>       0.18535382       0.47891845       0.68600506 </v>
    <v>       0.06854803       0.64382416       0.35029686 </v>
    <v>       0.73955001       0.47143393       0.20207711 </v>
    <v>       0.82775499       0.52274419       0.66941514 </v>
    <v>       0.47099041       0.32091456       0.82091456 </v>
    <v>       0.49314866       0.70308797       0.20308797 </v>
    <v>       0.53477473       0.29416215       0.17136412 </v>
    <v>       0.53477473       0.67136412       0.79416215 </v>
    <v>       0.51001508       0.48599193       0.49460472 </v>
    <v>       0.51001508       0.99460472       0.98599193 </v>
    <v>       0.01261039       0.49769915       0.99769915 </v>
    <v>       0.01169795       0.98573210       0.48573210 </v>
    <v>       0.13358592       0.86503271       0.60998398 </v>
    <v>       0.13358592       0.10998398       0.36503271 </v>
    <v>       0.90472008       0.85621838       0.35621838 </v>
    <v>       0.87243558       0.09841609       0.59841609 </v>
    <v>       0.90748537       0.62935867       0.12935867 </v>
    <v>       0.87445121       0.38434766       0.88434766 </v>
    <v>       0.13342401       0.62434130       0.87951351 </v>
    <v>       0.13342401       0.37951351       0.12434130 </v>
    <v>       0.62796150       0.12996086       0.87319421 </v>
    <v>       0.63780061       0.87626339       0.10764507 </v>
    <v>       0.38447778       0.11772848       0.10487723 </v>
    <v>       0.39597528       0.86465445       0.86807959 </v>
    <v>       0.63780061       0.60764507       0.37626339 </v>
    <v>       0.62796150       0.37319421       0.62996086 </v>
    <v>       0.38447778       0.60487723       0.61772848 </v>
    <v>       0.39597528       0.36807959       0.36465445 </v>
    <v>       0.75887700       0.74309128       0.74055166 </v>
    <v>       0.75887700       0.24055166       0.24309128 </v>
    <v>       0.26548008       0.74958237       0.24958237 </v>
    <v>       0.24770543       0.25374208       0.75374208 </v>
    <v>       0.01163617       0.01031612       0.96801841 </v>
    <v>       0.01163617       0.46801841       0.51031612 </v>
    <v>       0.53465227       0.97637198       0.47637198 </v>
    <v>       0.52494220       0.51354843       0.01354843 </v>
   </varray>
  </structure>
  <varray name="forces" >
   <v>       0.00011390       0.00010214      -0.00014553 </v>
   <v>       0.00011390      -0.00014553       0.00010214 </v>
   <v>       0.00003772      -0.00012894      -0.00012894 </v>
   <v>      -0.00014271      -0.00007139      -0.00007139 </v>
   <v>      -0.00004235      -0.00038112      -0.00019451 </v>
   <v>       0.00012760       0.00014757       0.00003081 </v>
   <v>      -0.00010735      -0.00008104       0.00002428 </v>
   <v>       0.00007561       0.00013926       0.00002846 </v>
   <v>      -0.00000647       0.00002798       0.00010946 </v>
   <v>       0.00089800      -0.00019381      -0.00070871 </v>
   <v>      -0.00006136      -0.00003432       0.00020225 </v>
   <v>      -0.00007858       0.00012415       0.00009750 </v>
   <v>      -0.00000647       0.00010946       0.00002798 </v>
   <v>       0.00089800      -0.00070871      -0.00019381 </v>
   <v>      -0.00007858       0.00009750       0.00012415 </v>
   <v>      -0.00006136       0.00020225      -0.00003432 </v>
   <v>      -0.00004235      -0.00019451      -0.00038112 </v>
   <v>       0.00012760       0.00003081       0.00014757 </v>
   <v>       0.00007561       0.00002846       0.00013926 </v>
   <v>      -0.00010735       0.00002428      -0.00008104 </v>
   <v>      -0.00033461       0.00030287       0.00030287 </v>
   <v>      -0.00003370      -0.00005209      -0.00005209 </v>
   <v>      -0.00013078       0.00014032       0.00009930 </v>
   <v>      -0.00013078       0.00009930       0.00014032 </v>
   <v>      -0.00089459      -0.00027540      -0.00053777 </v>
   <v>      -0.00089459      -0.00053777      -0.00027540 </v>
   <v>       0.00141601      -0.00029954      -0.00029954 </v>
   <v>       0.00018683      -0.00020913      -0.00020913 </v>
   <v>      -0.00005694       0.00021173      -0.00002625 </v>
   <v>      -0.00005694      -0.00002625       0.00021173 </v>
   <v>      -0.00024289       0.00003523       0.00003523 </v>
   <v>      -0.00030093       0.00021114       0.00021114 </v>
   <v>      -0.00034783       0.00033497       0.00033497 </v>
   <v>      -0.00046544      -0.00046046      -0.00046046 </v>
   <v>      -0.00036087      -0.00057676       0.00018542 </v>
   <v>      -0.00036087       0.00018542      -0.00057676 </v>
   <v>       0.00006537       0.00017169      -0.00027549 </v>
   <v>       0.00018506      -0.00011902       0.00030669 </v>
   <v>      -0.00000473       0.00010372       0.00019972 </v>
   <v>       0.00032576       0.00051654       0.00064284 </v>
   <v>       0.00018506       0.00030669      -0.00011902 </v>
   <v>       0.00006537      -0.00027549       0.00017169 </v>
   <v>      -0.00000473       0.00019972       0.00010372 </v>
   <v>       0.00032576       0.00064284       0.00051654 </v>
   <v>      -0.00021005       0.00008792       0.00011158 </v>
   <v>      -0.00021005       0.00011158       0.00008792 </v>
   <v>       0.00015975       0.00006057       0.00006057 </v>
   <v>      -0.00005180      -0.00032934      -0.00032934 </v>
   <v>       0.00010501       0.00029396      -0.00009772 </v>
   <v>       0.00010501      -0.00009772       0.00029396 </v>
   <v>       0.00037191      -0.00035435      -0.00035435 </v>
   <v>      -0.00013676       0.00050259       0.00050259 </v>
  </varray>
  <varray name="stress" >
   <v>      -2.45074223       1.08118613       1.08118613 </v>
   <v>       1.08118547       1.21312838       2.51124162 </v>
   <v>       1.08118547       2.51124162       1.21312838 </v>
  </varray>
  <energy>
   <i name="e_fr_energy">   -271.92375209 </i>
   <i name="e_wo_entrp">   -271.92375209 </i>
   <i name="e_0_energy">   -271.92375209 </i>
  </energy>
  <time name="totalsc">    6.53    6.64</time>
 </calculation>
 <calculation>
  <scstep>
   <time name="dav">    1.58    1.60</time>
   <time name="total">    2.15    2.17</time>
   <energy>
    <i name="alphaZ">    297.84191161 </i>
    <i name="ewald">  -8774.76862593 </i>
    <i name="hartreedc">  -2232.50981280 </i>
    <i name="XCdc">    537.62171611 </i>
    <i name="pawpsdc">   9822.61407922 </i>
    <i name="pawaedc">  -9966.66788484 </i>
    <i name="eentropy">     -0.00000000 </i>
    <i name="bandstr">  -2645.77025702 </i>
    <i name="atom">  12703.13999606 </i>
    <i name="e_fr_energy">   -258.49887759 </i>
    <i name="e_wo_entrp">   -258.49887759 </i>
    <i name="e_0_energy">   -258.49887759 </i>
   </energy>
  </scstep>
  <scstep>
   <time name="diag">    0.27    0.28</time>
   <time name="diis">    0.56    0.56</time>
   <time name="orth">    0.05    0.05</time>
   <time name="total">    1.33    1.34</time>
   <energy>
    <i name="alphaZ">    297.84191161 </i>
    <i name="ewald">  -8774.76862593 </i>
    <i name="hartreedc">  -2232.50961120 </i>
    <i name="XCdc">    537.62170579 </i>
    <i name="pawpsdc">   9822.61171529 </i>
    <i name="pawaedc">  -9966.66550642 </i>
    <i name="eentropy">     -0.00000000 </i>
    <i name="bandstr">  -2645.77046285 </i>
    <i name="atom">  12703.13999606 </i>
    <i name="e_fr_energy">   -258.49887764 </i>
    <i name="e_wo_entrp">   -258.49887764 </i>
    <i name="e_0_energy">   -258.49887764 </i>
   </energy>
  </scstep>
  <structure>
   <crystal>
    <varray name="basis" >
     <v>       9.69554025       0.00000000       0.00000000 </v>
     <v>       0.00000000       9.69554025       0.00000000 </v>
     <v>       0.00000000       0.00000000       9.69554025 </v>
    </varray>
    <i name="volume">    911.41472404 </i>
    <varray name="rec_basis" >
     <v>       0.10314020       0.00000000       0.00000000 </v>
     <v>       0.00000000       0.10314020       0.00000000 </v>
     <v>       0.00000000       0.00000000       0.10314020 </v>
    </varray>
   </crystal>
   <varray name="positions" >
    <v>       0.97961327       0.30331162       0.32202300 </v>
    <v>       0.97961327       0.82202300       0.80331162 </v>
    <v>       0.01136426       0.23828677       0.73828677 </v>
    <v>       0.28619093       0.57678504       0.07678504 </v>
    <v>       0.18535394       0.18600432       0.97891793 </v>
    <v>       0.06854835       0.85029707       0.14382433 </v>
    <v>       0.82775468       0.16941504       0.02274421 </v>
    <v>       0.73955032       0.70207739       0.97143421 </v>
    <v>       0.33291360       0.97638488       0.28745282 </v>
    <v>       0.26913552       0.02023152       0.73819490 </v>
    <v>       0.67357731       0.96530380       0.70341252 </v>
    <v>       0.72286846       0.00952528       0.28484407 </v>
    <v>       0.33291360       0.78745282       0.47638488 </v>
    <v>       0.26913552       0.23819490       0.52023152 </v>
    <v>       0.72286846       0.78484407       0.50952528 </v>
    <v>       0.67357731       0.20341252       0.46530380 </v>
    <v>       0.18535394       0.47891793       0.68600432 </v>
    <v>       0.06854835       0.64382433       0.35029707 </v>
    <v>       0.73955032       0.47143421       0.20207739 </v>
    <v>       0.82775468       0.52274421       0.66941504 </v>
    <v>       0.47098996       0.32091516       0.82091516 </v>
    <v>       0.49314883       0.70308788       0.20308788 </v>
    <v>       0.53477462       0.29416246       0.17136426 </v>
    <v>       0.53477462       0.67136426       0.79416246 </v>
    <v>       0.51001543       0.48599236       0.49460508 </v>
    <v>       0.51001543       0.99460508       0.98599236 </v>
    <v>       0.01260969       0.49769907       0.99769907 </v>
    <v>       0.01169766       0.98573217       0.48573217 </v>
    <v>       0.13358570       0.86503253       0.60998393 </v>
    <v>       0.13358570       0.10998393       0.36503253 </v>
    <v>       0.90471993       0.85621836       0.35621836 </v>
    <v>       0.87243532       0.09841587       0.59841587 </v>
    <v>       0.90748597       0.62935845       0.12935845 </v>
    <v>       0.87445127       0.38434773       0.88434773 </v>
    <v>       0.13342423       0.62434100       0.87951293 </v>
    <v>       0.13342423       0.37951293       0.12434100 </v>
    <v>       0.62796101       0.12996100       0.87319437 </v>
    <v>       0.63780066       0.87626367       0.10764515 </v>
    <v>       0.38447773       0.11772856       0.10487740 </v>
    <v>       0.39597474       0.86465397       0.86808024 </v>
    <v>       0.63780066       0.60764515       0.37626367 </v>
    <v>       0.62796101       0.37319437       0.62996100 </v>
    <v>       0.38447773       0.60487740       0.61772856 </v>
    <v>       0.39597474       0.36808024       0.36465397 </v>
    <v>       0.75887705       0.74309130       0.74055176 </v>
    <v>       0.75887705       0.24055176       0.24309130 </v>
    <v>       0.26548010       0.74958237       0.24958237 </v>
    <v>       0.24770558       0.25374176       0.75374176 </v>
    <v>       0.01163546       0.01031557       0.96801863 </v>
    <v>       0.01163546       0.46801863       0.51031557 </v>
    <v>       0.53465113       0.97637260       0.47637260 </v>
    <v>       0.52494236       0.51354810       0.01354810 </v>
   </varray>
  </structure>
  <varray name="forces" >
   <v>       0.00019246       0.00016795      -0.00022461 </v>
   <v>       0.00019246      -0.00022461       0.00016795 </v>
   <v>       0.00005188      -0.00020306      -0.00020306 </v>
   <v>      -0.00020007      -0.00005814      -0.00005814 </v>
   <v>       0.00001455      -0.00074995      -0.00045889 </v>
   <v>       0.00022655       0.00023269       0.00010137 </v>
   <v>      -0.00020759      -0.00010691       0.00003542 </v>
   <v>       0.00016948       0.00023964       0.00012847 </v>
   <v>       0.00000795       0.00005264       0.00019901 </v>
   <v>       0.00179090      -0.00036576      -0.00146350 </v>
   <v>      -0.00006229       0.00001968       0.00035332 </v>
   <v>      -0.00009985       0.00022480       0.00016556 </v>
   <v>       0.00000795       0.00019901       0.00005264 </v>
   <v>       0.00179090      -0.00146350      -0.00036576 </v>
   <v>      -0.00009985       0.00016556       0.00022480 </v>
   <v>      -0.00006229       0.00035332       0.00001968 </v>
   <v>       0.00001455      -0.00045889      -0.00074995 </v>
   <v>       0.00022655       0.00010137       0.00023269 </v>
   <v>       0.00016948       0.00012847       0.00023964 </v>
   <v>      -0.00020759       0.00003542      -0.00010691 </v>
   <v>      -0.00055658       0.00063554       0.00063554 </v>
[...]
       <r>     7.8321    14.2164   143.8964 </r>
       <r>     8.0248    12.0894   146.2289 </r>
       <r>     8.2175    14.0463   148.9354 </r>
       <r>     8.4102    14.4839   151.7272 </r>
       <r>     8.6029    17.2004   155.0414 </r>
       <r>     8.7955    12.8984   157.5273 </r>
       <r>     8.9882    20.6783   161.5124 </r>
       <r>     9.1809    16.2690   164.6472 </r>
       <r>     9.3736    20.7148   168.6386 </r>
       <r>     9.5663    16.0334   171.7279 </r>
       <r>     9.7590    17.2218   175.0465 </r>
       <r>     9.9516     4.9402   176.0000 </r>
       <r>    10.1443     0.0000   176.0000 </r>
       <r>    10.3370     0.0000   176.0000 </r>
       <r>    10.5297     0.0000   176.0000 </r>
       <r>    10.7224     0.0000   176.0000 </r>
       <r>    10.9150     0.0000   176.0000 </r>
       <r>    11.1077     0.0000   176.0000 </r>
       <r>    11.3004     0.0000   176.0000 </r>
       <r>    11.4931     0.0000   176.0000 </r>
       <r>    11.6858     0.0000   176.0000 </r>
       <r>    11.8784     0.0000   176.0000 </r>
       <r>    12.0711     0.0000   176.0000 </r>
       <r>    12.2638     0.0000   176.0000 </r>
       <r>    12.4565     0.0000   176.0000 </r>
      </set>
      <set comment="spin 2">
       <r>   -45.3476     0.0000     0.0000 </r>
       <r>   -45.1550     0.0000     0.0000 </r>
       <r>   -44.9623     0.0000     0.0000 </r>
       <r>   -44.7696     0.0000     0.0000 </r>
       <r>   -44.5769     0.0000     0.0000 </r>
       <r>   -44.3842     0.0000     0.0000 </r>
       <r>   -44.1916     0.0000     0.0000 </r>
       <r>   -43.9989     0.0000     0.0000 </r>
       <r>   -43.8062     0.0000     0.0000 </r>
       <r>   -43.6135     0.0000     0.0000 </r>
       <r>   -43.4208     0.0000     0.0000 </r>
       <r>   -43.2282     0.0000     0.0000 </r>
       <r>   -43.0355     0.0000     0.0000 </r>
       <r>   -42.8428     0.0000     0.0000 </r>
       <r>   -42.6501    12.2011     2.3509 </r>
       <r>   -42.4574    45.4049    11.1016 </r>
       <r>   -42.2647    66.7824    23.9796 </r>
       <r>   -42.0721     0.0000    24.0000 </r>
       <r>   -41.8794     0.0000    24.0000 </r>
       <r>   -41.6867     0.0000    24.0000 </r>
       <r>   -41.4940     0.0000    24.0000 </r>
       <r>   -41.3013     0.0000    24.0000 </r>
       <r>   -41.1087     0.0000    24.0000 </r>
       <r>   -40.9160     0.0000    24.0000 </r>
       <r>   -40.7233     0.0000    24.0000 </r>
       <r>   -40.5306     0.0000    24.0000 </r>
       <r>   -40.3379     0.0000    24.0000 </r>
       <r>   -40.1453     0.0000    24.0000 </r>
       <r>   -39.9526     0.0000    24.0000 </r>
       <r>   -39.7599     0.0000    24.0000 </r>
       <r>   -39.5672     0.0000    24.0000 </r>
       <r>   -39.3745     0.0000    24.0000 </r>
       <r>   -39.1819     0.0000    24.0000 </r>
       <r>   -38.9892     0.0000    24.0000 </r>
       <r>   -38.7965     0.0000    24.0000 </r>
       <r>   -38.6038     0.0000    24.0000 </r>
       <r>   -38.4111     0.0000    24.0000 </r>
       <r>   -38.2185     0.0000    24.0000 </r>
       <r>   -38.0258     0.0000    24.0000 </r>
       <r>   -37.8331     0.0000    24.0000 </r>
       <r>   -37.6404     0.0000    24.0000 </r>
       <r>   -37.4477     0.0000    24.0000 </r>
       <r>   -37.2551     0.0000    24.0000 </r>
       <r>   -37.0624     0.0000    24.0000 </r>
       <r>   -36.8697     0.0000    24.0000 </r>
       <r>   -36.6770     0.0000    24.0000 </r>
       <r>   -36.4843     0.0000    24.0000 </r>
       <r>   -36.2917     0.0000    24.0000 </r>
       <r>   -36.0990     0.0000    24.0000 </r>
       <r>   -35.9063     0.0000    24.0000 </r>
       <r>   -35.7136     0.0000    24.0000 </r>
       <r>   -35.5209     0.0000    24.0000 </r>
       <r>   -35.3283     0.0000    24.0000 </r>
       <r>   -35.1356     0.0000    24.0000 </r>
       <r>   -34.9429     0.0000    24.0000 </r>
       <r>   -34.7502     0.0000    24.0000 </r>
       <r>   -34.5575     0.0000    24.0000 </r>
       <r>   -34.3649     0.0000    24.0000 </r>
       <r>   -34.1722     0.0000    24.0000 </r>
       <r>   -33.9795     0.0000    24.0000 </r>
       <r>   -33.7868     0.0000    24.0000 </r>
       <r>   -33.5941     0.0000    24.0000 </r>
       <r>   -33.4015     0.0000    24.0000 </r>
       <r>   -33.2088     0.0000    24.0000 </r>
       <r>   -33.0161     0.0000    24.0000 </r>
       <r>   -32.8234     0.0000    24.0000 </r>
       <r>   -32.6307     0.0000    24.0000 </r>
       <r>   -32.4381     0.0000    24.0000 </r>
       <r>   -32.2454     0.0000    24.0000 </r>
       <r>   -32.0527     0.0000    24.0000 </r>
       <r>   -31.8600     0.0000    24.0000 </r>
       <r>   -31.6673     0.0000    24.0000 </r>
       <r>   -31.4746     0.0000    24.0000 </r>
       <r>   -31.2820     0.0000    24.0000 </r>
       <r>   -31.0893     0.0000    24.0000 </r>
       <r>   -30.8966     0.0000    24.0000 </r>
       <r>   -30.7039     0.0000    24.0000 </r>
       <r>   -30.5112     0.0000    24.0000 </r>
       <r>   -30.3186     0.0000    24.0000 </r>
       <r>   -30.1259     0.0000    24.0000 </r>
       <r>   -29.9332     0.0000    24.0000 </r>
       <r>   -29.7405     0.0000    24.0000 </r>
       <r>   -29.5478     0.0000    24.0000 </r>
       <r>   -29.3552     0.0000    24.0000 </r>
       <r>   -29.1625     0.0000    24.0000 </r>
       <r>   -28.9698     0.0000    24.0000 </r>
       <r>   -28.7771     0.0000    24.0000 </r>
       <r>   -28.5844     0.0000    24.0000 </r>
       <r>   -28.3918     0.0000    24.0000 </r>
       <r>   -28.1991     0.0000    24.0000 </r>
       <r>   -28.0064     0.0000    24.0000 </r>
       <r>   -27.8137     0.0000    24.0000 </r>
       <r>   -27.6210     0.0000    24.0000 </r>
       <r>   -27.4284     0.0000    24.0000 </r>
       <r>   -27.2357     0.0000    24.0000 </r>
       <r>   -27.0430     0.0000    24.0000 </r>
       <r>   -26.8503     0.0000    24.0000 </r>
       <r>   -26.6576     0.0000    24.0000 </r>
       <r>   -26.4650     0.0000    24.0000 </r>
       <r>   -26.2723     0.0000    24.0000 </r>
       <r>   -26.0796     0.0000    24.0000 </r>
       <r>   -25.8869     0.0000    24.0000 </r>
       <r>   -25.6942     0.0000    24.0000 </r>
       <r>   -25.5016     0.0000    24.0000 </r>
       <r>   -25.3089     0.0000    24.0000 </r>
       <r>   -25.1162     0.0000    24.0000 </r>
       <r>   -24.9235     0.0000    24.0000 </r>
       <r>   -24.7308     0.0000    24.0000 </r>
       <r>   -24.5382     0.0000    24.0000 </r>
       <r>   -24.3455     0.0000    24.0000 </r>
       <r>   -24.1528     0.0000    24.0000 </r>
       <r>   -23.9601     0.0000    24.0000 </r>
       <r>   -23.7674     0.0000    24.0000 </r>
       <r>   -23.5748     0.0000    24.0000 </r>
       <r>   -23.3821     0.0000    24.0000 </r>
       <r>   -23.1894     0.0000    24.0000 </r>
       <r>   -22.9967     0.0000    24.0000 </r>
       <r>   -22.8040     0.0000    24.0000 </r>
       <r>   -22.6114     0.0000    24.0000 </r>
       <r>   -22.4187     0.0000    24.0000 </r>
       <r>   -22.2260     0.0000    24.0000 </r>
       <r>   -22.0333     0.0000    24.0000 </r>
       <r>   -21.8406     0.0000    24.0000 </r>
       <r>   -21.6479     0.0000    24.0000 </r>
       <r>   -21.4553     0.0000    24.0000 </r>
       <r>   -21.2626     0.0000    24.0000 </r>
       <r>   -21.0699     0.0000    24.0000 </r>
       <r>   -20.8772     0.0000    24.0000 </r>
       <r>   -20.6845     0.0000    24.0000 </r>
       <r>   -20.4919     0.0000    24.0000 </r>
       <r>   -20.2992     0.0000    24.0000 </r>
       <r>   -20.1065     0.0000    24.0000 </r>
       <r>   -19.9138     0.0000    24.0000 </r>
       <r>   -19.7211     0.0000    24.0000 </r>
       <r>   -19.5285     0.0000    24.0000 </r>
       <r>   -19.3358     0.0000    24.0000 </r>
       <r>   -19.1431     0.0000    24.0000 </r>
       <r>   -18.9504     0.0000    24.0000 </r>
       <r>   -18.7577     0.0000    24.0000 </r>
       <r>   -18.5651     0.0000    24.0000 </r>
       <r>   -18.3724     0.0000    24.0000 </r>
       <r>   -18.1797     0.0000    24.0000 </r>
       <r>   -17.9870     0.0000    24.0000 </r>
       <r>   -17.7943     0.0000    24.0000 </r>
       <r>   -17.6017     0.0000    24.0000 </r>
       <r>   -17.4090     0.0000    24.0000 </r>
       <r>   -17.2163     0.0000    24.0000 </r>
       <r>   -17.0236     0.0000    24.0000 </r>
       <r>   -16.8309     0.0000    24.0000 </r>
       <r>   -16.6383     0.0000    24.0000 </r>
       <r>   -16.4456     0.0000    24.0000 </r>
       <r>   -16.2529     0.0000    24.0000 </r>
       <r>   -16.0602     0.0000    24.0000 </r>
       <r>   -15.8675     0.0000    24.0000 </r>
       <r>   -15.6749     0.0000    24.0000 </r>
       <r>   -15.4822     0.0000    24.0000 </r>
       <r>   -15.2895     0.0000    24.0000 </r>
       <r>   -15.0968     0.0000    24.0000 </r>
       <r>   -14.9041     0.0000    24.0000 </r>
       <r>   -14.7115     0.0000    24.0000 </r>
       <r>   -14.5188     0.0000    24.0000 </r>
       <r>   -14.3261     0.0000    24.0000 </r>
       <r>   -14.1334     0.0000    24.0000 </r>
       <r>   -13.9407     0.0000    24.0000 </r>
       <r>   -13.7481     0.0000    24.0000 </r>
       <r>   -13.5554     0.0000    24.0000 </r>
       <r>   -13.3627     0.0000    24.0000 </r>
       <r>   -13.1700     1.0031    24.1933 </r>
       <r>   -12.9773    19.6255    27.9747 </r>
       <r>   -12.7847     2.8134    28.5191 </r>
       <r>   -12.5920     7.5429    29.9725 </r>
       <r>   -12.3993    10.0800    31.9147 </r>
       <r>   -12.2066     0.4428    32.0000 </r>
       <r>   -12.0139     0.0000    32.0000 </r>
       <r>   -11.8213     0.0000    32.0000 </r>
       <r>   -11.6286     0.0000    32.0000 </r>
       <r>   -11.4359     0.0000    32.0000 </r>
       <r>   -11.2432     0.0000    32.0000 </r>
       <r>   -11.0505     0.0000    32.0000 </r>
       <r>   -10.8578     0.0000    32.0000 </r>
       <r>   -10.6652     0.0000    32.0000 </r>
       <r>   -10.4725     0.0012    32.0002 </r>
       <r>   -10.2798    14.5853    34.8105 </r>
       <r>   -10.0871    17.6506    38.2114 </r>
       <r>    -9.8944    29.8264    43.9625 </r>
       <r>    -9.7018     0.1882    44.0000 </r>
       <r>    -9.5091     0.0000    44.0000 </r>
       <r>    -9.3164     0.0000    44.0000 </r>
       <r>    -9.1237     0.0000    44.0000 </r>
       <r>    -8.9310     0.0000    44.0000 </r>
       <r>    -8.7384     0.0000    44.0000 </r>
       <r>    -8.5457     4.3807    44.8441 </r>
       <r>    -8.3530    11.1554    46.9935 </r>
       <r>    -8.1603     5.1882    48.0000 </r>
       <r>    -7.9676     0.0000    48.0000 </r>
       <r>    -7.7750     0.0000    48.0000 </r>
       <r>    -7.5823     0.0000    48.0000 </r>
       <r>    -7.3896     0.0000    48.0000 </r>
       <r>    -7.1969     0.0000    48.0000 </r>
       <r>    -7.0042     0.0000    48.0000 </r>
       <r>    -6.8116     0.0000    48.0000 </r>
       <r>    -6.6189     0.0000    48.0000 </r>
       <r>    -6.4262     0.0000    48.0000 </r>
       <r>    -6.2335     0.1386    48.0267 </r>
       <r>    -6.0408     5.0514    49.0000 </r>
       <r>    -5.8482     0.5285    49.1018 </r>
       <r>    -5.6555    13.5303    51.7089 </r>
       <r>    -5.4628     1.4872    52.0000 </r>
       <r>    -5.2701     0.0000    52.0000 </r>
       <r>    -5.0774     0.0000    52.0000 </r>
       <r>    -4.8848     0.0000    52.0000 </r>
       <r>    -4.6921     0.0000    52.0000 </r>
       <r>    -4.4994     0.0000    52.0000 </r>
       <r>    -4.3067     0.0000    52.0000 </r>
       <r>    -4.1140     0.0000    52.0000 </r>
       <r>    -3.9214     0.0000    52.0000 </r>
       <r>    -3.7287     0.0000    52.0000 </r>
       <r>    -3.5360     0.0000    52.0000 </r>
       <r>    -3.3433     0.5076    52.0978 </r>
       <r>    -3.1506    15.0613    54.9998 </r>
       <r>    -2.9580     0.5393    55.1039 </r>
       <r>    -2.7653     9.9999    57.0307 </r>
       <r>    -2.5726    10.8235    59.1162 </r>
       <r>    -2.3799    18.8615    62.7504 </r>
       <r>    -2.1872     6.4764    64.0000 </r>
       <r>    -1.9946     0.0000    64.0000 </r>
       <r>    -1.8019     0.0000    64.0000 </r>
       <r>    -1.6092     3.9412    64.7594 </r>
       <r>    -1.4165    15.4731    67.7408 </r>
       <r>    -1.2238    16.1315    70.8490 </r>
       <r>    -1.0311    15.1149    73.7626 </r>
       <r>    -0.8385    11.6121    76.0000 </r>
       <r>    -0.6458     5.2403    77.0097 </r>
       <r>    -0.4531    10.3221    79.0045 </r>
       <r>    -0.2604    12.7620    81.4635 </r>
       <r>    -0.0677    22.6542    85.8286 </r>
       <r>     0.1249    27.9584    91.2180 </r>
       <r>     0.3176    16.0251    94.3127 </r>
       <r>     0.5103     8.7540    96.0000 </r>
       <r>     0.7030     5.6966    97.0976 </r>
       <r>     0.8957    22.1125   101.3595 </r>
       <r>     1.0883    25.1802   106.2129 </r>
       <r>     1.2810    25.6705   111.1644 </r>
       <r>     1.4737    26.8667   116.3473 </r>
       <r>     1.6664    13.7795   119.0046 </r>
       <r>     1.8591     5.1638   120.0000 </r>
       <r>     2.0517     0.0000   120.0000 </r>
       <r>     2.2444     0.0000   120.0000 </r>
       <r>     2.4371     0.0000   120.0000 </r>
       <r>     2.6298     0.0000   120.0000 </r>
       <r>     2.8225     0.0000   120.0000 </r>
       <r>     3.0151     0.0000   120.0000 </r>
       <r>     3.2078     0.0000   120.0000 </r>
       <r>     3.4005     0.0000   120.0000 </r>
       <r>     3.5932     0.0000   120.0000 </r>
       <r>     3.7859     0.0000   120.0000 </r>
       <r>     3.9785     0.0000   120.0000 </r>
       <r>     4.1712     0.0000   120.0000 </r>
       <r>     4.3639     4.0463   120.7796 </r>
       <r>     4.5566     1.1437   121.0000 </r>
       <r>     4.7493     0.0000   121.0000 </r>
       <r>     4.9419     0.0000   121.0000 </r>
       <r>     5.1346     2.0269   121.3905 </r>
       <r>     5.3273    13.2852   123.9503 </r>
       <r>     5.5200     0.2553   124.0000 </r>
       <r>     5.7127     0.0011   124.0002 </r>
       <r>     5.9053     9.0323   125.7406 </r>
       <r>     6.0980    14.9326   128.6190 </r>
       <r>     6.2907     7.2830   130.0224 </r>
       <r>     6.4834     7.9194   131.5483 </r>
       <r>     6.6761     8.6983   133.2243 </r>
       <r>     6.8687    13.1702   135.7620 </r>
       <r>     7.0614     5.3696   136.7998 </r>
       <r>     7.2541     2.6220   137.3050 </r>
       <r>     7.4468    10.6267   139.3525 </r>
       <r>     7.6395     9.3596   141.1572 </r>
       <r>     7.8321    14.2164   143.8964 </r>
       <r>     8.0248    12.0894   146.2289 </r>
       <r>     8.2175    14.0463   148.9354 </r>
       <r>     8.4102    14.4839   151.7272 </r>
       <r>     8.6029    17.2004   155.0414 </r>
       <r>     8.7955    12.8984   157.5273 </r>
       <r>     8.9882    20.6783   161.5124 </r>
       <r>     9.1809    16.2690   164.6472 </r>
       <r>     9.3736    20.7158   168.6388 </r>
       <r>     9.5663    16.0448   171.7303 </r>
       <r>     9.7590    17.4438   175.0917 </r>
       <r>     9.9516     4.7098   176.0000 </r>
       <r>    10.1443     0.0000   176.0000 </r>
       <r>    10.3370     0.0000   176.0000 </r>
       <r>    10.5297     0.0000   176.0000 </r>
       <r>    10.7224     0.0000   176.0000 </r>
       <r>    10.9150     0.0000   176.0000 </r>
       <r>    11.1077     0.0000   176.0000 </r>
       <r>    11.3004     0.0000   176.0000 </r>
       <r>    11.4931     0.0000   176.0000 </r>
       <r>    11.6858     0.0000   176.0000 </r>
       <r>    11.8784     0.0000   176.0000 </r>
       <r>    12.0711     0.0000   176.0000 </r>
       <r>    12.2638     0.0000   176.0000 </r>
       <r>    12.4565     0.0000   176.0000 </r>
      </set>
     </set>
    </array>
   </total>
  </dos>
 </calculation>
 <structure name="finalpos" >
  <crystal>
   <varray name="basis" >
    <v>       9.69554025       0.00000000       0.00000000 </v>
    <v>       0.00000000       9.69554025       0.00000000 </v>
    <v>       0.00000000       0.00000000       9.69554025 </v>
   </varray>
   <i name="volume">    911.41472404 </i>
   <varray name="rec_basis" >
    <v>       0.10314020       0.00000000       0.00000000 </v>
    <v>       0.00000000       0.10314020       0.00000000 </v>
    <v>       0.00000000       0.00000000       0.10314020 </v>
   </varray>
  </crystal>
  <varray name="positions" >
   <v>       0.97961745       0.30331430       0.32201858 </v>
   <v>       0.97961745       0.82201858       0.80331430 </v>
   <v>       0.01136541       0.23828229       0.73828229 </v>
   <v>       0.28618887       0.57678478       0.07678478 </v>
   <v>       0.18535547       0.18599234       0.97891010 </v>
   <v>       0.06855348       0.85030063       0.14382675 </v>
   <v>       0.82775047       0.16941330       0.02274467 </v>
   <v>       0.73955511       0.70208193       0.97143793 </v>
   <v>       0.33291456       0.97638598       0.28745674 </v>
   <v>       0.26916309       0.02022586       0.73817253 </v>
   <v>       0.67357767       0.96530525       0.70341945 </v>
   <v>       0.72286745       0.00953040       0.28484733 </v>
   <v>       0.33291456       0.78745674       0.47638598 </v>
   <v>       0.26916309       0.23817253       0.52022586 </v>
   <v>       0.72286745       0.78484733       0.50953040 </v>
   <v>       0.67357767       0.20341945       0.46530525 </v>
   <v>       0.18535547       0.47891010       0.68599234 </v>
   <v>       0.06855348       0.64382675       0.35030063 </v>
   <v>       0.73955511       0.47143793       0.20208193 </v>
   <v>       0.82775047       0.52274467       0.66941330 </v>
   <v>       0.47098241       0.32092481       0.82092481 </v>
   <v>       0.49315096       0.70308646       0.20308646 </v>
   <v>       0.53477273       0.29416732       0.17136673 </v>
   <v>       0.53477273       0.67136673       0.79416732 </v>
   <v>       0.51001160       0.48599460       0.49460421 </v>
   <v>       0.51001160       0.99460421       0.98599460 </v>
   <v>       0.01261452       0.49769591       0.99769591 </v>
   <v>       0.01168570       0.98573157       0.48573157 </v>
   <v>       0.13358235       0.86503162       0.60998293 </v>
   <v>       0.13358235       0.10998293       0.36503162 </v>
   <v>       0.90471662       0.85621822       0.35621822 </v>
   <v>       0.87242968       0.09841471       0.59841471 </v>
   <v>       0.90749095       0.62935872       0.12935872 </v>
   <v>       0.87444819       0.38434507       0.88434507 </v>
   <v>       0.13342399       0.62433261       0.87950733 </v>
   <v>       0.13342399       0.37950733       0.12433261 </v>
   <v>       0.62795595       0.12996484       0.87319424 </v>
   <v>       0.63780352       0.87626636       0.10764864 </v>
   <v>       0.38447755       0.11773028       0.10488099 </v>
   <v>       0.39597128       0.86465226       0.86809422 </v>
   <v>       0.63780352       0.60764864       0.37626636 </v>
   <v>       0.62795595       0.37319424       0.62996484 </v>
   <v>       0.38447755       0.60488099       0.61773028 </v>
   <v>       0.39597128       0.36809422       0.36465226 </v>
   <v>       0.75887682       0.74309199       0.74055402 </v>
   <v>       0.75887682       0.24055402       0.24309199 </v>
   <v>       0.26548175       0.74958277       0.24958277 </v>
   <v>       0.24770762       0.25373554       0.75373554 </v>
   <v>       0.01162608       0.01030934       0.96802141 </v>
   <v>       0.01162608       0.46802141       0.51030934 </v>
   <v>       0.53463691       0.97637974       0.47637974 </v>
   <v>       0.52494431       0.51354578       0.01354578 </v>
  </varray>
 </structure>
</modeling>
