unknown system                          
           1
     9.695540    0.000000    0.000000
     0.000000    9.695540    0.000000
     0.000000    0.000000    9.695540
   Li   P    S    Cl
    24     4    20     4
Direct configuration=     1
   0.97961121  0.30331023  0.32202529
   0.97961121  0.82202529  0.80331023
   0.01136386  0.23828927  0.73828927
   0.28619180  0.57678489  0.07678489
   0.18535289  0.18601076  0.97892238
   0.06854564  0.85029531  0.14382288
   0.82775730  0.16941590  0.02274405
   0.73954763  0.70207499  0.97143177
   0.33291306  0.97638423  0.28745059
   0.26912098  0.02023447  0.73820696
   0.67357705  0.96530261  0.70340872
   0.72286909  0.00952229  0.28484226
   0.33291306  0.78745059  0.47638423
   0.26912098  0.23820696  0.52023447
   0.72286909  0.78484226  0.50952229
   0.67357705  0.20340872  0.46530261
   0.18535289  0.47892238  0.68601076
   0.06854564  0.64382288  0.35029531
   0.73954763  0.47143177  0.20207499
   0.82775730  0.52274405  0.66941590
   0.47099387  0.32090997  0.82090997
   0.49314732  0.70308864  0.20308864
   0.53477555  0.29415980  0.17136309
   0.53477555  0.67136309  0.79415980
   0.51001239  0.48598871  0.49460197
   0.51001239  0.99460197  0.98598871
   0.01261578  0.49769977  0.99769977
   0.01170019  0.98573162  0.48573162
   0.13358762  0.86503406  0.60998435
   0.13358762  0.10998435  0.36503406
   0.90472123  0.85621857  0.35621857
   0.87243758  0.09841775  0.59841775
   0.90748082  0.62936036  0.12936036
   0.87445074  0.38434717  0.88434717
   0.13342235  0.62434360  0.87951795
   0.13342235  0.37951795  0.12434360
   0.62796524  0.12995979  0.87319305
   0.63780023  0.87626130  0.10764448
   0.38447812  0.11772790  0.10487590
   0.39597935  0.86465806  0.86807461
   0.63780023  0.60764448  0.37626130
   0.62796524  0.37319305  0.62995979
   0.38447812  0.60487590  0.61772790
   0.39597935  0.36807461  0.36465806
   0.75887662  0.74309117  0.74055083
   0.75887662  0.24055083  0.24309117
   0.26547994  0.74958239  0.24958239
   0.24770426  0.25374449  0.75374449
   0.01164160  0.01032033  0.96801667
   0.01164160  0.46801667  0.51032033
   0.53466093  0.97636727  0.47636727
   0.52494098  0.51355094  0.01355094
Direct configuration=     2
   0.97961176  0.30331060  0.32202468
   0.97961176  0.82202468  0.80331060
   0.01136397  0.23828860  0.73828860
   0.28619157  0.57678493  0.07678493
   0.18535317  0.18600903  0.97892118
   0.06854637  0.85029578  0.14382326
   0.82775660  0.16941567  0.02274409
   0.73954835  0.70207563  0.97143243
   0.33291321  0.97638440  0.28745119
   0.26912487  0.02023368  0.73820372
   0.67357712  0.96530293  0.70340974
   0.72286892  0.00952310  0.28484275
   0.33291321  0.78745119  0.47638440
   0.26912487  0.23820372  0.52023368
   0.72286892  0.78484275  0.50952310
   0.67357712  0.20340974  0.46530293
   0.18535317  0.47892118  0.68600903
   0.06854637  0.64382326  0.35029578
   0.73954835  0.47143243  0.20207563
   0.82775660  0.52274409  0.66941567
   0.47099282  0.32091136  0.82091136
   0.49314773  0.70308844  0.20308844
   0.53477530  0.29416052  0.17136340
   0.53477530  0.67136340  0.79416052
   0.51001321  0.48598969  0.49460280
   0.51001321  0.99460280  0.98598969
   0.01261414  0.49769958  0.99769958
   0.01169951  0.98573177  0.48573177
   0.13358710  0.86503365  0.60998423
   0.13358710  0.10998423  0.36503365
   0.90472088  0.85621851  0.35621851
   0.87243698  0.09841724  0.59841724
   0.90748220  0.62935985  0.12935985
   0.87445088  0.38434732  0.88434732
   0.13342285  0.62434290  0.87951660
   0.13342285  0.37951660  0.12434290
   0.62796411  0.12996011  0.87319340
   0.63780034  0.87626194  0.10764466
   0.38447802  0.11772807  0.10487630
   0.39597811  0.86465697  0.86807612
   0.63780034  0.60764466  0.37626194
   0.62796411  0.37319340  0.62996011
   0.38447802  0.60487630  0.61772807
   0.39597811  0.36807612  0.36465697
   0.75887673  0.74309121  0.74055108
   0.75887673  0.24055108  0.24309121
   0.26547999  0.74958238  0.24958238
   0.24770462  0.25374376  0.75374376
   0.01163995  0.01031905  0.96801720
   0.01163995  0.46801720  0.51031905
   0.53465830  0.97636870  0.47636870
   0.52494135  0.51355018  0.01355018
Direct configuration=     3
   0.97961219  0.30331089  0.32202421
   0.97961219  0.82202421  0.80331089
   0.01136405  0.23828808  0.73828808
   0.28619139  0.57678496  0.07678496
   0.18535339  0.18600771  0.97892027
   0.06854692  0.85029614  0.14382356
   0.82775606  0.16941549  0.02274413
   0.73954891  0.70207612  0.97143293
   0.33291332  0.97638454  0.28745164
   0.26912786  0.02023307  0.73820125
   0.67357717  0.96530317  0.70341052
   0.72286879  0.00952371  0.28484312
   0.33291332  0.78745164  0.47638454
   0.26912786  0.23820125  0.52023307
   0.72286879  0.78484312  0.50952371
   0.67357717  0.20341052  0.46530317
   0.18535339  0.47892027  0.68600771
   0.06854692  0.64382356  0.35029614
   0.73954891  0.47143293  0.20207612
   0.82775606  0.52274413  0.66941549
   0.47099202  0.32091242  0.82091242
   0.49314804  0.70308828  0.20308828
   0.53477511  0.29416106  0.17136364
   0.53477511  0.67136364  0.79416106
   0.51001383  0.48599043  0.49460344
   0.51001383  0.99460344  0.98599043
   0.01261289  0.49769944  0.99769944
   0.01169899  0.98573188  0.48573188
   0.13358671  0.86503333  0.60998415
   0.13358671  0.10998415  0.36503333
   0.90472061  0.85621847  0.35621847
   0.87243651  0.09841686  0.59841686
   0.90748326  0.62935946  0.12935946
   0.87445099  0.38434743  0.88434743
   0.13342324  0.62434237  0.87951557
   0.13342324  0.37951557  0.12434237
   0.62796324  0.12996036  0.87319367
   0.63780043  0.87626242  0.10764480
   0.38447794  0.11772821  0.10487661
   0.39597717  0.86465613  0.86807727
   0.63780043  0.60764480  0.37626242
   0.62796324  0.37319367  0.62996036
   0.38447794  0.60487661  0.61772821
   0.39597717  0.36807727  0.36465613
   0.75887682  0.74309123  0.74055127
   0.75887682  0.24055127  0.24309123
   0.26548002  0.74958238  0.24958238
   0.24770489  0.25374320  0.75374320
   0.01163869  0.01031808  0.96801760
   0.01163869  0.46801760  0.51031808
   0.53465629  0.97636979  0.47636979
   0.52494163  0.51354959  0.01354959
Direct configuration=     4
   0.97961303  0.30331146  0.32202327
   0.97961303  0.82202327  0.80331146
   0.01136421  0.23828706  0.73828706
   0.28619103  0.57678502  0.07678502
   0.18535382  0.18600506  0.97891845
   0.06854803  0.85029686  0.14382416
   0.82775499  0.16941514  0.02274419
   0.73955001  0.70207711  0.97143393
   0.33291354  0.97638480  0.28745256
   0.26913383  0.02023186  0.73819630
   0.67357728  0.96530366  0.70341208
   0.72286853  0.00952494  0.28484386
   0.33291354  0.78745256  0.47638480
   0.26913383  0.23819630  0.52023186
   0.72286853  0.78484386  0.50952494
   0.67357728  0.20341208  0.46530366
   0.18535382  0.47891845  0.68600506
   0.06854803  0.64382416  0.35029686
   0.73955001  0.47143393  0.20207711
   0.82775499  0.52274419  0.66941514
   0.47099041  0.32091456  0.82091456
   0.49314866  0.70308797  0.20308797
   0.53477473  0.29416215  0.17136412
   0.53477473  0.67136412  0.79416215
   0.51001508  0.48599193  0.49460472
   0.51001508  0.99460472  0.98599193
   0.01261039  0.49769915  0.99769915
   0.01169795  0.98573210  0.48573210
   0.13358592  0.86503271  0.60998398
   0.13358592  0.10998398  0.36503271
   0.90472008  0.85621838  0.35621838
   0.87243558  0.09841609  0.59841609
   0.90748537  0.62935867  0.12935867
   0.87445121  0.38434766  0.88434766
   0.13342401  0.62434130  0.87951351
   0.13342401  0.37951351  0.12434130
   0.62796150  0.12996086  0.87319421
   0.63780061  0.87626339  0.10764507
   0.38447778  0.11772848  0.10487723
   0.39597528  0.86465445  0.86807959
   0.63780061  0.60764507  0.37626339
   0.62796150  0.37319421  0.62996086
   0.38447778  0.60487723  0.61772848
   0.39597528  0.36807959  0.36465445
   0.75887700  0.74309128  0.74055166
   0.75887700  0.24055166  0.24309128
   0.26548008  0.74958237  0.24958237
   0.24770543  0.25374208  0.75374208
   0.01163617  0.01031612  0.96801841
   0.01163617  0.46801841  0.51031612
   0.53465227  0.97637198  0.47637198
   0.52494220  0.51354843  0.01354843
Direct configuration=     5
   0.97961327  0.30331162  0.32202300
   0.97961327  0.82202300  0.80331162
   0.01136426  0.23828677  0.73828677
   0.28619093  0.57678504  0.07678504
   0.18535394  0.18600432  0.97891793
   0.06854835  0.85029707  0.14382433
   0.82775468  0.16941504  0.02274421
   0.73955032  0.70207739  0.97143421
   0.33291360  0.97638488  0.28745282
   0.26913552  0.02023152  0.73819490
   0.67357731  0.96530380  0.70341252
   0.72286846  0.00952528  0.28484407
   0.33291360  0.78745282  0.47638488
   0.26913552  0.23819490  0.52023152
   0.72286846  0.78484407  0.50952528
   0.67357731  0.20341252  0.46530380
   0.18535394  0.47891793  0.68600432
   0.06854835  0.64382433  0.35029707
   0.73955032  0.47143421  0.20207739
   0.82775468  0.52274421  0.66941504
   0.47098996  0.32091516  0.82091516
   0.49314883  0.70308788  0.20308788
   0.53477462  0.29416246  0.17136426
   0.53477462  0.67136426  0.79416246
   0.51001543  0.48599236  0.49460508
   0.51001543  0.99460508  0.98599236
   0.01260969  0.49769907  0.99769907
   0.01169766  0.98573217  0.48573217
   0.13358570  0.86503253  0.60998393
   0.13358570  0.10998393  0.36503253
   0.90471993  0.85621836  0.35621836
   0.87243532  0.09841587  0.59841587
   0.90748597  0.62935845  0.12935845
   0.87445127  0.38434773  0.88434773
   0.13342423  0.62434100  0.87951293
   0.13342423  0.37951293  0.12434100
   0.62796101  0.12996100  0.87319437
   0.63780066  0.87626367  0.10764515
   0.38447773  0.11772856  0.10487740
   0.39597474  0.86465397  0.86808024
   0.63780066  0.60764515  0.37626367
   0.62796101  0.37319437  0.62996100
   0.38447773  0.60487740  0.61772856
   0.39597474  0.36808024  0.36465397
   0.75887705  0.74309130  0.74055176
   0.75887705  0.24055176  0.24309130
   0.26548010  0.74958237  0.24958237
   0.24770558  0.25374176  0.75374176
   0.01163546  0.01031557  0.96801863
   0.01163546  0.46801863  0.51031557
   0.53465113  0.97637260  0.47637260
   0.52494236  0.51354810  0.01354810
Direct configuration=     6
   0.97961374  0.30331194  0.32202247
   0.97961374  0.82202247  0.80331194
   0.01136435  0.23828619  0.73828619
   0.28619073  0.57678507  0.07678507
   0.18535419  0.18600282  0.97891690
   0.06854897  0.85029748  0.14382466
   0.82775407  0.16941484  0.02274425
   0.73955095  0.70207794  0.97143478
   0.33291373  0.97638503  0.28745333
   0.26913889  0.02023084  0.73819210
   0.67357737  0.96530407  0.70341341
   0.72286831  0.00952598  0.28484449
   0.33291373  0.78745333  0.47638503
   0.26913889  0.23819210  0.52023084
   0.72286831  0.78484449  0.50952598
   0.67357737  0.20341341  0.46530407
   0.18535419  0.47891690  0.68600282
   0.06854897  0.64382466  0.35029748
   0.73955095  0.47143478  0.20207794
   0.82775407  0.52274425  0.66941484
   0.47098905  0.32091636  0.82091636
   0.49314918  0.70308771  0.20308771
   0.53477441  0.29416308  0.17136453
   0.53477441  0.67136453  0.79416308
   0.51001614  0.48599320  0.49460580
   0.51001614  0.99460580  0.98599320
   0.01260827  0.49769891  0.99769891
   0.01169707  0.98573229  0.48573229
   0.13358525  0.86503217  0.60998383
   0.13358525  0.10998383  0.36503217
   0.90471963  0.85621831  0.35621831
   0.87243479  0.09841543  0.59841543
   0.90748716  0.62935800  0.12935800
   0.87445139  0.38434786  0.88434786
   0.13342467  0.62434039  0.87951176
   0.13342467  0.37951176  0.12434039
   0.62796003  0.12996128  0.87319467
   0.63780076  0.87626422  0.10764530
   0.38447765  0.11772871  0.10487775
   0.39597367  0.86465302  0.86808155
   0.63780076  0.60764530  0.37626422
   0.62796003  0.37319467  0.62996128
   0.38447765  0.60487775  0.61772871
   0.39597367  0.36808155  0.36465302
   0.75887715  0.74309132  0.74055198
   0.75887715  0.24055198  0.24309132
   0.26548014  0.74958237  0.24958237
   0.24770588  0.25374113  0.75374113
   0.01163403  0.01031446  0.96801909
   0.01163403  0.46801909  0.51031446
   0.53464885  0.97637384  0.47637384
   0.52494268  0.51354744  0.01354744
Direct configuration=     7
   0.97961470  0.30331258  0.32202141
   0.97961470  0.82202141  0.80331258
   0.01136454  0.23828502  0.73828502
   0.28619033  0.57678514  0.07678514
   0.18535468  0.18599983  0.97891484
   0.06855023  0.85029830  0.14382534
   0.82775286  0.16941444  0.02274432
   0.73955220  0.70207905  0.97143591
   0.33291398  0.97638533  0.28745437
   0.26914565  0.02022947  0.73818650
   0.67357749  0.96530462  0.70341517
   0.72286802  0.00952737  0.28484533
   0.33291398  0.78745437  0.47638533
   0.26914565  0.23818650  0.52022947
   0.72286802  0.78484533  0.50952737
   0.67357749  0.20341517  0.46530462
   0.18535468  0.47891484  0.68599983
   0.06855023  0.64382534  0.35029830
   0.73955220  0.47143591  0.20207905
   0.82775286  0.52274432  0.66941444
   0.47098724  0.32091877  0.82091877
   0.49314988  0.70308735  0.20308735
   0.53477398  0.29416432  0.17136507
   0.53477398  0.67136507  0.79416432
   0.51001755  0.48599490  0.49460724
   0.51001755  0.99460724  0.98599490
   0.01260544  0.49769859  0.99769859
   0.01169589  0.98573255  0.48573255
   0.13358435  0.86503147  0.60998364
   0.13358435  0.10998364  0.36503147
   0.90471902  0.85621821  0.35621821
   0.87243374  0.09841456  0.59841456
   0.90748955  0.62935711  0.12935711
   0.87445164  0.38434812  0.88434812
   0.13342555  0.62433918  0.87950943
   0.13342555  0.37950943  0.12433918
   0.62795807  0.12996184  0.87319529
   0.63780096  0.87626531  0.10764561
   0.38447747  0.11772902  0.10487845
   0.39597153  0.86465112  0.86808416
   0.63780096  0.60764561  0.37626531
   0.62795807  0.37319529  0.62996184
   0.38447747  0.60487845  0.61772902
   0.39597153  0.36808416  0.36465112
   0.75887735  0.74309138  0.74055242
   0.75887735  0.24055242  0.24309138
   0.26548021  0.74958236  0.24958236
   0.24770650  0.25373987  0.75373987
   0.01163118  0.01031226  0.96802000
   0.01163118  0.46802000  0.51031226
   0.53464430  0.97637631  0.47637631
   0.52494331  0.51354613  0.01354613
Direct configuration=     8
   0.97961539  0.30331301  0.32202070
   0.97961539  0.82202070  0.80331301
   0.01136476  0.23828434  0.73828434
   0.28618997  0.57678505  0.07678505
   0.18535488  0.18599796  0.97891366
   0.06855104  0.85029888  0.14382569
   0.82775226  0.16941415  0.02274441
   0.73955293  0.70207977  0.97143641
   0.33291412  0.97638549  0.28745496
   0.26915001  0.02022857  0.73818301
   0.67357753  0.96530478  0.70341624
   0.72286788  0.00952813  0.28484583
   0.33291412  0.78745496  0.47638549
   0.26915001  0.23818301  0.52022857
   0.72286788  0.78484583  0.50952813
   0.67357753  0.20341624  0.46530478
   0.18535488  0.47891366  0.68599796
   0.06855104  0.64382569  0.35029888
   0.73955293  0.47143641  0.20207977
   0.82775226  0.52274441  0.66941415
   0.47098603  0.32092028  0.82092028
   0.49315015  0.70308713  0.20308713
   0.53477367  0.29416507  0.17136549
   0.53477367  0.67136549  0.79416507
   0.51001606  0.48599482  0.49460648
   0.51001606  0.99460648  0.98599482
   0.01260771  0.49769792  0.99769792
   0.01169334  0.98573230  0.48573230
   0.13358385  0.86503150  0.60998346
   0.13358385  0.10998346  0.36503150
   0.90471842  0.85621821  0.35621821
   0.87243272  0.09841460  0.59841460
   0.90748990  0.62935752  0.12935752
   0.87445078  0.38434736  0.88434736
   0.13342516  0.62433754  0.87950890
   0.13342516  0.37950890  0.12433754
   0.62795754  0.12996259  0.87319502
   0.63780160  0.87626557  0.10764637
   0.38447749  0.11772933  0.10487908
   0.39597147  0.86465140  0.86808668
   0.63780160  0.60764637  0.37626557
   0.62795754  0.37319502  0.62996259
   0.38447749  0.60487908  0.61772933
   0.39597147  0.36808668  0.36465140
   0.75887722  0.74309153  0.74055282
   0.75887722  0.24055282  0.24309153
   0.26548060  0.74958246  0.24958246
   0.24770678  0.25373879  0.75373879
   0.01162991  0.01031153  0.96802035
   0.01162991  0.46802035  0.51031153
   0.53464245  0.97637717  0.47637717
   0.52494356  0.51354604  0.01354604
Direct configuration=     9
   0.97961745  0.30331430  0.32201858
   0.97961745  0.82201858  0.80331430
   0.01136541  0.23828229  0.73828229
   0.28618887  0.57678478  0.07678478
   0.18535547  0.18599234  0.97891010
   0.06855348  0.85030063  0.14382675
   0.82775047  0.16941330  0.02274467
   0.73955511  0.70208193  0.97143793
   0.33291456  0.97638598  0.28745674
   0.26916309  0.02022586  0.73817253
   0.67357767  0.96530525  0.70341945
   0.72286745  0.00953040  0.28484733
   0.33291456  0.78745674  0.47638598
   0.26916309  0.23817253  0.52022586
   0.72286745  0.78484733  0.50953040
   0.67357767  0.20341945  0.46530525
   0.18535547  0.47891010  0.68599234
   0.06855348  0.64382675  0.35030063
   0.73955511  0.47143793  0.20208193
   0.82775047  0.52274467  0.66941330
   0.47098241  0.32092481  0.82092481
   0.49315096  0.70308646  0.20308646
   0.53477273  0.29416732  0.17136673
   0.53477273  0.67136673  0.79416732
   0.51001160  0.48599460  0.49460421
   0.51001160  0.99460421  0.98599460
   0.01261452  0.49769591  0.99769591
   0.01168570  0.98573157  0.48573157
   0.13358235  0.86503162  0.60998293
   0.13358235  0.10998293  0.36503162
   0.90471662  0.85621822  0.35621822
   0.87242968  0.09841471  0.59841471
   0.90749095  0.62935872  0.12935872
   0.87444819  0.38434507  0.88434507
   0.13342399  0.62433261  0.87950733
   0.13342399  0.37950733  0.12433261
   0.62795595  0.12996484  0.87319424
   0.63780352  0.87626636  0.10764864
   0.38447755  0.11773028  0.10488099
   0.39597128  0.86465226  0.86809422
   0.63780352  0.60764864  0.37626636
   0.62795595  0.37319424  0.62996484
   0.38447755  0.60488099  0.61773028
   0.39597128  0.36809422  0.36465226
   0.75887682  0.74309199  0.74055402
   0.75887682  0.24055402  0.24309199
   0.26548175  0.74958277  0.24958277
   0.24770762  0.25373554  0.75373554
   0.01162608  0.01030934  0.96802141
   0.01162608  0.46802141  0.51030934
   0.53463691  0.97637974  0.47637974
   0.52494431  0.51354578  0.01354578
