  52  52   0  16
  0.1721495E+02  0.9637618E-09  0.9637618E-09  0.9637618E-09  0.2000000E-15
  1.000000000000000E-004
  CAR 
 unknown system                          
     12.72214553    -45.19642613  301      2.00720977      1.00000000
    -45.196  0.0000E+00  0.0000E+00  0.0000E+00  0.0000E+00
    -45.003  0.0000E+00  0.0000E+00  0.0000E+00  0.0000E+00
    -44.810  0.0000E+00  0.0000E+00  0.0000E+00  0.0000E+00
    -44.617  0.0000E+00  0.0000E+00  0.0000E+00  0.0000E+00
    -44.424  0.0000E+00  0.0000E+00  0.0000E+00  0.0000E+00
    -44.231  0.0000E+00  0.0000E+00  0.0000E+00  0.0000E+00
    -44.038  0.0000E+00  0.0000E+00  0.0000E+00  0.0000E+00
    -43.845  0.0000E+00  0.0000E+00  0.0000E+00  0.0000E+00
    -43.652  0.0000E+00  0.0000E+00  0.0000E+00  0.0000E+00
    -43.459  0.0000E+00  0.0000E+00  0.0000E+00  0.0000E+00
    -43.266  0.0000E+00  0.0000E+00  0.0000E+00  0.0000E+00
    -43.073  0.0000E+00  0.0000E+00  0.0000E+00  0.0000E+00
    -42.880  0.0000E+00  0.0000E+00  0.0000E+00  0.0000E+00
    -42.687  0.2169E-10  0.2169E-10  0.4188E-11  0.4188E-11
    -42.494  0.1691E-01  0.1691E-01  0.3265E-02  0.3265E-02
    -42.300  0.5888E-01  0.5888E-01  0.1464E-01  0.1464E-01
    -42.107  0.4839E-01  0.4839E-01  0.2399E-01  0.2399E-01
    -41.914  0.0000E+00  0.0000E+00  0.2400E-01  0.2400E-01
    -41.721  0.0000E+00  0.0000E+00  0.2400E-01  0.2400E-01
    -41.528  0.0000E+00  0.0000E+00  0.2400E-01  0.2400E-01
    -41.335  0.0000E+00  0.0000E+00  0.2400E-01  0.2400E-01
    -41.142  0.0000E+00  0.0000E+00  0.2400E-01  0.2400E-01
    -40.949  0.0000E+00  0.0000E+00  0.2400E-01  0.2400E-01
    -40.756  0.0000E+00  0.0000E+00  0.2400E-01  0.2400E-01
    -40.563  0.0000E+00  0.0000E+00  0.2400E-01  0.2400E-01
    -40.370  0.0000E+00  0.0000E+00  0.2400E-01  0.2400E-01
    -40.177  0.0000E+00  0.0000E+00  0.2400E-01  0.2400E-01
    -39.984  0.0000E+00  0.0000E+00  0.2400E-01  0.2400E-01
    -39.791  0.0000E+00  0.0000E+00  0.2400E-01  0.2400E-01
    -39.598  0.0000E+00  0.0000E+00  0.2400E-01  0.2400E-01
    -39.405  0.0000E+00  0.0000E+00  0.2400E-01  0.2400E-01
    -39.212  0.0000E+00  0.0000E+00  0.2400E-01  0.2400E-01
    -39.018  0.0000E+00  0.0000E+00  0.2400E-01  0.2400E-01
    -38.825  0.0000E+00  0.0000E+00  0.2400E-01  0.2400E-01
    -38.632  0.0000E+00  0.0000E+00  0.2400E-01  0.2400E-01
    -38.439  0.0000E+00  0.0000E+00  0.2400E-01  0.2400E-01
    -38.246  0.0000E+00  0.0000E+00  0.2400E-01  0.2400E-01
    -38.053  0.0000E+00  0.0000E+00  0.2400E-01  0.2400E-01
    -37.860  0.0000E+00  0.0000E+00  0.2400E-01  0.2400E-01
    -37.667  0.0000E+00  0.0000E+00  0.2400E-01  0.2400E-01
    -37.474  0.0000E+00  0.0000E+00  0.2400E-01  0.2400E-01
    -37.281  0.0000E+00  0.0000E+00  0.2400E-01  0.2400E-01
    -37.088  0.0000E+00  0.0000E+00  0.2400E-01  0.2400E-01
    -36.895  0.0000E+00  0.0000E+00  0.2400E-01  0.2400E-01
    -36.702  0.0000E+00  0.0000E+00  0.2400E-01  0.2400E-01
    -36.509  0.0000E+00  0.0000E+00  0.2400E-01  0.2400E-01
    -36.316  0.0000E+00  0.0000E+00  0.2400E-01  0.2400E-01
    -36.123  0.0000E+00  0.0000E+00  0.2400E-01  0.2400E-01
    -35.929  0.0000E+00  0.0000E+00  0.2400E-01  0.2400E-01
    -35.736  0.0000E+00  0.0000E+00  0.2400E-01  0.2400E-01
    -35.543  0.0000E+00  0.0000E+00  0.2400E-01  0.2400E-01
    -35.350  0.0000E+00  0.0000E+00  0.2400E-01  0.2400E-01
    -35.157  0.0000E+00  0.0000E+00  0.2400E-01  0.2400E-01
    -34.964  0.0000E+00  0.0000E+00  0.2400E-01  0.2400E-01
    -34.771  0.0000E+00  0.0000E+00  0.2400E-01  0.2400E-01
    -34.578  0.0000E+00  0.0000E+00  0.2400E-01  0.2400E-01
    -34.385  0.0000E+00  0.0000E+00  0.2400E-01  0.2400E-01
    -34.192  0.0000E+00  0.0000E+00  0.2400E-01  0.2400E-01
    -33.999  0.0000E+00  0.0000E+00  0.2400E-01  0.2400E-01
    -33.806  0.0000E+00  0.0000E+00  0.2400E-01  0.2400E-01
    -33.613  0.0000E+00  0.0000E+00  0.2400E-01  0.2400E-01
    -33.420  0.0000E+00  0.0000E+00  0.2400E-01  0.2400E-01
    -33.227  0.0000E+00  0.0000E+00  0.2400E-01  0.2400E-01
    -33.034  0.0000E+00  0.0000E+00  0.2400E-01  0.2400E-01
    -32.840  0.0000E+00  0.0000E+00  0.2400E-01  0.2400E-01
    -32.647  0.0000E+00  0.0000E+00  0.2400E-01  0.2400E-01
    -32.454  0.0000E+00  0.0000E+00  0.2400E-01  0.2400E-01
    -32.261  0.0000E+00  0.0000E+00  0.2400E-01  0.2400E-01
    -32.068  0.0000E+00  0.0000E+00  0.2400E-01  0.2400E-01
    -31.875  0.0000E+00  0.0000E+00  0.2400E-01  0.2400E-01
    -31.682  0.0000E+00  0.0000E+00  0.2400E-01  0.2400E-01
    -31.489  0.0000E+00  0.0000E+00  0.2400E-01  0.2400E-01
    -31.296  0.0000E+00  0.0000E+00  0.2400E-01  0.2400E-01
    -31.103  0.0000E+00  0.0000E+00  0.2400E-01  0.2400E-01
    -30.910  0.0000E+00  0.0000E+00  0.2400E-01  0.2400E-01
    -30.717  0.0000E+00  0.0000E+00  0.2400E-01  0.2400E-01
    -30.524  0.0000E+00  0.0000E+00  0.2400E-01  0.2400E-01
    -30.331  0.0000E+00  0.0000E+00  0.2400E-01  0.2400E-01
    -30.138  0.0000E+00  0.0000E+00  0.2400E-01  0.2400E-01
    -29.945  0.0000E+00  0.0000E+00  0.2400E-01  0.2400E-01
    -29.751  0.0000E+00  0.0000E+00  0.2400E-01  0.2400E-01
    -29.558  0.0000E+00  0.0000E+00  0.2400E-01  0.2400E-01
    -29.365  0.0000E+00  0.0000E+00  0.2400E-01  0.2400E-01
    -29.172  0.0000E+00  0.0000E+00  0.2400E-01  0.2400E-01
    -28.979  0.0000E+00  0.0000E+00  0.2400E-01  0.2400E-01
    -28.786  0.0000E+00  0.0000E+00  0.2400E-01  0.2400E-01
    -28.593  0.0000E+00  0.0000E+00  0.2400E-01  0.2400E-01
    -28.400  0.0000E+00  0.0000E+00  0.2400E-01  0.2400E-01
    -28.207  0.0000E+00  0.0000E+00  0.2400E-01  0.2400E-01
    -28.014  0.0000E+00  0.0000E+00  0.2400E-01  0.2400E-01
    -27.821  0.0000E+00  0.0000E+00  0.2400E-01  0.2400E-01
    -27.628  0.0000E+00  0.0000E+00  0.2400E-01  0.2400E-01
    -27.435  0.0000E+00  0.0000E+00  0.2400E-01  0.2400E-01
    -27.242  0.0000E+00  0.0000E+00  0.2400E-01  0.2400E-01
    -27.049  0.0000E+00  0.0000E+00  0.2400E-01  0.2400E-01
    -26.856  0.0000E+00  0.0000E+00  0.2400E-01  0.2400E-01
    -26.662  0.0000E+00  0.0000E+00  0.2400E-01  0.2400E-01
    -26.469  0.0000E+00  0.0000E+00  0.2400E-01  0.2400E-01
    -26.276  0.0000E+00  0.0000E+00  0.2400E-01  0.2400E-01
    -26.083  0.0000E+00  0.0000E+00  0.2400E-01  0.2400E-01
    -25.890  0.0000E+00  0.0000E+00  0.2400E-01  0.2400E-01
    -25.697  0.0000E+00  0.0000E+00  0.2400E-01  0.2400E-01
    -25.504  0.0000E+00  0.0000E+00  0.2400E-01  0.2400E-01
    -25.311  0.0000E+00  0.0000E+00  0.2400E-01  0.2400E-01
    -25.118  0.0000E+00  0.0000E+00  0.2400E-01  0.2400E-01
    -24.925  0.0000E+00  0.0000E+00  0.2400E-01  0.2400E-01
    -24.732  0.0000E+00  0.0000E+00  0.2400E-01  0.2400E-01
    -24.539  0.0000E+00  0.0000E+00  0.2400E-01  0.2400E-01
    -24.346  0.0000E+00  0.0000E+00  0.2400E-01  0.2400E-01
    -24.153  0.0000E+00  0.0000E+00  0.2400E-01  0.2400E-01
    -23.960  0.0000E+00  0.0000E+00  0.2400E-01  0.2400E-01
    -23.767  0.0000E+00  0.0000E+00  0.2400E-01  0.2400E-01
    -23.573  0.0000E+00  0.0000E+00  0.2400E-01  0.2400E-01
    -23.380  0.0000E+00  0.0000E+00  0.2400E-01  0.2400E-01
    -23.187  0.0000E+00  0.0000E+00  0.2400E-01  0.2400E-01
    -22.994  0.0000E+00  0.0000E+00  0.2400E-01  0.2400E-01
    -22.801  0.0000E+00  0.0000E+00  0.2400E-01  0.2400E-01
    -22.608  0.0000E+00  0.0000E+00  0.2400E-01  0.2400E-01
    -22.415  0.0000E+00  0.0000E+00  0.2400E-01  0.2400E-01
    -22.222  0.0000E+00  0.0000E+00  0.2400E-01  0.2400E-01
    -22.029  0.0000E+00  0.0000E+00  0.2400E-01  0.2400E-01
    -21.836  0.0000E+00  0.0000E+00  0.2400E-01  0.2400E-01
    -21.643  0.0000E+00  0.0000E+00  0.2400E-01  0.2400E-01
    -21.450  0.0000E+00  0.0000E+00  0.2400E-01  0.2400E-01
    -21.257  0.0000E+00  0.0000E+00  0.2400E-01  0.2400E-01
    -21.064  0.0000E+00  0.0000E+00  0.2400E-01  0.2400E-01
    -20.871  0.0000E+00  0.0000E+00  0.2400E-01  0.2400E-01
    -20.678  0.0000E+00  0.0000E+00  0.2400E-01  0.2400E-01
    -20.485  0.0000E+00  0.0000E+00  0.2400E-01  0.2400E-01
    -20.291  0.0000E+00  0.0000E+00  0.2400E-01  0.2400E-01
    -20.098  0.0000E+00  0.0000E+00  0.2400E-01  0.2400E-01
    -19.905  0.0000E+00  0.0000E+00  0.2400E-01  0.2400E-01
    -19.712  0.0000E+00  0.0000E+00  0.2400E-01  0.2400E-01
    -19.519  0.0000E+00  0.0000E+00  0.2400E-01  0.2400E-01
    -19.326  0.0000E+00  0.0000E+00  0.2400E-01  0.2400E-01
    -19.133  0.0000E+00  0.0000E+00  0.2400E-01  0.2400E-01
    -18.940  0.0000E+00  0.0000E+00  0.2400E-01  0.2400E-01
    -18.747  0.0000E+00  0.0000E+00  0.2400E-01  0.2400E-01
    -18.554  0.0000E+00  0.0000E+00  0.2400E-01  0.2400E-01
    -18.361  0.0000E+00  0.0000E+00  0.2400E-01  0.2400E-01
    -18.168  0.0000E+00  0.0000E+00  0.2400E-01  0.2400E-01
    -17.975  0.0000E+00  0.0000E+00  0.2400E-01  0.2400E-01
    -17.782  0.0000E+00  0.0000E+00  0.2400E-01  0.2400E-01
    -17.589  0.0000E+00  0.0000E+00  0.2400E-01  0.2400E-01
    -17.396  0.0000E+00  0.0000E+00  0.2400E-01  0.2400E-01
    -17.202  0.0000E+00  0.0000E+00  0.2400E-01  0.2400E-01
    -17.009  0.0000E+00  0.0000E+00  0.2400E-01  0.2400E-01
    -16.816  0.0000E+00  0.0000E+00  0.2400E-01  0.2400E-01
    -16.623  0.0000E+00  0.0000E+00  0.2400E-01  0.2400E-01
    -16.430  0.0000E+00  0.0000E+00  0.2400E-01  0.2400E-01
    -16.237  0.0000E+00  0.0000E+00  0.2400E-01  0.2400E-01
    -16.044  0.0000E+00  0.0000E+00  0.2400E-01  0.2400E-01
    -15.851  0.0000E+00  0.0000E+00  0.2400E-01  0.2400E-01
    -15.658  0.0000E+00  0.0000E+00  0.2400E-01  0.2400E-01
    -15.465  0.0000E+00  0.0000E+00  0.2400E-01  0.2400E-01
    -15.272  0.0000E+00  0.0000E+00  0.2400E-01  0.2400E-01
    -15.079  0.0000E+00  0.0000E+00  0.2400E-01  0.2400E-01
    -14.886  0.0000E+00  0.0000E+00  0.2400E-01  0.2400E-01
    -14.693  0.0000E+00  0.0000E+00  0.2400E-01  0.2400E-01
    -14.500  0.0000E+00  0.0000E+00  0.2400E-01  0.2400E-01
    -14.307  0.0000E+00  0.0000E+00  0.2400E-01  0.2400E-01
    -14.113  0.0000E+00  0.0000E+00  0.2400E-01  0.2400E-01
    -13.920  0.0000E+00  0.0000E+00  0.2400E-01  0.2400E-01
    -13.727  0.0000E+00  0.0000E+00  0.2400E-01  0.2400E-01
    -13.534  0.0000E+00  0.0000E+00  0.2400E-01  0.2400E-01
    -13.341  0.0000E+00  0.0000E+00  0.2400E-01  0.2400E-01
    -13.148  0.2875E-18  0.2875E-18  0.2400E-01  0.2400E-01
    -12.955  0.5329E-02  0.5329E-02  0.2503E-01  0.2503E-01
    -12.762  0.1539E-01  0.1539E-01  0.2800E-01  0.2800E-01
    -12.569  0.1219E-01  0.1219E-01  0.3035E-01  0.3035E-01
    -12.376  0.8514E-02  0.8514E-02  0.3200E-01  0.3200E-01
    -12.183  0.0000E+00  0.0000E+00  0.3200E-01  0.3200E-01
    -11.990  0.0000E+00  0.0000E+00  0.3200E-01  0.3200E-01
    -11.797  0.0000E+00  0.0000E+00  0.3200E-01  0.3200E-01
    -11.604  0.0000E+00  0.0000E+00  0.3200E-01  0.3200E-01
    -11.411  0.0000E+00  0.0000E+00  0.3200E-01  0.3200E-01
    -11.218  0.0000E+00  0.0000E+00  0.3200E-01  0.3200E-01
    -11.024  0.0000E+00  0.0000E+00  0.3200E-01  0.3200E-01
    -10.831  0.0000E+00  0.0000E+00  0.3200E-01  0.3200E-01
    -10.638  0.0000E+00  0.0000E+00  0.3200E-01  0.3200E-01
    -10.445  0.0000E+00  0.0000E+00  0.3200E-01  0.3200E-01
    -10.252  0.1860E-03  0.1860E-03  0.3204E-01  0.3204E-01
    -10.059  0.1701E-01  0.1701E-01  0.3532E-01  0.3532E-01
     -9.866  0.2972E-01  0.2972E-01  0.4106E-01  0.4106E-01
     -9.673  0.1523E-01  0.1523E-01  0.4400E-01  0.4400E-01
     -9.480  0.0000E+00  0.0000E+00  0.4400E-01  0.4400E-01
     -9.287  0.0000E+00  0.0000E+00  0.4400E-01  0.4400E-01
     -9.094  0.0000E+00  0.0000E+00  0.4400E-01  0.4400E-01
     -8.901  0.0000E+00  0.0000E+00  0.4400E-01  0.4400E-01
     -8.708  0.0000E+00  0.0000E+00  0.4400E-01  0.4400E-01
     -8.515  0.0000E+00  0.0000E+00  0.4400E-01  0.4400E-01
     -8.322  0.4973E-02  0.4973E-02  0.4496E-01  0.4496E-01
     -8.129  0.1572E-01  0.1572E-01  0.4799E-01  0.4799E-01
     -7.935  0.0000E+00  0.0000E+00  0.4800E-01  0.4800E-01
     -7.742  0.0000E+00  0.0000E+00  0.4800E-01  0.4800E-01
     -7.549  0.0000E+00  0.0000E+00  0.4800E-01  0.4800E-01
     -7.356  0.0000E+00  0.0000E+00  0.4800E-01  0.4800E-01
     -7.163  0.0000E+00  0.0000E+00  0.4800E-01  0.4800E-01
     -6.970  0.0000E+00  0.0000E+00  0.4800E-01  0.4800E-01
     -6.777  0.0000E+00  0.0000E+00  0.4800E-01  0.4800E-01
     -6.584  0.0000E+00  0.0000E+00  0.4800E-01  0.4800E-01
     -6.391  0.0000E+00  0.0000E+00  0.4800E-01  0.4800E-01
     -6.198  0.2414E-14  0.2414E-14  0.4800E-01  0.4800E-01
     -6.005  0.5044E-02  0.5044E-02  0.4897E-01  0.4897E-01
     -5.812  0.1355E-03  0.1355E-03  0.4900E-01  0.4900E-01
     -5.619  0.3665E-02  0.3665E-02  0.4971E-01  0.4971E-01
     -5.426  0.1187E-01  0.1187E-01  0.5200E-01  0.5200E-01
     -5.233  0.0000E+00  0.0000E+00  0.5200E-01  0.5200E-01
     -5.040  0.0000E+00  0.0000E+00  0.5200E-01  0.5200E-01
     -4.846  0.0000E+00  0.0000E+00  0.5200E-01  0.5200E-01
     -4.653  0.0000E+00  0.0000E+00  0.5200E-01  0.5200E-01
     -4.460  0.0000E+00  0.0000E+00  0.5200E-01  0.5200E-01
     -4.267  0.0000E+00  0.0000E+00  0.5200E-01  0.5200E-01
     -4.074  0.0000E+00  0.0000E+00  0.5200E-01  0.5200E-01
     -3.881  0.0000E+00  0.0000E+00  0.5200E-01  0.5200E-01
     -3.688  0.0000E+00  0.0000E+00  0.5200E-01  0.5200E-01
     -3.495  0.0000E+00  0.0000E+00  0.5200E-01  0.5200E-01
     -3.302  0.1057E-12  0.1057E-12  0.5200E-01  0.5200E-01
     -3.109  0.1154E-01  0.1154E-01  0.5423E-01  0.5423E-01
     -2.916  0.3993E-02  0.3993E-02  0.5500E-01  0.5500E-01
     -2.723  0.5172E-02  0.5172E-02  0.5600E-01  0.5600E-01
     -2.530  0.1059E-01  0.1059E-01  0.5804E-01  0.5804E-01
     -2.337  0.1356E-01  0.1356E-01  0.6066E-01  0.6066E-01
     -2.144  0.1720E-01  0.1720E-01  0.6398E-01  0.6398E-01
     -1.951  0.7824E-04  0.7824E-04  0.6400E-01  0.6400E-01
     -1.757  0.0000E+00  0.0000E+00  0.6400E-01  0.6400E-01
     -1.564  0.5182E-03  0.5182E-03  0.6410E-01  0.6410E-01
     -1.371  0.2304E-01  0.2304E-01  0.6855E-01  0.6855E-01
     -1.178  0.1707E-01  0.1707E-01  0.7184E-01  0.7184E-01
     -0.985  0.2139E-01  0.2139E-01  0.7597E-01  0.7597E-01
     -0.792  0.1291E-03  0.1291E-03  0.7600E-01  0.7600E-01
     -0.599  0.9597E-06  0.9597E-06  0.7600E-01  0.7600E-01
     -0.406  0.1437E-01  0.1437E-01  0.7878E-01  0.7878E-01
     -0.213  0.1118E-01  0.1118E-01  0.8093E-01  0.8093E-01
     -0.020  0.1424E-01  0.1424E-01  0.8369E-01  0.8369E-01
      0.173  0.2646E-01  0.2646E-01  0.8880E-01  0.8880E-01
      0.366  0.2415E-01  0.2415E-01  0.9346E-01  0.9346E-01
      0.559  0.1313E-01  0.1313E-01  0.9600E-01  0.9600E-01
      0.752  0.1289E-02  0.1289E-02  0.9625E-01  0.9625E-01
      0.945  0.1661E-01  0.1661E-01  0.9946E-01  0.9946E-01
      1.138  0.1998E-01  0.1998E-01  0.1033E+00  0.1033E+00
      1.331  0.1998E-01  0.1998E-01  0.1072E+00  0.1072E+00
      1.525  0.2889E-01  0.2889E-01  0.1128E+00  0.1128E+00
      1.718  0.2561E-01  0.2561E-01  0.1177E+00  0.1177E+00
      1.911  0.1182E-01  0.1182E-01  0.1200E+00  0.1200E+00
      2.104  0.3626E-04  0.3626E-04  0.1200E+00  0.1200E+00
      2.297  0.0000E+00  0.0000E+00  0.1200E+00  0.1200E+00
      2.490  0.0000E+00  0.0000E+00  0.1200E+00  0.1200E+00
      2.683  0.0000E+00  0.0000E+00  0.1200E+00  0.1200E+00
      2.876  0.0000E+00  0.0000E+00  0.1200E+00  0.1200E+00
      3.069  0.0000E+00  0.0000E+00  0.1200E+00  0.1200E+00
      3.262  0.0000E+00  0.0000E+00  0.1200E+00  0.1200E+00
      3.455  0.0000E+00  0.0000E+00  0.1200E+00  0.1200E+00
      3.648  0.0000E+00  0.0000E+00  0.1200E+00  0.1200E+00
      3.841  0.0000E+00  0.0000E+00  0.1200E+00  0.1200E+00
      4.034  0.0000E+00  0.0000E+00  0.1200E+00  0.1200E+00
      4.227  0.0000E+00  0.0000E+00  0.1200E+00  0.1200E+00
      4.420  0.5289E-08  0.5289E-08  0.1200E+00  0.1200E+00
      4.614  0.5179E-02  0.5179E-02  0.1210E+00  0.1210E+00
      4.807  0.0000E+00  0.0000E+00  0.1210E+00  0.1210E+00
      5.000  0.0000E+00  0.0000E+00  0.1210E+00  0.1210E+00
      5.193  0.2515E-08  0.2515E-08  0.1210E+00  0.1210E+00
      5.386  0.8811E-02  0.8811E-02  0.1227E+00  0.1227E+00
      5.579  0.6726E-02  0.6726E-02  0.1240E+00  0.1240E+00
      5.772  0.1006E-17  0.1006E-17  0.1240E+00  0.1240E+00
      5.965  0.3324E-02  0.3324E-02  0.1246E+00  0.1246E+00
      6.158  0.1400E-01  0.1400E-01  0.1273E+00  0.1273E+00
      6.351  0.1368E-01  0.1368E-01  0.1300E+00  0.1300E+00
      6.544  0.1264E-02  0.1264E-02  0.1302E+00  0.1302E+00
      6.737  0.1404E-01  0.1404E-01  0.1329E+00  0.1329E+00
      6.930  0.9559E-02  0.9559E-02  0.1348E+00  0.1348E+00
      7.123  0.6280E-02  0.6280E-02  0.1360E+00  0.1360E+00
      7.316  0.5167E-02  0.5167E-02  0.1370E+00  0.1370E+00
      7.509  0.6927E-02  0.6927E-02  0.1383E+00  0.1383E+00
      7.703  0.1006E-01  0.1006E-01  0.1403E+00  0.1403E+00
      7.896  0.1085E-01  0.1085E-01  0.1424E+00  0.1424E+00
      8.089  0.1180E-01  0.1180E-01  0.1447E+00  0.1447E+00
      8.282  0.1410E-01  0.1410E-01  0.1474E+00  0.1474E+00
      8.475  0.1715E-01  0.1715E-01  0.1507E+00  0.1507E+00
      8.668  0.1282E-01  0.1282E-01  0.1532E+00  0.1532E+00
      8.861  0.1400E-01  0.1400E-01  0.1559E+00  0.1559E+00
      9.054  0.1950E-01  0.1950E-01  0.1596E+00  0.1596E+00
      9.247  0.1740E-01  0.1740E-01  0.1630E+00  0.1630E+00
      9.440  0.1822E-01  0.1822E-01  0.1665E+00  0.1665E+00
      9.633  0.1703E-01  0.1697E-01  0.1698E+00  0.1698E+00
      9.826  0.1742E-01  0.1755E-01  0.1732E+00  0.1732E+00
     10.019  0.1268E-01  0.1310E-01  0.1756E+00  0.1757E+00
     10.212  0.1935E-02  0.1442E-02  0.1760E+00  0.1760E+00
     10.405  0.0000E+00  0.0000E+00  0.1760E+00  0.1760E+00
     10.598  0.0000E+00  0.0000E+00  0.1760E+00  0.1760E+00
     10.792  0.0000E+00  0.0000E+00  0.1760E+00  0.1760E+00
     10.985  0.0000E+00  0.0000E+00  0.1760E+00  0.1760E+00
     11.178  0.0000E+00  0.0000E+00  0.1760E+00  0.1760E+00
     11.371  0.0000E+00  0.0000E+00  0.1760E+00  0.1760E+00
     11.564  0.0000E+00  0.0000E+00  0.1760E+00  0.1760E+00
     11.757  0.0000E+00  0.0000E+00  0.1760E+00  0.1760E+00
     11.950  0.0000E+00  0.0000E+00  0.1760E+00  0.1760E+00
     12.143  0.0000E+00  0.0000E+00  0.1760E+00  0.1760E+00
     12.336  0.0000E+00  0.0000E+00  0.1760E+00  0.1760E+00
     12.529  0.0000E+00  0.0000E+00  0.1760E+00  0.1760E+00
     12.722  0.0000E+00  0.0000E+00  0.1760E+00  0.1760E+00
