 vasp.6.4.1 05Apr23 (build Jun 07 2023 15:38:11) complex                        
  
 executed on             LinuxIFC date 2023.10.24  22:54:24
 running  128 mpi-ranks, with    1 threads/rank, on    1 nodes
 distrk:  each k-point on  128 cores,    1 groups
 distr:  one band on NCORE=  32 cores,    4 groups


--------------------------------------------------------------------------------------------------------


 INCAR:
   GGA = PE
   PREC = Accu
   EDIFF = 1.e-6
   EDIFFG = -1.e-3
   ENCUT = 520.
   NELM = 100
   NELMDL = -10
   LASPH = .TRUE.
   LREAL = Auto
   LMAXMIX = 4
   ISPIN = 2
   LDIAG = .TRUE.
   LPLANE = .TRUE.
   IVDW = 12
   SIGMA = 0.03
   ISMEAR = 0
   NSW = 1000    number of steps for IOM
   IBRION = 2    ionic relax: 0-MD 1-quasi-New 2-CG
   ISIF = 2    ionic relaxation + stress tensor calcn.
   LCHARG = .FALSE.
   LWAVE = .FALSE.
   ALGO = F
   KPAR = 1
   NPAR = 4
   POTIM = 0.2

 POTCAR:    PAW_PBE Li_sv_GW 25Mar2010            
 POTCAR:    PAW_PBE P_GW 19Mar2012                
 POTCAR:    PAW_PBE S_GW 19Mar2012                
 POTCAR:    PAW_PBE Cl_GW 19Mar2012               
 -----------------------------------------------------------------------------
|                                                                             |
|           W    W    AA    RRRRR   N    N  II  N    N   GGGG   !!!           |
|           W    W   A  A   R    R  NN   N  II  NN   N  G    G  !!!           |
|           W    W  A    A  R    R  N N  N  II  N N  N  G       !!!           |
|           W WW W  AAAAAA  RRRRR   N  N N  II  N  N N  G  GGG   !            |
|           WW  WW  A    A  R   R   N   NN  II  N   NN  G    G                |
|           W    W  A    A  R    R  N    N  II  N    N   GGGG   !!!           |
|                                                                             |
|     You use a magnetic or noncollinear calculation, but did not specify     |
|     the initial magnetic moment with the MAGMOM tag. Note that a            |
|     default of 1 will be used for all atoms. This ferromagnetic setup       |
|     may break the symmetry of the crystal, in particular it may rule        |
|     out finding an antiferromagnetic solution. Thence, we recommend         |
|     setting the initial magnetic moment manually or verifying carefully     |
|     that this magnetic setup is desired.                                    |
|                                                                             |
 -----------------------------------------------------------------------------

 POTCAR:    PAW_PBE Li_sv_GW 25Mar2010            
   SHA256 =  24a6ace15a582615486b36ce4dc781b048409f4015b7684ed1273ae395fa2fdc Li_sv_GW/POTCAR       
   COPYR  = (c) Copyright 25Mar2010 Georg Kresse                                                    
   COPYR  = This file is part of the software VASP. Any use, copying, and all other rights are regul
   COPYR  = If you do not have a valid VASP license, you may not use, copy or distribute this file. 
   VRHFIN =Li: 1s2s                                                                                 
   LEXCH  = PE                                                                                      
   EATOM  =   200.9989 eV,   14.7730 Ry                                                             
                                                                                                    
   TITEL  = PAW_PBE Li_sv_GW 25Mar2010                                                              
   LULTRA =        F    use ultrasoft PP ?                                                          
   IUNSCR =        0    unscreen: 0-lin 1-nonlin 2-no                                               
   RPACOR =    0.000    partial core radius                                                         
   POMASS =    7.010; ZVAL   =    3.000    mass and valenz                                          
   RCORE  =    1.500    outmost cutoff radius                                                       
   RWIGS  =    1.600; RWIGS  =    0.847    wigner-seitz radius (au A)                               
   ENMAX  =  433.699; ENMIN  =  325.274 eV                                                          
   RCLOC  =    1.003    cutoff for local pot                                                        
   LCOR   =        T    correct aug charges                                                         
   LPAW   =        T    paw PP                                                                      
   EAUG   = 1041.699                                                                                
   RMAX   =    1.536    core radius for proj-oper                                                   
   RAUG   =    1.300    factor for augmentation sphere                                              
   RDEP   =    1.520    radius for radial grids                                                     
   RDEPT  =    1.300    core radius for aug-charge                                                  
                                                                                                    
   Atomic configuration                                                                             
    4 entries                                                                                       
     n  l   j            E        occ.                                                              
     1  0  0.50       -53.3604   2.0000                                                             
     1  0  0.50       -52.0001   0.0000                                                             
     2  1  0.50        -1.5636   1.0000                                                             
     3  2  1.50        -1.3606   0.0000                                                             
   Description                                                                                      
     l       E           TYP  RCUT    TYP  RCUT                                                     
     0    -53.3603633     23  1.200                                                                 
     0    -52.0001064     23  1.200                                                                 
     0    176.8757380     23  1.300                                                                 
     1     -1.5635925     23  1.500                                                                 
     1    108.8466080     23  1.500                                                                 
     2     81.6349560     23  1.500                                                                 
  local pseudopotential read in
  kinetic energy density of atom read in
  atomic valenz-charges read in
  non local Contribution for L=           0  read in
    real space projection operators read in
  non local Contribution for L=           0  read in
    real space projection operators read in
  non local Contribution for L=           0  read in
    real space projection operators read in
  non local Contribution for L=           1  read in
    real space projection operators read in
  non local Contribution for L=           1  read in
    real space projection operators read in
  non local Contribution for L=           2  read in
    real space projection operators read in
    PAW grid and wavefunctions read in
 
   number of l-projection  operators is LMAX  =           6
   number of lm-projection operators is LMMAX =          14
 
 POTCAR:    PAW_PBE P_GW 19Mar2012                
   SHA256 =  715c28f2291d37b61637ce89646c59f66f71c8b8d8bfba631e5feb9f7b42defe P_GW/POTCAR           
   COPYR  = (c) Copyright 19Mar2012 Georg Kresse                                                    
   COPYR  = This file is part of the software VASP. Any use, copying, and all other rights are regul
   COPYR  = If you do not have a valid VASP license, you may not use, copy or distribute this file. 
   VRHFIN =P : s2p3                                                                                 
   LEXCH  = PE                                                                                      
   EATOM  =   176.0430 eV,   12.9388 Ry                                                             
                                                                                                    
   TITEL  = PAW_PBE P_GW 19Mar2012                                                                  
   LULTRA =        F    use ultrasoft PP ?                                                          
   IUNSCR =        1    unscreen: 0-lin 1-nonlin 2-no                                               
   RPACOR =    1.400    partial core radius                                                         
   POMASS =   30.974; ZVAL   =    5.000    mass and valenz                                          
   RCORE  =    2.000    outmost cutoff radius                                                       
   RWIGS  =    1.900; RWIGS  =    1.005    wigner-seitz radius (au A)                               
   ENMAX  =  255.040; ENMIN  =  191.280 eV                                                          
   ICORE  =        3    local potential                                                             
   LCOR   =        T    correct aug charges                                                         
   LPAW   =        T    paw PP                                                                      
   EAUG   =  499.732                                                                                
   DEXC   =    0.000                                                                                
   RMAX   =    2.047    core radius for proj-oper                                                   
   RAUG   =    1.300    factor for augmentation sphere                                              
   RDEP   =    2.059    radius for radial grids                                                     
   RDEPT  =    1.900    core radius for aug-charge                                                  
                                                                                                    
   Atomic configuration                                                                             
    7 entries                                                                                       
     n  l   j            E        occ.                                                              
     1  0  0.50     -2084.0982   2.0000                                                             
     2  0  0.50      -173.9859   2.0000                                                             
     2  1  1.50      -124.4865   6.0000                                                             
     3  0  0.50       -13.9692   2.0000                                                             
     3  1  0.50        -5.5067   3.0000                                                             
     3  2  1.50        -6.8029   0.0000                                                             
     4  3  2.50        -1.3606   0.0000                                                             
   Description                                                                                      
     l       E           TYP  RCUT    TYP  RCUT                                                     
     0    -13.9691528     23  1.900                                                                 
     0    102.0436950     23  1.900                                                                 
     1     -5.5066939     23  1.900                                                                 
     1    102.0436950     23  1.900                                                                 
     2     -8.1634956     23  2.000                                                                 
     2     81.6349560     23  2.000                                                                 
     3     27.2116520     23  2.000                                                                 
  local pseudopotential read in
  partial core-charges read in
  partial kinetic energy density read in
  kinetic energy density of atom read in
  atomic valenz-charges read in
  non local Contribution for L=           0  read in
    real space projection operators read in
  non local Contribution for L=           0  read in
    real space projection operators read in
  non local Contribution for L=           1  read in
    real space projection operators read in
  non local Contribution for L=           1  read in
    real space projection operators read in
  non local Contribution for L=           2  read in
    real space projection operators read in
  non local Contribution for L=           2  read in
    real space projection operators read in
    PAW grid and wavefunctions read in
 
   number of l-projection  operators is LMAX  =           6
   number of lm-projection operators is LMMAX =          18
 
 POTCAR:    PAW_PBE S_GW 19Mar2012                
   SHA256 =  357db9cfb0783579b2eebe03197c2d807131fea8ea663b1fcfb6ce2fa75af011 S_GW/POTCAR           
   COPYR  = (c) Copyright 19Mar2012 Georg Kresse                                                    
   COPYR  = This file is part of the software VASP. Any use, copying, and all other rights are regul
   COPYR  = If you do not have a valid VASP license, you may not use, copy or distribute this file. 
   VRHFIN =S : s2p4                                                                                 
   LEXCH  = PE                                                                                      
   EATOM  =   276.8230 eV,   20.3459 Ry                                                             
                                                                                                    
   TITEL  = PAW_PBE S_GW 19Mar2012                                                                  
   LULTRA =        F    use ultrasoft PP ?                                                          
   IUNSCR =        1    unscreen: 0-lin 1-nonlin 2-no                                               
   RPACOR =    1.400    partial core radius                                                         
   POMASS =   32.066; ZVAL   =    6.000    mass and valenz                                          
   RCORE  =    1.900    outmost cutoff radius                                                       
   RWIGS  =    1.900; RWIGS  =    1.005    wigner-seitz radius (au A)                               
   ENMAX  =  258.689; ENMIN  =  194.016 eV                                                          
   ICORE  =        3    local potential                                                             
   LCOR   =        T    correct aug charges                                                         
   LPAW   =        T    paw PP                                                                      
   EAUG   =  488.319                                                                                
   DEXC   =    0.000                                                                                
   RMAX   =    1.942    core radius for proj-oper                                                   
   RAUG   =    1.300    factor for augmentation sphere                                              
   RDEP   =    1.954    radius for radial grids                                                     
   RDEPT  =    1.900    core radius for aug-charge                                                  
                                                                                                    
   Atomic configuration                                                                             
    7 entries                                                                                       
     n  l   j            E        occ.                                                              
     1  0  0.50     -2405.8406   2.0000                                                             
     2  0  0.50      -211.7007   2.0000                                                             
     2  1  1.50      -156.4958   6.0000                                                             
     3  0  0.50       -17.2562   2.0000                                                             
     3  1  0.50        -7.0085   4.0000                                                             
     3  2  1.50        -8.1635   0.0000                                                             
     4  3  2.50        -1.3606   0.0000                                                             
   Description                                                                                      
     l       E           TYP  RCUT    TYP  RCUT                                                     
     0    -17.2561639     23  1.700                                                                 
     0     88.4378690     23  1.900                                                                 
     1     -7.0085399     23  1.900                                                                 
     1     88.4378690     23  1.900                                                                 
     2    -10.8846608     23  1.900                                                                 
     2     54.4233040     23  1.900                                                                 
     3     27.2116520     23  1.800                                                                 
  local pseudopotential read in
  partial core-charges read in
  partial kinetic energy density read in
  kinetic energy density of atom read in
  atomic valenz-charges read in
  non local Contribution for L=           0  read in
    real space projection operators read in
  non local Contribution for L=           0  read in
    real space projection operators read in
  non local Contribution for L=           1  read in
    real space projection operators read in
  non local Contribution for L=           1  read in
    real space projection operators read in
  non local Contribution for L=           2  read in
    real space projection operators read in
  non local Contribution for L=           2  read in
    real space projection operators read in
    PAW grid and wavefunctions read in
 
   number of l-projection  operators is LMAX  =           6
   number of lm-projection operators is LMMAX =          18
 
 POTCAR:    PAW_PBE Cl_GW 19Mar2012               
   SHA256 =  3ef3b3169d6a9a89979f58b4cf17d927a58518fc660d8883d88cacaee8175441 Cl_GW/POTCAR          
   COPYR  = (c) Copyright 19Mar2012 Georg Kresse                                                    
   COPYR  = This file is part of the software VASP. Any use, copying, and all other rights are regul
   COPYR  = If you do not have a valid VASP license, you may not use, copy or distribute this file. 
   VRHFIN =Cl: s2p5                                                                                 
   LEXCH  = PE                                                                                      
   EATOM  =   409.7259 eV,   30.1140 Ry                                                             
                                                                                                    
   TITEL  = PAW_PBE Cl_GW 19Mar2012                                                                 
   LULTRA =        F    use ultrasoft PP ?                                                          
   IUNSCR =        1    unscreen: 0-lin 1-nonlin 2-no                                               
   RPACOR =    1.400    partial core radius                                                         
   POMASS =   35.453; ZVAL   =    7.000    mass and valenz                                          
   RCORE  =    1.900    outmost cutoff radius                                                       
   RWIGS  =    1.900; RWIGS  =    1.005    wigner-seitz radius (au A)                               
   ENMAX  =  262.472; ENMIN  =  196.854 eV                                                          
   ICORE  =        3    local potential                                                             
   LCOR   =        T    correct aug charges                                                         
   LPAW   =        T    paw PP                                                                      
   EAUG   =  456.703                                                                                
   DEXC   =    0.000                                                                                
   RMAX   =    1.945    core radius for proj-oper                                                   
   RAUG   =    1.300    factor for augmentation sphere                                              
   RDEP   =    2.020    radius for radial grids                                                     
   RDEPT  =    1.900    core radius for aug-charge                                                  
                                                                                                    
   Atomic configuration                                                                             
    7 entries                                                                                       
     n  l   j            E        occ.                                                              
     1  0  0.50     -2751.1850   2.0000                                                             
     2  0  0.50      -252.6861   2.0000                                                             
     2  1  1.50      -191.6157   6.0000                                                             
     3  0  0.50       -20.6916   2.0000                                                             
     3  1  0.50        -8.5949   5.0000                                                             
     3  2  1.50        -9.5241   0.0000                                                             
     4  3  2.50        -9.5241   0.0000                                                             
   Description                                                                                      
     l       E           TYP  RCUT    TYP  RCUT                                                     
     0    -20.6915657     23  1.700                                                                 
     0     95.2407820     23  1.800                                                                 
     1     -8.5948577     23  1.900                                                                 
     1     95.2407820     23  1.900                                                                 
     2    -10.8846608     23  1.900                                                                 
     2     54.4233040     23  1.900                                                                 
     3     27.2116520     23  1.900                                                                 
  local pseudopotential read in
  partial core-charges read in
  partial kinetic energy density read in
  kinetic energy density of atom read in
  atomic valenz-charges read in
  non local Contribution for L=           0  read in
    real space projection operators read in
  non local Contribution for L=           0  read in
    real space projection operators read in
  non local Contribution for L=           1  read in
    real space projection operators read in
  non local Contribution for L=           1  read in
    real space projection operators read in
  non local Contribution for L=           2  read in
    real space projection operators read in
  non local Contribution for L=           2  read in
    real space projection operators read in
    PAW grid and wavefunctions read in
 
   number of l-projection  operators is LMAX  =           6
   number of lm-projection operators is LMMAX =          18
 
 Optimization of the real space projectors (new method)

 maximal supplied QI-value         = 25.13
 optimisation between [QCUT,QGAM] = [ 11.56, 23.12] = [ 37.43,149.72] Ry 
 Optimized for a Real-space Cutoff    1.28 Angstroem

   l    n(q)    QCUT    max X(q) W(low)/X(q) W(high)/X(q)  e(spline) 
   0      9    11.561    87.733    0.11E-03    0.32E-04    0.56E-06
   0      9    11.561    82.800    0.11E-03    0.35E-04    0.56E-06
   0      9    11.561     2.509    0.22E-03    0.42E-04    0.79E-06
   1      8    11.561    12.580    0.94E-04    0.26E-03    0.21E-06
   1      8    11.561     1.319    0.33E-04    0.15E-03    0.19E-06
   2      8    11.561     1.993    0.36E-04    0.89E-04    0.26E-06
 Optimization of the real space projectors (new method)

 maximal supplied QI-value         = 18.90
 optimisation between [QCUT,QGAM] = [ 11.53, 23.24] = [ 37.21,151.29] Ry 
 Optimized for a Real-space Cutoff    1.21 Angstroem

   l    n(q)    QCUT    max X(q) W(low)/X(q) W(high)/X(q)  e(spline) 
   0      8    11.527     8.355    0.73E-04    0.70E-04    0.26E-07
   0      8    11.527     1.401    0.17E-03    0.17E-03    0.63E-07
   1      8    11.527     4.747    0.13E-03    0.17E-03    0.11E-06
   1      8    11.527     2.025    0.16E-03    0.18E-03    0.12E-06
   2      7    11.527     3.169    0.51E-04    0.25E-03    0.60E-07
   2      7    11.527     3.441    0.82E-04    0.22E-03    0.14E-06
 Optimization of the real space projectors (new method)

 maximal supplied QI-value         = 19.84
 optimisation between [QCUT,QGAM] = [ 11.51, 23.22] = [ 37.09,150.92] Ry 
 Optimized for a Real-space Cutoff    1.49 Angstroem

   l    n(q)    QCUT    max X(q) W(low)/X(q) W(high)/X(q)  e(spline) 
   0     10    11.508     7.541    0.34E-04    0.13E-04    0.69E-07
   0     10    11.508     1.809    0.49E-04    0.27E-04    0.14E-06
   1     10    11.508     4.107    0.27E-05    0.41E-05    0.14E-06
   1     10    11.508     2.196    0.26E-05    0.25E-05    0.22E-06
   2      9    11.508     4.265    0.18E-03    0.11E-03    0.81E-06
   2      9    11.508     1.925    0.97E-04    0.76E-04    0.47E-06
 Optimization of the real space projectors (new method)

 maximal supplied QI-value         = 19.84
 optimisation between [QCUT,QGAM] = [ 11.51, 23.22] = [ 37.09,150.92] Ry 
 Optimized for a Real-space Cutoff    1.21 Angstroem

   l    n(q)    QCUT    max X(q) W(low)/X(q) W(high)/X(q)  e(spline) 
   0      8    11.508     6.761    0.57E-04    0.57E-04    0.35E-07
   0      8    11.508     1.642    0.14E-03    0.14E-03    0.91E-07
   1      8    11.508     3.519    0.20E-04    0.72E-04    0.47E-07
   1      8    11.508     2.150    0.27E-04    0.11E-03    0.89E-07
   2      7    11.508     2.976    0.19E-03    0.33E-03    0.16E-06
   2      7    11.508     1.494    0.14E-03    0.29E-03    0.14E-06
  PAW_PBE Li_sv_GW 25Mar2010            :
 energy of atom  1       EATOM= -200.9989
 kinetic energy error for atom=    0.0127 (will be added to EATOM!!)
  PAW_PBE P_GW 19Mar2012                :
 energy of atom  2       EATOM= -176.0430
 kinetic energy error for atom=    0.0011 (will be added to EATOM!!)
  PAW_PBE S_GW 19Mar2012                :
 energy of atom  3       EATOM= -276.8230
 kinetic energy error for atom=    0.0024 (will be added to EATOM!!)
  PAW_PBE Cl_GW 19Mar2012               :
 energy of atom  4       EATOM= -409.7259
 kinetic energy error for atom=    0.0030 (will be added to EATOM!!)
 
 
 POSCAR: Li24 P4 S20 Cl4
  positions in direct lattice
  velocities in cartesian coordinates
 exchange correlation table for  LEXCH =        8
   RHO(1)=    0.500       N(1)  =     2000
   RHO(2)=  100.500       N(2)  =     4000

 VTST: version 4.1, (05/19/21)

 CHAIN: initializing optimizer
 
 OPT: Using VASP Conjugate-Gradient optimizer
 CHAIN: Read ICHAIN            0
 
 POSCAR: Li24 P4 S20 Cl4
  positions in direct lattice
  velocities in cartesian coordinates
 


--------------------------------------------------------------------------------------------------------


 ion  position               nearest neighbor table
   1  0.986  0.343  0.283-
   2  0.964  0.687  0.663-
   3  0.031  0.319  0.710-
   4  0.024  0.823  0.210-
   5  0.352  0.288  0.960-
   6  0.214  0.809  0.006-
   7  0.840  0.172  0.041-
   8  0.824  0.772  0.980-
   9  0.300  0.976  0.330-
  10  0.162  0.043  0.806-
  11  0.797  0.971  0.792-
  12  0.721  0.017  0.296-
  13  0.193  0.668  0.452-
  14  0.215  0.291  0.507-
  15  0.666  0.800  0.541-
  16  0.800  0.316  0.485-
  17  0.307  0.486  0.772-
  18  0.321  0.541  0.161-
  19  0.689  0.463  0.161-
  20  0.698  0.504  0.801-
  21  0.468  0.136  0.682-
  22  0.487  0.776  0.288-
  23  0.531  0.213  0.313-
  24  0.519  0.714  0.824-
  25  0.507  0.502  0.493-  41 2.05  42 2.05  44 2.06  43 2.06
  26  0.510  0.005  0.002-  39 2.04  37 2.05  38 2.06  40 2.07
  27  0.016  0.496  0.997-  36 2.04  35 2.05  34 2.06  33 2.06
  28  0.003  0.000  0.500-  29 2.05  30 2.05  32 2.05  31 2.06
  29  0.137  0.878  0.612-  28 2.05
  30  0.106  0.121  0.359-  28 2.05
  31  0.875  0.860  0.401-  28 2.06
  32  0.889  0.126  0.629-  28 2.05
  33  0.903  0.606  0.142-  27 2.06
  34  0.880  0.371  0.892-  27 2.06
  35  0.119  0.625  0.862-  27 2.05
  36  0.151  0.369  0.100-  27 2.04
  37  0.633  0.135  0.887-  26 2.05
  38  0.631  0.868  0.111-  26 2.06
  39  0.386  0.117  0.133-  26 2.04
  40  0.382  0.909  0.858-  26 2.07
  41  0.648  0.608  0.375-  25 2.05
  42  0.603  0.361  0.621-  25 2.05
  43  0.396  0.645  0.606-  25 2.06
  44  0.377  0.398  0.360-  25 2.06
  45  0.748  0.738  0.757-
  46  0.761  0.250  0.256-
  47  0.255  0.758  0.237-
  48  0.259  0.254  0.739-
  49  0.991  0.967  0.990-
  50  0.017  0.474  0.508-
  51  0.517  0.996  0.462-
  52  0.494  0.506  0.974-
 
  LATTYP: Found a simple cubic cell.
 ALAT       =     9.6376174663
  
  Lattice vectors:
  
 A1 = (   9.6376174663,   0.0000000000,   0.0000000000)
 A2 = (   0.0000000000,   9.6376174663,   0.0000000000)
 A3 = (   0.0000000000,   0.0000000000,   9.6376174663)


Analysis of symmetry for initial positions (statically):
=====================================================================
 Subroutine PRICEL returns:
 Original cell was already a primitive cell.
 

 Routine SETGRP: Setting up the symmetry group for a 
 simple cubic supercell.


 Subroutine GETGRP returns: Found  1 space group operations
 (whereof  1 operations were pure point group operations)
 out of a pool of 48 trial point group operations.


The static configuration has the point symmetry C_1 .


Analysis of symmetry for dynamics (positions and initial velocities):
=====================================================================
 Subroutine PRICEL returns:
 Original cell was already a primitive cell.
 

 Routine SETGRP: Setting up the symmetry group for a 
 simple cubic supercell.


 Subroutine GETGRP returns: Found  1 space group operations
 (whereof  1 operations were pure point group operations)
 out of a pool of 48 trial point group operations.


The dynamic configuration has the point symmetry C_1 .


Analysis of structural, dynamic, and magnetic symmetry:
=====================================================================
 Subroutine PRICEL returns:
 Original cell was already a primitive cell.
 

 Routine SETGRP: Setting up the symmetry group for a 
 simple cubic supercell.


 Subroutine GETGRP returns: Found  1 space group operations
 (whereof  1 operations were pure point group operations)
 out of a pool of 48 trial point group operations.


The overall configuration has the point symmetry C_1 .


 Subroutine INISYM returns: Found  1 space group operations
 (whereof  1 operations are pure point group operations),
 and found     1 'primitive' translations


----------------------------------------------------------------------------------------

                                     Primitive cell                                     

  volume of cell :     895.1773

  direct lattice vectors                    reciprocal lattice vectors
     9.637617466  0.000000000  0.000000000     0.103760084  0.000000000  0.000000000
     0.000000000  9.637617466  0.000000000     0.000000000  0.103760084  0.000000000
     0.000000000  0.000000000  9.637617466     0.000000000  0.000000000  0.103760084

  length of vectors
     9.637617466  9.637617466  9.637617466     0.103760084  0.103760084  0.103760084

  position of ions in fractional coordinates (direct lattice)
     0.986152194  0.343183769  0.283061097
     0.963533233  0.687232594  0.663359387
     0.031261147  0.319222083  0.710278957
     0.023695799  0.823421323  0.210121635
     0.351762324  0.287652583  0.960329092
     0.213613572  0.809193592  0.005815576
     0.839797256  0.172024671  0.041475986
     0.823543431  0.772483652  0.980098798
     0.299803810  0.976322128  0.329671278
     0.161753996  0.042876086  0.805782444
     0.796782488  0.970926646  0.792335862
     0.720947223  0.017002691  0.296382290
     0.192752483  0.668463854  0.452461777
     0.214941771  0.290758644  0.507085678
     0.665934659  0.800339646  0.541432997
     0.799700140  0.316214373  0.484559608
     0.306539588  0.486293370  0.772144003
     0.321026870  0.541007609  0.161286641
     0.688748915  0.463187404  0.161098765
     0.698005015  0.504308457  0.800562929
     0.468171401  0.136402787  0.682347725
     0.487322898  0.775556720  0.287669435
     0.530764400  0.213304740  0.313438660
     0.519075727  0.713936943  0.824231889
     0.507177656  0.501617062  0.493119426
     0.509886820  0.004952508  0.001858924
     0.015981811  0.496488518  0.997134227
     0.003038948  0.000001512  0.500400297
     0.137014648  0.877690166  0.611604319
     0.106461374  0.120794364  0.358643306
     0.875415796  0.860478293  0.400952248
     0.889131336  0.125947882  0.629205991
     0.903086983  0.605910909  0.141707758
     0.879505722  0.370810544  0.891744445
     0.118935765  0.625439893  0.862171191
     0.150869289  0.369036319  0.099522505
     0.632905955  0.135159800  0.887468330
     0.631218109  0.867560461  0.111187250
     0.386353920  0.116662372  0.132718674
     0.382013564  0.908919782  0.858496247
     0.647993566  0.608245980  0.374930252
     0.603321062  0.361408357  0.620796733
     0.395517575  0.644822707  0.605733352
     0.376546562  0.397832377  0.360085023
     0.747995842  0.737531769  0.757406163
     0.760728907  0.250459747  0.255598016
     0.254523056  0.758071603  0.236665738
     0.259412275  0.253682626  0.738538618
     0.990542286  0.967408218  0.989571982
     0.016884802  0.473865466  0.507967792
     0.516626477  0.995930544  0.461833781
     0.494443495  0.506351555  0.974295832

  ion indices of the primitive-cell ions
   primitive index   ion index
                 1           1
                 2           2
                 3           3
                 4           4
                 5           5
                 6           6
                 7           7
                 8           8
                 9           9
                10          10
                11          11
                12          12
                13          13
                14          14
                15          15
                16          16
                17          17
                18          18
                19          19
                20          20
                21          21
                22          22
                23          23
                24          24
                25          25
                26          26
                27          27
                28          28
                29          29
                30          30
                31          31
                32          32
                33          33
                34          34
                35          35
                36          36
                37          37
                38          38
                39          39
                40          40
                41          41
                42          42
                43          43
                44          44
                45          45
                46          46
                47          47
                48          48
                49          49
                50          50
                51          51
                52          52

----------------------------------------------------------------------------------------

 
 
 KPOINTS: Automatic mesh                          

Automatic generation of k-mesh.
 Grid dimensions read from file:
 generate k-points for:    2    2    2

 Generating k-lattice:

  Cartesian coordinates                     Fractional coordinates (reciprocal lattice)
     0.051880042  0.000000000  0.000000000     0.500000000  0.000000000  0.000000000
     0.000000000  0.051880042  0.000000000     0.000000000  0.500000000  0.000000000
     0.000000000  0.000000000  0.051880042     0.000000000  0.000000000  0.500000000

  Length of vectors
     0.051880042  0.051880042  0.051880042

  Shift w.r.t. Gamma in fractional coordinates (k-lattice)
     0.500000000  0.500000000  0.500000000

 
 Subroutine IBZKPT returns following result:
 ===========================================
 
 Found      4 irreducible k-points:
 
 Following reciprocal coordinates:
            Coordinates               Weight
  0.250000  0.250000  0.250000      2.000000
 -0.250000  0.250000  0.250000      2.000000
 -0.250000 -0.250000  0.250000      2.000000
  0.250000 -0.250000  0.250000      2.000000
 
 Following cartesian coordinates:
            Coordinates               Weight
  0.025940  0.025940  0.025940      2.000000
 -0.025940  0.025940  0.025940      2.000000
 -0.025940 -0.025940  0.025940      2.000000
  0.025940 -0.025940  0.025940      2.000000
 


--------------------------------------------------------------------------------------------------------




 Dimension of arrays:
   k-points           NKPTS =      4   k-points in BZ     NKDIM =      4   number of bands    NBANDS=    176
   number of dos      NEDOS =    301   number of ions     NIONS =     52
   non local maximal  LDIM  =      6   non local SUM 2l+1 LMDIM =     18
   total plane-waves  NPLWV = 373248
   max r-space proj   IRMAX =   5817   max aug-charges    IRDMAX=  17795
   dimension x,y,z NGX =    72 NGY =   72 NGZ =   72
   dimension x,y,z NGXF=   144 NGYF=  144 NGZF=  144
   support grid    NGXF=   144 NGYF=  144 NGZF=  144
   ions per type =              24   4  20   4
   NGX,Y,Z   is equivalent  to a cutoff of  12.42, 12.42, 12.42 a.u.
   NGXF,Y,Z  is equivalent  to a cutoff of  24.84, 24.84, 24.84 a.u.

 SYSTEM =  unknown system                          
 POSCAR =  Li24 P4 S20 Cl4                         

 Startparameter for this run:
   NWRITE =      2    write-flag & timer
   PREC   = accu      normal or accurate (medium, high low for compatibility)
   ISTART =      0    job   : 0-new  1-cont  2-samecut
   ICHARG =      2    charge: 1-file 2-atom 10-const
   ISPIN  =      2    spin polarized calculation?
   LNONCOLLINEAR =      F non collinear calculations
   LSORBIT =      F    spin-orbit coupling
   INIWAV =      1    electr: 0-lowe 1-rand  2-diag
   LASPH  =      T    aspherical Exc in radial PAW
 Electronic Relaxation 1
   ENCUT  =  520.0 eV  38.22 Ry    6.18 a.u.  17.92 17.92 17.92*2*pi/ulx,y,z
   ENINI  =  520.0     initial cutoff
   ENAUG  = 1041.7 eV  augmentation charge cutoff
   NELM   =    100;   NELMIN=  2; NELMDL=-10     # of ELM steps 
   EDIFF  = 0.1E-05   stopping-criterion for ELM
   LREAL  =      T    real-space projection
   NLSPLINE    = F    spline interpolate recip. space projectors
   LCOMPAT=      F    compatible to vasp.4.4
   GGA_COMPAT  = T    GGA compatible to vasp.4.4-vasp.4.6
   LMAXPAW     = -100 max onsite density
   LMAXMIX     =    4 max onsite mixed and CHGCAR
   VOSKOWN=      0    Vosko Wilk Nusair interpolation
   ROPT   =   -0.00025  -0.00025  -0.00025  -0.00025
 Ionic relaxation
   EDIFFG = -.1E-02   stopping-criterion for IOM
   NSW    =   1000    number of steps for IOM
   NBLOCK =      1;   KBLOCK =   1000    inner block; outer block 
   IBRION =      2    ionic relax: 0-MD 1-quasi-New 2-CG
   NFREE  =      1    steps in history (QN), initial steepest desc. (CG)
   ISIF   =      2    stress and relaxation
   IWAVPR =     11    prediction:  0-non 1-charg 2-wave 3-comb
   ISYM   =      2    0-nonsym 1-usesym 2-fastsym
   LCORR  =      T    Harris-Foulkes like correction to forces

   POTIM  = 0.2000    time-step for ionic-motion
   TEIN   =    0.0    initial temperature
   TEBEG  =    0.0;   TEEND  =   0.0 temperature during run
   SMASS  =  -3.00    Nose mass-parameter (am)
   estimated Nose-frequenzy (Omega)   =  0.10E-29 period in steps = 0.31E+47 mass=  -0.212E-26a.u.
   SCALEE = 1.0000    scale energy and forces
   NPACO  =    256;   APACO  = 10.0  distance and # of slots for P.C.
   PSTRESS=    0.0 pullay stress

  Mass of Ions in am
   POMASS =   7.01 30.97 32.07 35.45
  Ionic Valenz
   ZVAL   =   3.00  5.00  6.00  7.00
  Atomic Wigner-Seitz radii
   RWIGS  =  -1.00 -1.00 -1.00 -1.00
  virtual crystal weights 
   VCA    =   1.00  1.00  1.00  1.00
   NELECT =     240.0000    total number of electrons
   NUPDOWN=      -1.0000    fix difference up-down

 DOS related values:
   EMIN   =  10.00;   EMAX   =-10.00  energy-range for DOS
   EFERMI =   0.00;   METHOD = LEGACY      
   ISMEAR =     0;   SIGMA  =   0.03  broadening in eV -4-tet -1-fermi 0-gaus

 Electronic relaxation 2 (details)
   IALGO  =     68    algorithm
   LDIAG  =      T    sub-space diagonalisation (order eigenvalues)
   LSUBROT=      F    optimize rotation matrix (better conditioning)
   TURBO    =      0    0=normal 1=particle mesh
   IRESTART =      0    0=no restart 2=restart with 2 vectors
   NREBOOT  =      0    no. of reboots
   NMIN     =      0    reboot dimension
   EREF     =   0.00    reference energy to select bands
   IMIX   =      4    mixing-type and parameters
     AMIX     =   0.40;   BMIX     =  1.00
     AMIX_MAG =   1.60;   BMIX_MAG =  1.00
     AMIN     =   0.10
     WC   =   100.;   INIMIX=   1;  MIXPRE=   1;  MAXMIX= -45

 Intra band minimization:
   WEIMIN = 0.0010     energy-eigenvalue tresh-hold
   EBREAK =  0.14E-08  absolut break condition
   DEPER  =   0.30     relativ break condition  

   TIME   =   0.40     timestep for ELM

  volume/ion in A,a.u.               =      17.21       116.17
  Fermi-wavevector in a.u.,A,eV,Ry     =   1.055623  1.994838 15.161518  1.114340
  Thomas-Fermi vector in A             =   2.190828
 
 Write flags
   LWAVE        =      F    write WAVECAR
   LDOWNSAMPLE  =      F    k-point downsampling of WAVECAR
   LCHARG       =      F    write CHGCAR
   LVTOT        =      F    write LOCPOT, total local potential
   LVHAR        =      F    write LOCPOT, Hartree potential only
   LELF         =      F    write electronic localiz. function (ELF)
   LORBIT       =      0    0 simple, 1 ext, 2 COOP (PROOUT), +10 PAW based schemes


 Dipole corrections
   LMONO  =      F    monopole corrections only (constant potential shift)
   LDIPOL =      F    correct potential (dipole corrections)
   IDIPOL =      0    1-x, 2-y, 3-z, 4-all directions 
   EPSILON=  1.0000000 bulk dielectric constant

 Exchange correlation treatment:
   GGA     =    PE    GGA type
   LEXCH   =     8    internal setting for exchange type
   LIBXC   =     F    Libxc                    
   VOSKOWN =     0    Vosko Wilk Nusair interpolation
   LHFCALC =     F    Hartree Fock is set to
   LHFONE  =     F    Hartree Fock one center treatment
   AEXX    =    0.0000 exact exchange contribution

 Linear response parameters
   LEPSILON=     F    determine dielectric tensor
   LRPA    =     F    only Hartree local field effects (RPA)
   LNABLA  =     F    use nabla operator in PAW spheres
   LVEL    =     F    velocity operator in full k-point grid
   CSHIFT  =0.1000    complex shift for real part using Kramers Kronig
   OMEGAMAX=  -1.0    maximum frequency
   DEG_THRESHOLD= 0.2000000E-02 threshold for treating states as degnerate
   RTIME   =   -0.100 relaxation time in fs
  (WPLASMAI=    0.000 imaginary part of plasma frequency in eV, 0.658/RTIME)
   DFIELD  = 0.0000000 0.0000000 0.0000000 field for delta impulse in time
 
  Optional k-point grid parameters
   LKPOINTS_OPT  =     F    use optional k-point grid
   KPOINTS_OPT_MODE=     1    mode for optional k-point grid
 
 Orbital magnetization related:
   ORBITALMAG=     F  switch on orbital magnetization
   LCHIMAG   =     F  perturbation theory with respect to B field
   DQ        =  0.001000  dq finite difference perturbation B field
   LLRAUG    =     F  two centre corrections for induced B field
   LBONE     =     F  B-component reconstruction in AE one-centre
   LVGVCALC  =     T  calculate vGv susceptibility
   LVGVAPPL  =     F  apply vGv susceptibility instead of pGv for G=0

 Random number generation:
   RANDOM_GENERATOR = DEFAULT
   PCG_SEED         = not used


--------------------------------------------------------------------------------------------------------


 conjugate gradient relaxation of ions
 charge density and potential will be updated during run
 spin polarized calculation
 RMM-DIIS sequential band-by-band and
  variant of blocked Davidson during initial phase
 perform sub-space diagonalisation
    before iterative eigenvector-optimisation
 modified Broyden-mixing scheme, WC =      100.0
 initial mixing is a Kerker type mixing with AMIX =  0.4000 and BMIX =      1.0000
 Hartree-type preconditioning will be used
 using additional bands           56
 real space projection scheme for non local part
 use partial core corrections
 calculate Harris-corrections to forces 
   (improved forces if not selfconsistent)
 use gradient corrections 
 use of overlap-Matrix (Vanderbilt PP)
 Gauss-broadening in eV      SIGMA  =   0.03


--------------------------------------------------------------------------------------------------------


  energy-cutoff  :      520.00
  volume of cell :      895.18
      direct lattice vectors                 reciprocal lattice vectors
     9.637617466  0.000000000  0.000000000     0.103760084  0.000000000  0.000000000
     0.000000000  9.637617466  0.000000000     0.000000000  0.103760084  0.000000000
     0.000000000  0.000000000  9.637617466     0.000000000  0.000000000  0.103760084

  length of vectors
     9.637617466  9.637617466  9.637617466     0.103760084  0.103760084  0.103760084


 
 k-points in units of 2pi/SCALE and weight: Automatic mesh                          
   0.02594002  0.02594002  0.02594002       0.250
  -0.02594002  0.02594002  0.02594002       0.250
  -0.02594002 -0.02594002  0.02594002       0.250
   0.02594002 -0.02594002  0.02594002       0.250
 
 k-points in reciprocal lattice and weights: Automatic mesh                          
   0.25000000  0.25000000  0.25000000       0.250
  -0.25000000  0.25000000  0.25000000       0.250
  -0.25000000 -0.25000000  0.25000000       0.250
   0.25000000 -0.25000000  0.25000000       0.250
 
 position of ions in fractional coordinates (direct lattice) 
   0.98615219  0.34318377  0.28306110
   0.96353323  0.68723259  0.66335939
   0.03126115  0.31922208  0.71027896
   0.02369580  0.82342132  0.21012164
   0.35176232  0.28765258  0.96032909
   0.21361357  0.80919359  0.00581558
   0.83979726  0.17202467  0.04147599
   0.82354343  0.77248365  0.98009880
   0.29980381  0.97632213  0.32967128
   0.16175400  0.04287609  0.80578244
   0.79678249  0.97092665  0.79233586
   0.72094722  0.01700269  0.29638229
   0.19275248  0.66846385  0.45246178
   0.21494177  0.29075864  0.50708568
   0.66593466  0.80033965  0.54143300
   0.79970014  0.31621437  0.48455961
   0.30653959  0.48629337  0.77214400
   0.32102687  0.54100761  0.16128664
   0.68874891  0.46318740  0.16109876
   0.69800501  0.50430846  0.80056293
   0.46817140  0.13640279  0.68234772
   0.48732290  0.77555672  0.28766944
   0.53076440  0.21330474  0.31343866
   0.51907573  0.71393694  0.82423189
   0.50717766  0.50161706  0.49311943
   0.50988682  0.00495251  0.00185892
   0.01598181  0.49648852  0.99713423
   0.00303895  0.00000151  0.50040030
   0.13701465  0.87769017  0.61160432
   0.10646137  0.12079436  0.35864331
   0.87541580  0.86047829  0.40095225
   0.88913134  0.12594788  0.62920599
   0.90308698  0.60591091  0.14170776
   0.87950572  0.37081054  0.89174444
   0.11893577  0.62543989  0.86217119
   0.15086929  0.36903632  0.09952251
   0.63290596  0.13515980  0.88746833
   0.63121811  0.86756046  0.11118725
   0.38635392  0.11666237  0.13271867
   0.38201356  0.90891978  0.85849625
   0.64799357  0.60824598  0.37493025
   0.60332106  0.36140836  0.62079673
   0.39551757  0.64482271  0.60573335
   0.37654656  0.39783238  0.36008502
   0.74799584  0.73753177  0.75740616
   0.76072891  0.25045975  0.25559802
   0.25452306  0.75807160  0.23666574
   0.25941228  0.25368263  0.73853862
   0.99054229  0.96740822  0.98957198
   0.01688480  0.47386547  0.50796779
   0.51662648  0.99593054  0.46183378
   0.49444349  0.50635156  0.97429583
 
 position of ions in cartesian coordinates  (Angst):
   9.50415761  3.30747389  2.72803457
   9.28616471  6.62328485  6.39320402
   0.30128297  3.07654032  6.84539689
   0.22837105  7.93581973  2.02507194
   3.39015072  2.77228556  9.25528444
   2.05872589  7.79869830  0.05604830
   8.09364470  1.65790797  0.39972969
   7.93699655  7.44490194  9.44581729
   2.88939443  9.40941920  3.17724567
   1.55892314  0.41322332  7.76582295
   7.67908482  9.35741960  7.63622995
   6.94821355  0.16386543  2.85641913
   1.85767470  6.44239891  4.36065353
   2.07152657  2.80222058  4.88709779
   6.41802350  7.71336735  5.21812411
   7.70720404  3.04755316  4.67000014
   2.95431129  4.68670947  7.44162853
   3.09393417  5.21402438  1.55441895
   6.63789857  4.46402301  1.55260827
   6.72710532  4.86033199  7.71551927
   4.51205687  1.31459789  6.57620635
   4.69663167  7.47451899  2.77244797
   5.11530425  2.05574949  3.02080190
   5.00265329  6.88065115  7.94363165
   4.88798424  4.83439336  4.75249639
   4.91409412  0.04773037  0.01791560
   0.15402658  4.78496641  9.60999824
   0.02928822  0.00001457  4.82266664
   1.32049476  8.45884207  5.89440847
   1.02603399  1.16416987  3.45646699
   8.43692257  8.29296063  3.86422439
   8.56910770  1.21383751  6.06404665
   8.70360689  5.83953756  1.36572516
   8.47633971  3.57373017  8.59429184
   1.14625741  6.02775044  8.30927613
   1.45402049  3.55663088  0.95915983
   6.09970549  1.30261844  8.55308028
   6.08343868  8.36121585  1.07158018
   3.72353129  1.12434731  1.27909181
   3.68170059  8.75982117  8.27385842
   6.24511411  5.86204208  3.61343434
   5.81457761  3.48311550  5.98300144
   3.81184709  6.21455458  5.83782634
   3.62901172  3.83415626  3.47036171
   7.20889779  7.10804906  7.29959087
   7.33161420  2.41383523  2.46335591
   2.45299585  7.30600412  2.28089385
   2.50011628  2.44489611  7.11775268
   9.54646764  9.32351034  9.53711622
   0.16272926  4.56693409  4.89559926
   4.97904836  9.59839761  4.45097731
   4.76525726  4.88002260  9.38989053
 


--------------------------------------------------------------------------------------------------------


 k-point   1 :   0.2500 0.2500 0.2500  plane waves:   24084
 k-point   2 :  -0.2500 0.2500 0.2500  plane waves:   24084
 k-point   3 :  -0.2500-0.2500 0.2500  plane waves:   24084
 k-point   4 :   0.2500-0.2500 0.2500  plane waves:   24084

 maximum and minimum number of plane-waves per node :       766      738

 maximum number of plane-waves:     24084
 maximum index in each direction: 
   IXMAX=   18   IYMAX=   18   IZMAX=   17
   IXMIN=  -18   IYMIN=  -18   IZMIN=  -18


 real space projection operators:
  total allocation   :      28542.44 KBytes
  max/ min on nodes  :       1206.83        757.39


 parallel 3D FFT for wavefunctions:
    minimum data exchange during FFTs selected (reduces bandwidth)
 parallel 3D FFT for charge:
    minimum data exchange during FFTs selected (reduces bandwidth)


 total amount of memory used by VASP MPI-rank0    48177. kBytes
=======================================================================

   base      :      30000. kBytes
   nonlr-proj:       6607. kBytes
   fftplans  :       1747. kBytes
   grid      :       5278. kBytes
   one-center:         62. kBytes
   wavefun   :       4483. kBytes
 
     INWAV:  cpu time      0.0000: real time      0.0000
 Broyden mixing: mesh for mixing (old mesh)
   NGX = 35   NGY = 35   NGZ = 35
  (NGX  =144   NGY  =144   NGZ  =144)
  gives a total of  42875 points

 initial charge density was supplied:
 charge density of overlapping atoms calculated
 number of electron     240.0000000 magnetization      52.0000000
 keeping initial charge density in first step


--------------------------------------------------------------------------------------------------------


 Maximum index for non-local projection operator          606
 Maximum index for augmentation-charges          926 (set IRDMAX)


--------------------------------------------------------------------------------------------------------


 First call to EWALD:  gamma=   0.184
 Maximum number of real-space cells 3x 3x 3
 Maximum number of reciprocal cells 3x 3x 3

    FEWALD:  cpu time      0.0029: real time      0.0037


--------------------------------------- Ionic step        1  -------------------------------------------




--------------------------------------- Iteration      1(   1)  ---------------------------------------


    POTLOK:  cpu time      0.0565: real time      0.0718
    SETDIJ:  cpu time      0.4040: real time      0.4106
     EDDAV:  cpu time      2.2946: real time      2.3428
       DOS:  cpu time      0.0023: real time      0.0036
    --------------------------------------------
      LOOP:  cpu time      2.7574: real time      2.8288

 eigenvalue-minimisations  :  3088
 total energy-change (2. order) : 0.1583910E+04  (-0.1135654E+05)
 number of electron     240.0000000 magnetization      52.0000000
 augmentation part      240.0000000 magnetization      52.0000000

 Free energy of the ion-electron system (eV)
  ---------------------------------------------------
  alpha Z        PSCENC =       303.24440577
  Ewald energy   TEWEN  =     -8856.34365241
  -Hartree energ DENC   =     -2089.01178647
  -exchange      EXHF   =         0.00000000
  -V(xc)+E(xc)   XCENC  =       534.57241319
  PAW double counting   =      8141.38806575    -8271.61346273
  entropy T*S    EENTRO =        -0.00591818
  eigenvalues    EBANDS =      -881.45972803
  atomic energy  EATOM  =     12703.13999606
  Solvation  Ediel_sol  =         0.00000000
  ---------------------------------------------------
  free energy    TOTEN  =      1583.91033295 eV

  energy without entropy =     1583.91625113  energy(sigma->0) =     1583.91329204


--------------------------------------------------------------------------------------------------------




--------------------------------------- Iteration      1(   2)  ---------------------------------------


     EDDAV:  cpu time      2.6277: real time      2.6644
       DOS:  cpu time      0.0005: real time      0.0005
    --------------------------------------------
      LOOP:  cpu time      2.6282: real time      2.6649

 eigenvalue-minimisations  :  3808
 total energy-change (2. order) :-0.1640787E+04  (-0.1541072E+04)
 number of electron     240.0000000 magnetization      52.0000000
 augmentation part      240.0000000 magnetization      52.0000000

 Free energy of the ion-electron system (eV)
  ---------------------------------------------------
  alpha Z        PSCENC =       303.24440577
  Ewald energy   TEWEN  =     -8856.34365241
  -Hartree energ DENC   =     -2089.01178647
  -exchange      EXHF   =         0.00000000
  -V(xc)+E(xc)   XCENC  =       534.57241319
  PAW double counting   =      8141.38806575    -8271.61346273
  entropy T*S    EENTRO =        -0.00000000
  eigenvalues    EBANDS =     -2522.25309689
  atomic energy  EATOM  =     12703.13999606
  Solvation  Ediel_sol  =         0.00000000
  ---------------------------------------------------
  free energy    TOTEN  =       -56.87711773 eV

  energy without entropy =      -56.87711773  energy(sigma->0) =      -56.87711773


--------------------------------------------------------------------------------------------------------




--------------------------------------- Iteration      1(   3)  ---------------------------------------


     EDDAV:  cpu time      2.6591: real time      2.6827
       DOS:  cpu time      0.0006: real time      0.0006
    --------------------------------------------
      LOOP:  cpu time      2.6597: real time      2.6833

 eigenvalue-minimisations  :  3800
 total energy-change (2. order) :-0.1716024E+03  (-0.1695629E+03)
 number of electron     240.0000000 magnetization      52.0000000
 augmentation part      240.0000000 magnetization      52.0000000

 Free energy of the ion-electron system (eV)
  ---------------------------------------------------
  alpha Z        PSCENC =       303.24440577
  Ewald energy   TEWEN  =     -8856.34365241
  -Hartree energ DENC   =     -2089.01178647
  -exchange      EXHF   =         0.00000000
  -V(xc)+E(xc)   XCENC  =       534.57241319
  PAW double counting   =      8141.38806575    -8271.61346273
  entropy T*S    EENTRO =        -0.00000000
  eigenvalues    EBANDS =     -2693.85552676
  atomic energy  EATOM  =     12703.13999606
  Solvation  Ediel_sol  =         0.00000000
  ---------------------------------------------------
  free energy    TOTEN  =      -228.47954761 eV

  energy without entropy =     -228.47954761  energy(sigma->0) =     -228.47954761


--------------------------------------------------------------------------------------------------------




--------------------------------------- Iteration      1(   4)  ---------------------------------------


     EDDAV:  cpu time      3.1446: real time      3.1708
       DOS:  cpu time      0.0005: real time      0.0005
    --------------------------------------------
      LOOP:  cpu time      3.1451: real time      3.1714

 eigenvalue-minimisations  :  4744
 total energy-change (2. order) :-0.1316492E+02  (-0.1314166E+02)
 number of electron     240.0000000 magnetization      52.0000000
 augmentation part      240.0000000 magnetization      52.0000000

 Free energy of the ion-electron system (eV)
  ---------------------------------------------------
  alpha Z        PSCENC =       303.24440577
  Ewald energy   TEWEN  =     -8856.34365241
  -Hartree energ DENC   =     -2089.01178647
  -exchange      EXHF   =         0.00000000
  -V(xc)+E(xc)   XCENC  =       534.57241319
  PAW double counting   =      8141.38806575    -8271.61346273
  entropy T*S    EENTRO =        -0.00000000
  eigenvalues    EBANDS =     -2707.02045016
  atomic energy  EATOM  =     12703.13999606
  Solvation  Ediel_sol  =         0.00000000
  ---------------------------------------------------
  free energy    TOTEN  =      -241.64447100 eV

  energy without entropy =     -241.64447100  energy(sigma->0) =     -241.64447100


--------------------------------------------------------------------------------------------------------




--------------------------------------- Iteration      1(   5)  ---------------------------------------


     EDDAV:  cpu time      2.9899: real time      3.0153
       DOS:  cpu time      0.0004: real time      0.0004
    --------------------------------------------
      LOOP:  cpu time      2.9903: real time      3.0158

 eigenvalue-minimisations  :  4472
 total energy-change (2. order) :-0.2278986E+00  (-0.2277871E+00)
 number of electron     240.0000000 magnetization      52.0000000
 augmentation part      240.0000000 magnetization      52.0000000

 Free energy of the ion-electron system (eV)
  ---------------------------------------------------
  alpha Z        PSCENC =       303.24440577
  Ewald energy   TEWEN  =     -8856.34365241
  -Hartree energ DENC   =     -2089.01178647
  -exchange      EXHF   =         0.00000000
  -V(xc)+E(xc)   XCENC  =       534.57241319
  PAW double counting   =      8141.38806575    -8271.61346273
  entropy T*S    EENTRO =        -0.00000000
  eigenvalues    EBANDS =     -2707.24834874
  atomic energy  EATOM  =     12703.13999606
  Solvation  Ediel_sol  =         0.00000000
  ---------------------------------------------------
  free energy    TOTEN  =      -241.87236958 eV

  energy without entropy =     -241.87236958  energy(sigma->0) =     -241.87236958


--------------------------------------------------------------------------------------------------------




--------------------------------------- Iteration      1(   6)  ---------------------------------------


     EDDAV:  cpu time      3.0887: real time      3.1161
       DOS:  cpu time      0.0005: real time      0.0005
    --------------------------------------------
      LOOP:  cpu time      3.0893: real time      3.1166

 eigenvalue-minimisations  :  4656
 total energy-change (2. order) :-0.1057764E-01  (-0.1057632E-01)
 number of electron     240.0000000 magnetization      52.0000000
 augmentation part      240.0000000 magnetization      52.0000000

 Free energy of the ion-electron system (eV)
  ---------------------------------------------------
  alpha Z        PSCENC =       303.24440577
  Ewald energy   TEWEN  =     -8856.34365241
  -Hartree energ DENC   =     -2089.01178647
  -exchange      EXHF   =         0.00000000
  -V(xc)+E(xc)   XCENC  =       534.57241319
  PAW double counting   =      8141.38806575    -8271.61346273
  entropy T*S    EENTRO =        -0.00000000
  eigenvalues    EBANDS =     -2707.25892638
  atomic energy  EATOM  =     12703.13999606
  Solvation  Ediel_sol  =         0.00000000
  ---------------------------------------------------
  free energy    TOTEN  =      -241.88294722 eV

  energy without entropy =     -241.88294722  energy(sigma->0) =     -241.88294722


--------------------------------------------------------------------------------------------------------




--------------------------------------- Iteration      1(   7)  ---------------------------------------


     EDDAV:  cpu time      3.0410: real time      3.0755
       DOS:  cpu time      0.0007: real time      0.0006
    --------------------------------------------
      LOOP:  cpu time      3.0416: real time      3.0761

 eigenvalue-minimisations  :  4552
 total energy-change (2. order) :-0.3727727E-03  (-0.3727466E-03)
 number of electron     240.0000000 magnetization      52.0000000
 augmentation part      240.0000000 magnetization      52.0000000

 Free energy of the ion-electron system (eV)
  ---------------------------------------------------
  alpha Z        PSCENC =       303.24440577
  Ewald energy   TEWEN  =     -8856.34365241
  -Hartree energ DENC   =     -2089.01178647
  -exchange      EXHF   =         0.00000000
  -V(xc)+E(xc)   XCENC  =       534.57241319
  PAW double counting   =      8141.38806575    -8271.61346273
  entropy T*S    EENTRO =        -0.00000000
  eigenvalues    EBANDS =     -2707.25929915
  atomic energy  EATOM  =     12703.13999606
  Solvation  Ediel_sol  =         0.00000000
  ---------------------------------------------------
  free energy    TOTEN  =      -241.88331999 eV

  energy without entropy =     -241.88331999  energy(sigma->0) =     -241.88331999


--------------------------------------------------------------------------------------------------------




--------------------------------------- Iteration      1(   8)  ---------------------------------------


     EDDAV:  cpu time      3.0744: real time      3.1006
       DOS:  cpu time      0.0006: real time      0.0006
    --------------------------------------------
      LOOP:  cpu time      3.0750: real time      3.1012

 eigenvalue-minimisations  :  4600
 total energy-change (2. order) :-0.2204185E-04  (-0.2204142E-04)
 number of electron     240.0000000 magnetization      52.0000000
 augmentation part      240.0000000 magnetization      52.0000000

 Free energy of the ion-electron system (eV)
  ---------------------------------------------------
  alpha Z        PSCENC =       303.24440577
  Ewald energy   TEWEN  =     -8856.34365241
  -Hartree energ DENC   =     -2089.01178647
  -exchange      EXHF   =         0.00000000
  -V(xc)+E(xc)   XCENC  =       534.57241319
  PAW double counting   =      8141.38806575    -8271.61346273
  entropy T*S    EENTRO =        -0.00000000
  eigenvalues    EBANDS =     -2707.25932119
  atomic energy  EATOM  =     12703.13999606
  Solvation  Ediel_sol  =         0.00000000
  ---------------------------------------------------
  free energy    TOTEN  =      -241.88334203 eV

  energy without entropy =     -241.88334203  energy(sigma->0) =     -241.88334203


--------------------------------------------------------------------------------------------------------




--------------------------------------- Iteration      1(   9)  ---------------------------------------


     EDDAV:  cpu time      2.9705: real time      2.9946
       DOS:  cpu time      0.0004: real time      0.0004
    --------------------------------------------
      LOOP:  cpu time      2.9709: real time      2.9951

 eigenvalue-minimisations  :  4440
 total energy-change (2. order) :-0.1423907E-05  (-0.1423830E-05)
 number of electron     240.0000000 magnetization      52.0000000
 augmentation part      240.0000000 magnetization      52.0000000

 Free energy of the ion-electron system (eV)
  ---------------------------------------------------
  alpha Z        PSCENC =       303.24440577
  Ewald energy   TEWEN  =     -8856.34365241
  -Hartree energ DENC   =     -2089.01178647
  -exchange      EXHF   =         0.00000000
  -V(xc)+E(xc)   XCENC  =       534.57241319
  PAW double counting   =      8141.38806575    -8271.61346273
  entropy T*S    EENTRO =        -0.00000000
  eigenvalues    EBANDS =     -2707.25932262
  atomic energy  EATOM  =     12703.13999606
  Solvation  Ediel_sol  =         0.00000000
  ---------------------------------------------------
  free energy    TOTEN  =      -241.88334346 eV

  energy without entropy =     -241.88334346  energy(sigma->0) =     -241.88334346


--------------------------------------------------------------------------------------------------------




--------------------------------------- Iteration      1(  10)  ---------------------------------------


     EDDAV:  cpu time      1.9991: real time      2.0149
       DOS:  cpu time      0.0005: real time      0.0005
    CHARGE:  cpu time      0.0678: real time      0.0735
    MIXING:  cpu time      0.0018: real time      0.0033
    --------------------------------------------
      LOOP:  cpu time      2.0692: real time      2.0923

 eigenvalue-minimisations  :  2648
 total energy-change (2. order) :-0.6320079E-07  (-0.6326474E-07)
 number of electron     239.9999994 magnetization      27.1847044
 augmentation part        1.4894899 magnetization      27.6273589

 Broyden mixing:
  rms(total) = 0.64066E+01    rms(broyden)= 0.64060E+01
  rms(prec ) = 0.66457E+01
  weight for this iteration     100.00

 Free energy of the ion-electron system (eV)
  ---------------------------------------------------
  alpha Z        PSCENC =       303.24440577
  Ewald energy   TEWEN  =     -8856.34365241
  -Hartree energ DENC   =     -2089.01178647
  -exchange      EXHF   =         0.00000000
  -V(xc)+E(xc)   XCENC  =       534.57241319
  PAW double counting   =      8141.38806575    -8271.61346273
  entropy T*S    EENTRO =        -0.00000000
  eigenvalues    EBANDS =     -2707.25932268
  atomic energy  EATOM  =     12703.13999606
  Solvation  Ediel_sol  =         0.00000000
  ---------------------------------------------------
  free energy    TOTEN  =      -241.88334352 eV

  energy without entropy =     -241.88334352  energy(sigma->0) =     -241.88334352


--------------------------------------------------------------------------------------------------------




--------------------------------------- Iteration      1(  11)  ---------------------------------------


    POTLOK:  cpu time      0.0554: real time      0.0562
    SETDIJ:  cpu time      0.3975: real time      0.4010
    EDDIAG:  cpu time      0.3655: real time      0.3686
  RMM-DIIS:  cpu time      1.1642: real time      1.1745
    ORTHCH:  cpu time      0.0664: real time      0.0668
       DOS:  cpu time      0.0005: real time      0.0005
    CHARGE:  cpu time      0.0642: real time      0.0673
    MIXING:  cpu time      0.0012: real time      0.3475
    --------------------------------------------
      LOOP:  cpu time      2.1149: real time      2.4823

 eigenvalue-minimisations  :  2816
 total energy-change (2. order) : 0.5153378E+01  (-0.4625267E+01)
 number of electron     239.9999994 magnetization      16.2668836
 augmentation part        1.7019731 magnetization      16.4478082

 Broyden mixing:
  rms(total) = 0.32991E+01    rms(broyden)= 0.32989E+01
  rms(prec ) = 0.34152E+01
  weight for this iteration     100.00

 eigenvalues of (default mixing * dielectric matrix)
  average eigenvalue GAMMA=   0.7249
  0.7249

 Free energy of the ion-electron system (eV)
  ---------------------------------------------------
  alpha Z        PSCENC =       303.24440577
  Ewald energy   TEWEN  =     -8856.34365241
  -Hartree energ DENC   =     -2136.30013858
  -exchange      EXHF   =         0.00000000
  -V(xc)+E(xc)   XCENC  =       542.60674462
  PAW double counting   =      8923.21162697    -9059.45198425
  entropy T*S    EENTRO =        -0.00000000
  eigenvalues    EBANDS =     -2656.83696333
  atomic energy  EATOM  =     12703.13999606
  Solvation  Ediel_sol  =         0.00000000
  ---------------------------------------------------
  free energy    TOTEN  =      -236.72996515 eV

  energy without entropy =     -236.72996515  energy(sigma->0) =     -236.72996515


--------------------------------------------------------------------------------------------------------




--------------------------------------- Iteration      1(  12)  ---------------------------------------


    POTLOK:  cpu time      0.0538: real time      0.0547
    SETDIJ:  cpu time      0.4032: real time      0.4053
    EDDIAG:  cpu time      0.3556: real time      0.3580
  RMM-DIIS:  cpu time      1.2190: real time      1.2298
    ORTHCH:  cpu time      0.0667: real time      0.0673
       DOS:  cpu time      0.0005: real time      0.0005
    CHARGE:  cpu time      0.0650: real time      0.0670
    MIXING:  cpu time      0.0010: real time      0.0010
    --------------------------------------------
      LOOP:  cpu time      2.1647: real time      2.1837

 eigenvalue-minimisations  :  2951
 total energy-change (2. order) :-0.1920180E+02  (-0.2074287E+01)
 number of electron     239.9999994 magnetization       0.3897556
 augmentation part        1.7976558 magnetization       0.7283870

 Broyden mixing:
  rms(total) = 0.20136E+01    rms(broyden)= 0.20136E+01
  rms(prec ) = 0.20758E+01
  weight for this iteration     100.00

 eigenvalues of (default mixing * dielectric matrix)
  average eigenvalue GAMMA=   1.1605
  1.6498  0.6712

 Free energy of the ion-electron system (eV)
  ---------------------------------------------------
  alpha Z        PSCENC =       303.24440577
  Ewald energy   TEWEN  =     -8856.34365241
  -Hartree energ DENC   =     -2159.82938154
  -exchange      EXHF   =         0.00000000
  -V(xc)+E(xc)   XCENC  =       536.31191886
  PAW double counting   =      9273.90551932    -9413.70955825
  entropy T*S    EENTRO =        -0.00000000
  eigenvalues    EBANDS =     -2642.65101648
  atomic energy  EATOM  =     12703.13999606
  Solvation  Ediel_sol  =         0.00000000
  ---------------------------------------------------
  free energy    TOTEN  =      -255.93176868 eV

  energy without entropy =     -255.93176868  energy(sigma->0) =     -255.93176868


--------------------------------------------------------------------------------------------------------




--------------------------------------- Iteration      1(  13)  ---------------------------------------


    POTLOK:  cpu time      0.0525: real time      0.0535
    SETDIJ:  cpu time      0.3979: real time      0.3995
    EDDIAG:  cpu time      0.3587: real time      0.3611
  RMM-DIIS:  cpu time      1.2074: real time      1.2180
    ORTHCH:  cpu time      0.0685: real time      0.0693
       DOS:  cpu time      0.0005: real time      0.0005
    CHARGE:  cpu time      0.0646: real time      0.0665
    MIXING:  cpu time      0.0011: real time      0.0011
    --------------------------------------------
      LOOP:  cpu time      2.1513: real time      2.1696

 eigenvalue-minimisations  :  2910
 total energy-change (2. order) :-0.2454574E+01  (-0.9117720E+00)
 number of electron     239.9999994 magnetization      -1.8630331
 augmentation part        1.8982740 magnetization      -1.7593067

 Broyden mixing:
  rms(total) = 0.66057E+00    rms(broyden)= 0.66057E+00
  rms(prec ) = 0.69327E+00
  weight for this iteration     100.00

 eigenvalues of (default mixing * dielectric matrix)
  average eigenvalue GAMMA=   1.3012
  2.5023  0.7483  0.6531

 Free energy of the ion-electron system (eV)
  ---------------------------------------------------
  alpha Z        PSCENC =       303.24440577
  Ewald energy   TEWEN  =     -8856.34365241
  -Hartree energ DENC   =     -2187.26516553
  -exchange      EXHF   =         0.00000000
  -V(xc)+E(xc)   XCENC  =       537.89273596
  PAW double counting   =      9777.71580238    -9921.48650048
  entropy T*S    EENTRO =        -0.00000000
  eigenvalues    EBANDS =     -2615.28396413
  atomic energy  EATOM  =     12703.13999606
  Solvation  Ediel_sol  =         0.00000000
  ---------------------------------------------------
  free energy    TOTEN  =      -258.38634237 eV

  energy without entropy =     -258.38634237  energy(sigma->0) =     -258.38634237


--------------------------------------------------------------------------------------------------------




--------------------------------------- Iteration      1(  14)  ---------------------------------------


    POTLOK:  cpu time      0.0530: real time      0.0539
    SETDIJ:  cpu time      0.3967: real time      0.3981
    EDDIAG:  cpu time      0.3572: real time      0.3593
  RMM-DIIS:  cpu time      1.5716: real time      1.5851
    ORTHCH:  cpu time      0.0676: real time      0.0683
       DOS:  cpu time      0.0005: real time      0.0005
    CHARGE:  cpu time      0.0646: real time      0.0663
    MIXING:  cpu time      0.0011: real time      0.0011
    --------------------------------------------
      LOOP:  cpu time      2.5123: real time      2.5327

 eigenvalue-minimisations  :  3768
 total energy-change (2. order) :-0.1993764E+00  (-0.1976370E+00)
 number of electron     239.9999994 magnetization      -0.8220058
 augmentation part        1.8657438 magnetization      -0.7950497

 Broyden mixing:
  rms(total) = 0.32183E+00    rms(broyden)= 0.32183E+00
  rms(prec ) = 0.35713E+00
  weight for this iteration     100.00

 eigenvalues of (default mixing * dielectric matrix)
  average eigenvalue GAMMA=   1.2663
  2.6081  1.1766  0.6897  0.5906

 Free energy of the ion-electron system (eV)
  ---------------------------------------------------
  alpha Z        PSCENC =       303.24440577
  Ewald energy   TEWEN  =     -8856.34365241
  -Hartree energ DENC   =     -2188.46251164
  -exchange      EXHF   =         0.00000000
  -V(xc)+E(xc)   XCENC  =       538.31337025
  PAW double counting   =      9851.25661167    -9995.80150338
  entropy T*S    EENTRO =        -0.00000000
  eigenvalues    EBANDS =     -2613.93243512
  atomic energy  EATOM  =     12703.13999606
  Solvation  Ediel_sol  =         0.00000000
  ---------------------------------------------------
  free energy    TOTEN  =      -258.58571881 eV

  energy without entropy =     -258.58571881  energy(sigma->0) =     -258.58571881


--------------------------------------------------------------------------------------------------------




--------------------------------------- Iteration      1(  15)  ---------------------------------------


    POTLOK:  cpu time      0.0533: real time      0.0544
    SETDIJ:  cpu time      0.3986: real time      0.4003
    EDDIAG:  cpu time      0.3589: real time      0.3614
  RMM-DIIS:  cpu time      1.2891: real time      1.3005
    ORTHCH:  cpu time      0.0675: real time      0.0679
       DOS:  cpu time      0.0005: real time      0.0005
    CHARGE:  cpu time      0.0646: real time      0.0659
    MIXING:  cpu time      0.0011: real time      0.0011
    --------------------------------------------
      LOOP:  cpu time      2.2337: real time      2.2520

 eigenvalue-minimisations  :  3064
 total energy-change (2. order) : 0.2836707E-01  (-0.3339920E-01)
 number of electron     239.9999994 magnetization      -0.2188455
 augmentation part        1.8174685 magnetization      -0.1920006

 Broyden mixing:
  rms(total) = 0.68621E-01    rms(broyden)= 0.68618E-01
  rms(prec ) = 0.81177E-01
  weight for this iteration     100.00

 eigenvalues of (default mixing * dielectric matrix)
  average eigenvalue GAMMA=   1.2713
  2.5329  1.5910  0.9475  0.6848  0.6002

 Free energy of the ion-electron system (eV)
  ---------------------------------------------------
  alpha Z        PSCENC =       303.24440577
  Ewald energy   TEWEN  =     -8856.34365241
  -Hartree energ DENC   =     -2183.94876954
  -exchange      EXHF   =         0.00000000
  -V(xc)+E(xc)   XCENC  =       537.96251359
  PAW double counting   =      9822.77186743    -9967.13229351
  entropy T*S    EENTRO =        -0.00000000
  eigenvalues    EBANDS =     -2618.25141912
  atomic energy  EATOM  =     12703.13999606
  Solvation  Ediel_sol  =         0.00000000
  ---------------------------------------------------
  free energy    TOTEN  =      -258.55735174 eV

  energy without entropy =     -258.55735174  energy(sigma->0) =     -258.55735174


--------------------------------------------------------------------------------------------------------




--------------------------------------- Iteration      1(  16)  ---------------------------------------


    POTLOK:  cpu time      0.0521: real time      0.0531
    SETDIJ:  cpu time      0.3993: real time      0.4004
    EDDIAG:  cpu time      0.3565: real time      0.3589
  RMM-DIIS:  cpu time      1.2737: real time      1.2848
    ORTHCH:  cpu time      0.0672: real time      0.0675
       DOS:  cpu time      0.0005: real time      0.0005
    CHARGE:  cpu time      0.0648: real time      0.0657
    MIXING:  cpu time      0.0012: real time      0.0012
    --------------------------------------------
      LOOP:  cpu time      2.2152: real time      2.2322

 eigenvalue-minimisations  :  3057
 total energy-change (2. order) :-0.1918802E-01  (-0.1037581E-01)
 number of electron     239.9999994 magnetization      -0.1038212
 augmentation part        1.7955996 magnetization      -0.0891082

 Broyden mixing:
  rms(total) = 0.30804E-01    rms(broyden)= 0.30802E-01
  rms(prec ) = 0.37172E-01
  weight for this iteration     100.00

 eigenvalues of (default mixing * dielectric matrix)
  average eigenvalue GAMMA=   1.2499
  2.4501  1.9479  1.0379  0.6199  0.6982  0.7455

 Free energy of the ion-electron system (eV)
  ---------------------------------------------------
  alpha Z        PSCENC =       303.24440577
  Ewald energy   TEWEN  =     -8856.34365241
  -Hartree energ DENC   =     -2183.40115815
  -exchange      EXHF   =         0.00000000
  -V(xc)+E(xc)   XCENC  =       537.88449964
  PAW double counting   =      9811.98657705    -9956.12827655
  entropy T*S    EENTRO =        -0.00000000
  eigenvalues    EBANDS =     -2618.95893117
  atomic energy  EATOM  =     12703.13999606
[...]
 -0.478   0.492   0.001   0.381  -0.019   0.097   0.003  -0.000   0.001   0.000   0.002   0.004  -0.002  -0.000
 -0.331   0.340   0.001  -0.019   0.480  -0.096  -0.000   0.004  -0.001  -0.002   0.002  -0.000   0.005  -0.004
 -0.290   0.297   0.001   0.097  -0.096   0.708   0.001  -0.001   0.005  -0.006  -0.002   0.006  -0.005  -0.005
 -0.004   0.004   0.000   0.003  -0.000   0.001   0.000  -0.000   0.000   0.000   0.000   0.000  -0.000  -0.000
 -0.003   0.002   0.000  -0.000   0.004  -0.001  -0.000   0.000  -0.000  -0.000   0.000  -0.000   0.000  -0.000
 -0.002   0.002   0.000   0.001  -0.001   0.005   0.000  -0.000   0.000  -0.000  -0.000   0.000  -0.000  -0.000
  0.012  -0.013  -0.000   0.000  -0.002  -0.006   0.000  -0.000  -0.000   0.000   0.000  -0.000  -0.000   0.000
 -0.001   0.001   0.000   0.002   0.002  -0.002   0.000   0.000  -0.000   0.000   0.000   0.000   0.000   0.000
 -0.002   0.002   0.000   0.004  -0.000   0.006   0.000  -0.000   0.000  -0.000   0.000   0.000  -0.000  -0.000
 -0.013   0.013   0.000  -0.002   0.005  -0.005  -0.000   0.000  -0.000  -0.000   0.000  -0.000   0.000  -0.000
  0.020  -0.020  -0.000  -0.000  -0.004  -0.005  -0.000  -0.000  -0.000   0.000   0.000  -0.000  -0.000   0.000
 total augmentation occupancy for first ion, spin component:           2
  0.000  -0.000   0.000   0.000   0.000  -0.000   0.000  -0.000  -0.000  -0.000   0.000  -0.000   0.000   0.000
 -0.000   0.000  -0.000   0.000  -0.000   0.000  -0.000   0.000   0.000   0.000   0.000   0.000  -0.000  -0.000
  0.000  -0.000  -0.000  -0.000  -0.000  -0.000  -0.000  -0.000  -0.000   0.000  -0.000  -0.000   0.000   0.000
  0.000   0.000  -0.000   0.000  -0.000  -0.000   0.000  -0.000  -0.000   0.000   0.000   0.000   0.000   0.000
  0.000  -0.000  -0.000  -0.000  -0.000   0.000  -0.000   0.000   0.000   0.000  -0.000   0.000  -0.000  -0.000
 -0.000   0.000  -0.000  -0.000   0.000   0.000  -0.000   0.000   0.000  -0.000  -0.000  -0.000   0.000   0.000
  0.000  -0.000  -0.000   0.000  -0.000  -0.000  -0.000  -0.000  -0.000   0.000  -0.000   0.000   0.000   0.000
 -0.000   0.000  -0.000  -0.000   0.000   0.000  -0.000   0.000   0.000  -0.000   0.000  -0.000  -0.000  -0.000
 -0.000   0.000  -0.000  -0.000   0.000   0.000  -0.000   0.000   0.000  -0.000   0.000  -0.000  -0.000   0.000
 -0.000   0.000   0.000   0.000   0.000  -0.000   0.000  -0.000  -0.000  -0.000  -0.000  -0.000   0.000   0.000
  0.000   0.000  -0.000   0.000  -0.000  -0.000  -0.000   0.000   0.000  -0.000  -0.000   0.000  -0.000   0.000
 -0.000   0.000  -0.000   0.000   0.000  -0.000   0.000  -0.000  -0.000  -0.000   0.000   0.000  -0.000   0.000
  0.000  -0.000   0.000   0.000  -0.000   0.000   0.000  -0.000  -0.000   0.000  -0.000  -0.000  -0.000  -0.000
  0.000  -0.000   0.000   0.000  -0.000   0.000   0.000  -0.000   0.000   0.000   0.000   0.000  -0.000   0.000


------------------------ aborting loop because EDIFF is reached ----------------------------------------


    CHARGE:  cpu time      0.0658: real time      0.0665
    FORLOC:  cpu time      0.0038: real time      0.0038
    FORNL :  cpu time      0.3988: real time      0.4013
    STRESS:  cpu time      1.1858: real time      1.1933
    FORCOR:  cpu time      0.0500: real time      0.0504
    FORHAR:  cpu time      0.0087: real time      0.0088
    MIXING:  cpu time      0.0007: real time      0.0007
    OFIELD:  cpu time      0.0000: real time      0.0000

 ---------------------------------------------------------------------------------------------

         DFTD3 V3.0 Rev 1        
 Edisp (eV)  -13.66906

 E6    (eV) :    -8.4251
 E8    (eV) :    -5.2439
 % E8        : 38.36
    FORVDW:  cpu time      0.2782: real time      0.2800

  FORCE on cell =-STRESS in cart. coord.  units (eV):
  Direction    XX          YY          ZZ          XY          YZ          ZX
  --------------------------------------------------------------------------------------
  Alpha Z   303.24441   303.24441   303.24441
  Ewald   -2955.90051 -2945.80096 -2954.70539   -27.79074   -66.93951   -44.42247
  Hartree   732.05201   728.24157   725.62989    -5.87628   -27.96956   -14.97337
  E(xc)    -947.81215  -947.71901  -947.80033    -0.06482    -0.17051    -0.09824
  Local   -1489.30727 -1490.58118 -1480.13236    29.92087    90.05713    56.03033
  n-local  1481.97428  1481.34711  1481.51644    -0.51574    -0.82305    -0.96482
  augment  -357.29875  -356.78419  -357.01398    -0.05280    -0.22914    -0.01492
  Kinetic  3248.22357  3241.05695  3244.35329     2.68671     5.89290     2.58745
  Fock        0.00000     0.00000     0.00000     0.00000     0.00000     0.00000
  vdW       -14.40989   -14.45425   -14.43853    -0.00415    -0.00853    -0.00131
  -------------------------------------------------------------------------------------
  Total       0.76570    -1.44955     0.65345    -1.69697    -0.19027    -1.85734
  in kB       1.37044    -2.59440     1.16954    -3.03721    -0.34054    -3.32424
  external pressure =       -0.02 kB  Pullay stress =        0.00 kB


 VOLUME and BASIS-vectors are now :
 -----------------------------------------------------------------------------
  energy-cutoff  :      520.00
  volume of cell :      895.18
      direct lattice vectors                 reciprocal lattice vectors
     9.637617466  0.000000000  0.000000000     0.103760084  0.000000000  0.000000000
     0.000000000  9.637617466  0.000000000     0.000000000  0.103760084  0.000000000
     0.000000000  0.000000000  9.637617466     0.000000000  0.000000000  0.103760084

  length of vectors
     9.637617466  9.637617466  9.637617466     0.103760084  0.103760084  0.103760084


 FORCES acting on ions
    electron-ion (+dipol)            ewald-force                    non-local-force                 convergence-correction
 -----------------------------------------------------------------------------------------------
   -.397E+01 -.507E+01 -.292E+00   0.319E+01 0.387E+01 -.592E+00   0.773E+00 0.120E+01 0.880E+00   0.124E-03 -.333E-03 0.545E-04
   0.133E+01 0.757E+01 0.121E+02   -.242E+01 -.661E+01 -.105E+02   0.109E+01 -.961E+00 -.157E+01   0.318E-04 0.246E-04 0.128E-03
   0.492E+01 -.152E+01 -.467E+01   -.411E+01 0.540E+00 0.560E+01   -.801E+00 0.978E+00 -.939E+00   -.839E-04 -.498E-04 0.340E-04
   0.320E+01 -.809E+01 0.289E-01   -.232E+01 0.691E+01 0.113E+01   -.880E+00 0.119E+01 -.116E+01   -.532E-04 0.797E-04 -.548E-04
   -.536E+01 0.194E+01 -.254E+01   0.406E+01 -.284E+01 0.196E+01   0.130E+01 0.891E+00 0.585E+00   -.127E-03 -.214E-04 0.270E-05
   -.105E+01 -.567E+01 0.305E+01   0.218E+01 0.487E+01 -.230E+01   -.113E+01 0.802E+00 -.746E+00   0.349E-04 0.898E-05 -.766E-04
   -.145E+02 0.659E+01 -.261E+01   0.133E+02 -.518E+01 0.356E+01   0.120E+01 -.141E+01 -.945E+00   -.124E-04 -.153E-04 -.139E-03
   0.206E+01 0.274E+01 -.442E+01   -.298E+01 -.346E+01 0.353E+01   0.922E+00 0.718E+00 0.888E+00   0.657E-04 0.156E-04 -.412E-04
   0.318E+01 -.408E+01 -.108E+02   -.425E+01 0.338E+01 0.949E+01   0.106E+01 0.694E+00 0.128E+01   -.348E-06 0.176E-03 -.141E-03
   0.627E+01 -.252E+01 -.126E+02   -.494E+01 0.353E+01 0.114E+02   -.133E+01 -.101E+01 0.127E+01   -.671E-04 0.100E-03 0.774E-04
   0.799E+00 -.336E+01 0.567E+01   -.159E+01 0.291E+01 -.658E+01   0.793E+00 0.444E+00 0.923E+00   -.355E-04 0.270E-03 0.323E-04
   -.822E+01 -.708E+00 0.244E+01   0.920E+01 0.141E+01 -.278E+01   -.980E+00 -.698E+00 0.345E+00   0.341E-04 0.130E-03 0.347E-04
   0.140E+02 0.580E+01 -.466E+00   -.126E+02 -.449E+01 -.756E+00   -.139E+01 -.131E+01 0.122E+01   0.109E-04 -.675E-04 0.939E-04
   -.623E+01 0.570E+01 0.535E+01   0.716E+01 -.619E+01 -.456E+01   -.937E+00 0.489E+00 -.781E+00   -.121E-03 -.414E-04 -.308E-04
   0.441E+01 -.948E+01 -.768E+01   -.310E+01 0.838E+01 0.870E+01   -.131E+01 0.109E+01 -.102E+01   0.110E-03 0.775E-04 0.135E-03
   -.150E+01 -.851E+01 -.548E+01   0.659E-01 0.731E+01 0.458E+01   0.144E+01 0.120E+01 0.897E+00   0.484E-04 -.167E-03 0.147E-03
   -.126E+01 -.446E+01 -.150E+01   0.240E+00 0.359E+01 0.510E+00   0.102E+01 0.865E+00 0.991E+00   0.627E-06 -.567E-04 0.423E-04
   -.845E+01 -.393E+01 0.318E+01   0.716E+01 0.458E+01 -.203E+01   0.129E+01 -.650E+00 -.115E+01   -.217E-04 -.145E-03 -.116E-03
   0.141E+02 -.336E+01 0.132E+02   -.126E+02 0.215E+01 -.116E+02   -.144E+01 0.121E+01 -.165E+01   -.109E-04 -.117E-03 -.589E-04
   -.198E+01 0.636E+01 -.159E+01   0.310E+01 -.584E+01 0.841E+00   -.113E+01 -.506E+00 0.755E+00   -.188E-04 -.141E-03 -.729E-04
   -.437E+01 0.141E+02 0.135E+02   0.321E+01 -.126E+02 -.125E+02   0.115E+01 -.148E+01 -.927E+00   0.205E-03 0.186E-03 0.320E-04
   0.188E+00 0.489E+01 -.422E+00   -.847E+00 -.559E+01 -.786E+00   0.656E+00 0.697E+00 0.122E+01   -.367E-04 0.637E-04 -.427E-04
   0.318E+01 -.321E+01 -.461E+01   -.243E+01 0.412E+01 0.332E+01   -.752E+00 -.911E+00 0.130E+01   0.896E-05 0.958E-05 0.729E-04
   0.656E+01 -.154E+01 -.485E+01   -.555E+01 0.278E+01 0.389E+01   -.100E+01 -.124E+01 0.965E+00   0.849E-05 -.576E-04 -.162E-04
   -.394E+01 0.272E+01 -.271E+01   0.419E+01 -.275E+01 0.253E+01   -.246E+00 0.328E-01 0.176E+00   0.468E-05 -.258E-03 0.106E-03
   0.136E+01 0.433E+01 0.134E+01   -.141E+01 -.368E+01 -.128E+01   0.410E-01 -.642E+00 -.689E-01   -.530E-06 0.494E-04 0.169E-03
   -.514E+00 -.957E+00 0.744E+00   0.744E+00 0.586E+00 -.510E+00   -.234E+00 0.365E+00 -.229E+00   0.505E-04 -.667E-04 -.322E-03
   -.200E+01 -.114E+01 0.442E+00   0.221E+01 0.967E+00 -.427E+00   -.201E+00 0.162E+00 -.157E-01   -.291E-03 0.263E-03 0.129E-03
   -.601E+02 0.334E+02 -.341E+02   0.639E+02 -.357E+02 0.367E+02   -.377E+01 0.235E+01 -.255E+01   -.380E-03 -.686E-04 0.439E-03
   -.259E+02 -.288E+02 0.656E+02   0.280E+02 0.310E+02 -.703E+02   -.217E+01 -.227E+01 0.471E+01   -.111E-03 0.534E-03 -.304E-04
   0.288E+02 0.581E+02 0.245E+02   -.312E+02 -.623E+02 -.262E+02   0.237E+01 0.420E+01 0.173E+01   -.741E-04 0.393E-03 0.376E-04
   0.481E+02 -.284E+02 -.394E+02   -.514E+02 0.311E+02 0.427E+02   0.332E+01 -.269E+01 -.329E+01   -.318E-03 0.197E-03 0.136E-03
   0.336E+02 -.254E+02 -.665E+02   -.361E+02 0.271E+02 0.710E+02   0.245E+01 -.172E+01 -.444E+01   -.887E-04 0.174E-03 -.407E-03
   0.459E+02 0.426E+02 0.272E+02   -.491E+02 -.460E+02 -.293E+02   0.327E+01 0.346E+01 0.213E+01   -.929E-04 -.277E-03 -.233E-03
   -.298E+02 -.442E+02 0.452E+02   0.321E+02 0.478E+02 -.487E+02   -.226E+01 -.357E+01 0.356E+01   -.740E-04 -.196E-03 0.401E-05
   -.320E+02 0.648E+02 -.300E+02   0.346E+02 -.687E+02 0.323E+02   -.263E+01 0.387E+01 -.228E+01   0.206E-03 -.343E-03 -.636E-05
   -.322E+02 -.574E+02 0.388E+02   0.345E+02 0.612E+02 -.413E+02   -.233E+01 -.389E+01 0.247E+01   0.656E-03 0.237E-03 -.459E-03
   -.354E+02 0.539E+02 -.210E+02   0.384E+02 -.578E+02 0.237E+02   -.303E+01 0.385E+01 -.269E+01   -.192E-05 0.411E-03 -.217E-03
   0.589E+02 -.349E+02 -.304E+02   -.628E+02 0.377E+02 0.329E+02   0.391E+01 -.280E+01 -.247E+01   0.920E-04 -.984E-05 -.149E-03
   0.364E+02 0.228E+02 0.593E+02   -.387E+02 -.246E+02 -.637E+02   0.229E+01 0.177E+01 0.442E+01   -.128E-03 -.249E-04 0.708E-04
   -.676E+02 -.191E+02 0.381E+02   0.719E+02 0.211E+02 -.404E+02   -.427E+01 -.194E+01 0.230E+01   -.662E-04 -.221E-03 0.138E-03
   -.282E+02 0.528E+02 -.432E+02   0.302E+02 -.566E+02 0.466E+02   -.197E+01 0.384E+01 -.348E+01   0.134E-03 -.327E-03 0.311E-03
   0.362E+02 -.648E+02 -.287E+02   -.388E+02 0.691E+02 0.304E+02   0.256E+01 -.431E+01 -.166E+01   -.115E-03 -.262E-03 0.291E-03
   0.417E+02 0.296E+02 0.438E+02   -.448E+02 -.318E+02 -.473E+02   0.315E+01 0.217E+01 0.349E+01   0.567E-04 -.228E-03 0.574E-04
   -.357E+01 0.259E+01 0.146E+02   0.376E+01 -.272E+01 -.149E+02   -.197E+00 0.126E+00 0.302E+00   0.964E-04 -.102E-04 0.496E-04
   -.374E+01 -.150E+01 0.121E+02   0.383E+01 0.156E+01 -.123E+02   -.788E-01 -.536E-01 0.199E+00   0.137E-03 -.251E-03 0.103E-03
   0.594E+01 0.531E+01 0.482E+00   -.606E+01 -.550E+01 -.435E+00   0.116E+00 0.191E+00 -.429E-01   0.247E-04 0.796E-04 -.271E-03
   -.635E+01 0.190E+02 -.242E+01   0.663E+01 -.193E+02 0.244E+01   -.279E+00 0.312E+00 -.220E-01   -.920E-04 0.109E-03 0.155E-03
   -.226E+02 -.362E+02 -.126E+02   0.229E+02 0.369E+02 0.129E+02   -.296E+00 -.670E+00 -.261E+00   -.253E-03 0.287E-03 -.292E-03
   0.165E+02 -.385E+02 0.135E+02   -.168E+02 0.391E+02 -.137E+02   0.302E+00 -.608E+00 0.294E+00   0.255E-04 -.643E-03 0.382E-03
   0.128E+02 -.542E+01 -.505E+02   -.130E+02 0.549E+01 0.513E+02   0.199E+00 -.683E-01 -.809E+00   0.430E-03 0.524E-03 -.200E-03
   -.190E+02 0.820E+00 -.217E+02   0.193E+02 -.874E+00 0.221E+02   -.333E+00 0.521E-01 -.369E+00   -.176E-03 -.708E-04 -.298E-03
 -----------------------------------------------------------------------------------------------
   0.672E+00 -.381E+01 -.371E+01   -.249E-13 0.459E-13 -.355E-13   -.690E+00 0.381E+01 0.371E+01   -.256E-03 -.715E-04 -.210E-03
 
 
 POSITION                                       TOTAL-FORCE (eV/Angst)
 -----------------------------------------------------------------------------------
      9.50408      3.30777      2.72794        -0.000275      0.000872     -0.000219
      9.28617      6.62340      6.39307         0.000038      0.000362     -0.000365
      0.30131      3.07663      6.84540         0.000128      0.000273      0.000020
      0.22838      7.93587      2.02514         0.000010      0.000136      0.000231
      3.39034      2.77221      9.25523         0.000559     -0.000252     -0.000111
      2.05868      7.79876      0.05604        -0.000162      0.000164     -0.000008
      8.09370      1.65791      0.39976         0.000140     -0.000001      0.000171
      7.93707      7.44488      9.44583         0.000197     -0.000063      0.000116
      2.88930      9.40935      3.17746        -0.000255     -0.000216      0.000638
      1.55886      0.41327      7.76578        -0.000174      0.000133     -0.000130
      7.67902      9.35746      7.63626        -0.000210      0.000038      0.000075
      6.94820      0.16383      2.85643        -0.000019     -0.000095      0.000010
      1.85774      6.44229      4.36061         0.000207     -0.000317     -0.000113
      2.07149      2.80215      4.88704        -0.000066     -0.000221     -0.000155
      6.41790      7.71330      5.21818        -0.000371     -0.000230      0.000161
      7.70723      3.04753      4.67001         0.000056     -0.000059     -0.000043
      2.95433      4.68673      7.44165        -0.000011      0.000057      0.000032
      3.09395      5.21402      1.55435         0.000037      0.000013     -0.000109
      6.63789      4.46400      1.55253        -0.000007     -0.000070     -0.000196
      6.72712      4.86032      7.71542         0.000081      0.000043     -0.000291
      4.51202      1.31447      6.57624        -0.000187     -0.000398      0.000125
      4.69663      7.47451      2.77247         0.000037     -0.000022      0.000033
      5.11527      2.05575      3.02083        -0.000096     -0.000012      0.000027
      5.00271      6.88066      7.94375         0.000164      0.000047      0.000381
      4.88800      4.83442      4.75246        -0.000074     -0.000269     -0.000027
      4.91402      0.04768      0.01804         0.000098      0.000120     -0.000097
      0.15404      4.78500      9.60997         0.000221     -0.000129     -0.000040
      0.02930      0.00000      4.82263        -0.000030      0.000116      0.000002
      1.32061      8.45891      5.89429         0.000265      0.000129     -0.000343
      1.02590      1.16418      3.45637        -0.000127      0.000016     -0.000321
      8.43690      8.29294      3.86432         0.000021     -0.000013      0.000197
      8.56917      1.21385      6.06410        -0.000027      0.000204      0.000373
      8.70367      5.83949      1.36576         0.000154     -0.000107     -0.000044
      8.47633      3.57374      8.59430        -0.000206     -0.000100     -0.000133
      1.14622      6.02776      8.30926        -0.000019      0.000148     -0.000107
      1.45406      3.55659      0.95907         0.000146     -0.000119     -0.000030
      6.09968      1.30269      8.55315         0.000124      0.000399      0.000040
      6.08341      8.36120      1.07156        -0.000114     -0.000048      0.000019
      3.72349      1.12425      1.27913        -0.000061     -0.000263      0.000111
      3.68170      8.75985      8.27385        -0.000072     -0.000090      0.000037
      6.24511      5.86198      3.61343        -0.000171     -0.000035      0.000028
      5.81456      3.48306      5.98297         0.000213     -0.000364      0.000185
      3.81192      6.21456      5.83783         0.000161      0.000025      0.000003
      3.62897      3.83419      3.47036        -0.000148      0.000035     -0.000085
      7.20893      7.10806      7.29961         0.000025      0.000042      0.000072
      7.33159      2.41383      2.46336        -0.000096     -0.000026      0.000039
      2.45300      7.30599      2.28087         0.000031     -0.000006     -0.000005
      2.50014      2.44492      7.11772         0.000001      0.000068     -0.000064
      9.54650      9.32352      9.53714        -0.000223     -0.000067     -0.000061
      0.16270      4.56701      4.89559         0.000035     -0.000071     -0.000008
      4.97902      9.59837      4.45105         0.000118      0.000143     -0.000041
      4.76533      4.87998      9.38990        -0.000069      0.000081      0.000022
 -----------------------------------------------------------------------------------
    total drift:                               -0.018071      0.004192     -0.008266


--------------------------------------------------------------------------------------------------------



  FREE ENERGIE OF THE ION-ELECTRON SYSTEM (eV)
  ---------------------------------------------------
  free  energy   TOTEN  =      -272.25324835 eV

  energy  without entropy=     -272.25324835  energy(sigma->0) =     -272.25324835
 
 d Force = 0.5437268E-06[ 0.434E-06, 0.653E-06]  d Energy = 0.1518702E-05-0.975E-06
 d Force = 0.6788306E-02[ 0.679E-02, 0.679E-02]  d Ewald  = 0.6788306E-02 0.000E+00


--------------------------------------------------------------------------------------------------------


    POTLOK:  cpu time      0.4675: real time      0.4692


--------------------------------------------------------------------------------------------------------


 stress matrix after NEB project (eV)
      0.76570     -1.69697     -1.85734
     -1.69697     -1.44955     -0.19027
     -1.85734     -0.19027      0.65345
  FORCES: max atom, RMS     0.000941    0.000315
  FORCE total and by dimension    0.002272    0.000872
  Stress total and by dimension    3.980668    1.857340


--------------------------------------------------------------------------------------------------------


  
 reached required accuracy - stopping structural energy minimisation
     LOOP+:  cpu time      7.6806: real time      7.7530
    4ORBIT:  cpu time      0.0000: real time      0.0000

 total amount of memory used by VASP MPI-rank0    48177. kBytes
=======================================================================

   base      :      30000. kBytes
   nonlr-proj:       6607. kBytes
   fftplans  :       1747. kBytes
   grid      :       5278. kBytes
   one-center:         62. kBytes
   wavefun   :       4483. kBytes
 
  
  
 General timing and accounting informations for this job:
 ========================================================
  
                  Total CPU time used (sec):      105.841
                            User time (sec):      104.679
                          System time (sec):        1.162
                         Elapsed time (sec):      110.230
  
                   Maximum memory used (kb):      381156.
                   Average memory used (kb):          N/A
  
                          Minor page faults:        63006
                          Major page faults:          134
                 Voluntary context switches:         5770
