<?xml version="1.0" encoding="ISO-8859-1"?>
<modeling>
 <generator>
  <i name="program" type="string">vasp </i>
  <i name="version" type="string">6.4.1  </i>
  <i name="subversion" type="string">05Apr23 (build Jun 07 2023 15:38:11) complex                          parallel </i>
  <i name="platform" type="string">LinuxIFC </i>
  <i name="date" type="string">2023 10 24 </i>
  <i name="time" type="string">22:54:24 </i>
 </generator>
 <incar>
  <i type="string" name="PREC">Accu</i>
  <i type="string" name="ALGO">F</i>
  <i type="logical" name="LDIAG"> T  </i>
  <i type="int" name="ISPIN">     2</i>
  <i type="int" name="NELM">   100</i>
  <i type="int" name="NELMDL">   -10</i>
  <i type="int" name="IBRION">     2</i>
  <i name="EDIFF">      0.00000100</i>
  <i name="EDIFFG">     -0.00100000</i>
  <i type="int" name="NSW">  1000</i>
  <i type="int" name="ISIF">     2</i>
  <i name="ENCUT">    520.00000000</i>
  <i name="POTIM">      0.20000000</i>
  <i type="string" name="LREAL">Auto</i>
  <i type="logical" name="LPLANE"> T  </i>
  <i type="int" name="ISMEAR">     0</i>
  <i name="SIGMA">      0.03000000</i>
  <i type="int" name="LMAXMIX">     4</i>
  <i type="logical" name="LWAVE"> F  </i>
  <i type="logical" name="LCHARG"> F  </i>
  <i type="logical" name="LASPH"> T  </i>
  <i type="string" name="GGA">PE</i>
  <i type="int" name="IVDW">    12</i>
 </incar>
 <primitive_cell>
  <structure name="primitive_cell" >
   <crystal>
    <varray name="basis" >
     <v>       9.63761747       0.00000000       0.00000000 </v>
     <v>       0.00000000       9.63761747       0.00000000 </v>
     <v>       0.00000000       0.00000000       9.63761747 </v>
    </varray>
    <i name="volume">    895.17728444 </i>
    <varray name="rec_basis" >
     <v>       0.10376008       0.00000000       0.00000000 </v>
     <v>       0.00000000       0.10376008       0.00000000 </v>
     <v>       0.00000000       0.00000000       0.10376008 </v>
    </varray>
   </crystal>
   <varray name="positions" >
    <v>       0.98615219       0.34318377       0.28306110 </v>
    <v>       0.96353323       0.68723259       0.66335939 </v>
    <v>       0.03126115       0.31922208       0.71027896 </v>
    <v>       0.02369580       0.82342132       0.21012164 </v>
    <v>       0.35176232       0.28765258       0.96032909 </v>
    <v>       0.21361357       0.80919359       0.00581558 </v>
    <v>       0.83979726       0.17202467       0.04147599 </v>
    <v>       0.82354343       0.77248365       0.98009880 </v>
    <v>       0.29980381       0.97632213       0.32967128 </v>
    <v>       0.16175400       0.04287609       0.80578244 </v>
    <v>       0.79678249       0.97092665       0.79233586 </v>
    <v>       0.72094722       0.01700269       0.29638229 </v>
    <v>       0.19275248       0.66846385       0.45246178 </v>
    <v>       0.21494177       0.29075864       0.50708568 </v>
    <v>       0.66593466       0.80033965       0.54143300 </v>
    <v>       0.79970014       0.31621437       0.48455961 </v>
    <v>       0.30653959       0.48629337       0.77214400 </v>
    <v>       0.32102687       0.54100761       0.16128664 </v>
    <v>       0.68874891       0.46318740       0.16109876 </v>
    <v>       0.69800501       0.50430846       0.80056293 </v>
    <v>       0.46817140       0.13640279       0.68234772 </v>
    <v>       0.48732290       0.77555672       0.28766944 </v>
    <v>       0.53076440       0.21330474       0.31343866 </v>
    <v>       0.51907573       0.71393694       0.82423189 </v>
    <v>       0.50717766       0.50161706       0.49311943 </v>
    <v>       0.50988682       0.00495251       0.00185892 </v>
    <v>       0.01598181       0.49648852       0.99713423 </v>
    <v>       0.00303895       0.00000151       0.50040030 </v>
    <v>       0.13701465       0.87769017       0.61160432 </v>
    <v>       0.10646137       0.12079436       0.35864331 </v>
    <v>       0.87541580       0.86047829       0.40095225 </v>
    <v>       0.88913134       0.12594788       0.62920599 </v>
    <v>       0.90308698       0.60591091       0.14170776 </v>
    <v>       0.87950572       0.37081054       0.89174444 </v>
    <v>       0.11893577       0.62543989       0.86217119 </v>
    <v>       0.15086929       0.36903632       0.09952251 </v>
    <v>       0.63290596       0.13515980       0.88746833 </v>
    <v>       0.63121811       0.86756046       0.11118725 </v>
    <v>       0.38635392       0.11666237       0.13271867 </v>
    <v>       0.38201356       0.90891978       0.85849625 </v>
    <v>       0.64799357       0.60824598       0.37493025 </v>
    <v>       0.60332106       0.36140836       0.62079673 </v>
    <v>       0.39551757       0.64482271       0.60573335 </v>
    <v>       0.37654656       0.39783238       0.36008502 </v>
    <v>       0.74799584       0.73753177       0.75740616 </v>
    <v>       0.76072891       0.25045975       0.25559802 </v>
    <v>       0.25452306       0.75807160       0.23666574 </v>
    <v>       0.25941228       0.25368263       0.73853862 </v>
    <v>       0.99054229       0.96740822       0.98957198 </v>
    <v>       0.01688480       0.47386547       0.50796779 </v>
    <v>       0.51662648       0.99593054       0.46183378 </v>
    <v>       0.49444349       0.50635156       0.97429583 </v>
   </varray>
  </structure>
  <varray name="primitive_index" >
   <v type="int" >        1 </v>
   <v type="int" >        2 </v>
   <v type="int" >        3 </v>
   <v type="int" >        4 </v>
   <v type="int" >        5 </v>
   <v type="int" >        6 </v>
   <v type="int" >        7 </v>
   <v type="int" >        8 </v>
   <v type="int" >        9 </v>
   <v type="int" >       10 </v>
   <v type="int" >       11 </v>
   <v type="int" >       12 </v>
   <v type="int" >       13 </v>
   <v type="int" >       14 </v>
   <v type="int" >       15 </v>
   <v type="int" >       16 </v>
   <v type="int" >       17 </v>
   <v type="int" >       18 </v>
   <v type="int" >       19 </v>
   <v type="int" >       20 </v>
   <v type="int" >       21 </v>
   <v type="int" >       22 </v>
   <v type="int" >       23 </v>
   <v type="int" >       24 </v>
   <v type="int" >       25 </v>
   <v type="int" >       26 </v>
   <v type="int" >       27 </v>
   <v type="int" >       28 </v>
   <v type="int" >       29 </v>
   <v type="int" >       30 </v>
   <v type="int" >       31 </v>
   <v type="int" >       32 </v>
   <v type="int" >       33 </v>
   <v type="int" >       34 </v>
   <v type="int" >       35 </v>
   <v type="int" >       36 </v>
   <v type="int" >       37 </v>
   <v type="int" >       38 </v>
   <v type="int" >       39 </v>
   <v type="int" >       40 </v>
   <v type="int" >       41 </v>
   <v type="int" >       42 </v>
   <v type="int" >       43 </v>
   <v type="int" >       44 </v>
   <v type="int" >       45 </v>
   <v type="int" >       46 </v>
   <v type="int" >       47 </v>
   <v type="int" >       48 </v>
   <v type="int" >       49 </v>
   <v type="int" >       50 </v>
   <v type="int" >       51 </v>
   <v type="int" >       52 </v>
  </varray>
 </primitive_cell>
 <kpoints>
  <generation param="Monkhorst-Pack">
   <v type="int" name="divisions">       2        2        2 </v>
   <v name="usershift">      0.00000000       0.00000000       0.00000000 </v>
   <v name="genvec1">      0.50000000       0.00000000       0.00000000 </v>
   <v name="genvec2">      0.00000000       0.50000000       0.00000000 </v>
   <v name="genvec3">      0.00000000       0.00000000       0.50000000 </v>
   <v name="shift">      0.50000000       0.50000000       0.50000000 </v>
  </generation>
  <varray name="kpointlist" >
   <v>       0.25000000       0.25000000       0.25000000 </v>
   <v>      -0.25000000       0.25000000       0.25000000 </v>
   <v>      -0.25000000      -0.25000000       0.25000000 </v>
   <v>       0.25000000      -0.25000000       0.25000000 </v>
  </varray>
  <varray name="weights" >
   <v>       0.25000000 </v>
   <v>       0.25000000 </v>
   <v>       0.25000000 </v>
   <v>       0.25000000 </v>
  </varray>
 </kpoints>
 <parameters>
  <separator name="general" >
   <i type="string" name="SYSTEM">unknown system</i>
   <i type="logical" name="LCOMPAT"> F  </i>
  </separator>
  <separator name="electronic" >
   <i type="string" name="PREC">accu</i>
   <i name="ENMAX">    520.00000000</i>
   <i name="ENAUG">   1041.69900000</i>
   <i name="EDIFF">      0.00000100</i>
   <i type="int" name="IALGO">    68</i>
   <i type="int" name="IWAVPR">    11</i>
   <i type="int" name="NBANDS">   176</i>
   <i type="int" name="NBANDSLOW">    -1</i>
   <i type="int" name="NBANDSHIGH">    -1</i>
   <i name="NELECT">    240.00000000</i>
   <i type="int" name="TURBO">     0</i>
   <i type="int" name="IRESTART">     0</i>
   <i type="int" name="NREBOOT">     0</i>
   <i type="int" name="NMIN">     0</i>
   <i name="EREF">      0.00000000</i>
   <separator name="electronic smearing" >
    <i type="int" name="ISMEAR">     0</i>
    <i name="SIGMA">      0.03000000</i>
    <i name="KSPACING">      0.50000000</i>
    <i type="logical" name="KGAMMA"> T  </i>
    <i type="logical" name="KBLOWUP"> T  </i>
   </separator>
   <separator name="electronic projectors" >
    <i type="logical" name="LREAL"> T  </i>
    <v name="ROPT">     -0.00025000     -0.00025000     -0.00025000     -0.00025000</v>
    <i type="int" name="LMAXPAW">  -100</i>
    <i type="int" name="LMAXMIX">     4</i>
    <i type="logical" name="NLSPLINE"> F  </i>
   </separator>
   <separator name="electronic startup" >
    <i type="int" name="ISTART">     0</i>
    <i type="int" name="ICHARG">     2</i>
    <i type="int" name="INIWAV">     1</i>
   </separator>
   <separator name="electronic spin" >
    <i type="int" name="ISPIN">     2</i>
    <i type="logical" name="LNONCOLLINEAR"> F  </i>
    <v name="MAGMOM">      1.00000000      1.00000000      1.00000000      1.00000000      1.00000000      1.00000000      1.00000000      1.00000000      1.00000000      1.00000000      1.00000000      1.00000000      1.00000000      1.00000000      1.00000000      1.00000000      1.00000000      1.00000000      1.00000000      1.00000000
      1.00000000      1.00000000      1.00000000      1.00000000      1.00000000      1.00000000      1.00000000      1.00000000      1.00000000      1.00000000      1.00000000      1.00000000      1.00000000      1.00000000      1.00000000      1.00000000      1.00000000      1.00000000      1.00000000      1.00000000
      1.00000000      1.00000000      1.00000000      1.00000000      1.00000000      1.00000000      1.00000000      1.00000000      1.00000000      1.00000000      1.00000000      1.00000000</v>
    <i name="NUPDOWN">     -1.00000000</i>
    <i type="logical" name="LSORBIT"> F  </i>
    <v name="SAXIS">      0.00000000      0.00000000      1.00000000</v>
    <i type="logical" name="LSPIRAL"> F  </i>
    <v name="QSPIRAL">      0.00000000      0.00000000      0.00000000</v>
    <i type="logical" name="LZEROZ"> F  </i>
   </separator>
   <separator name="electronic exchange-correlation" >
    <i type="logical" name="LASPH"> T  </i>
    <i type="logical" name="LMETAGGA"> F  </i>
   </separator>
   <separator name="electronic convergence" >
    <i type="int" name="NELM">   100</i>
    <i type="int" name="NELMDL">   -10</i>
    <i type="int" name="NELMIN">     2</i>
    <i name="ENINI">    520.00000000</i>
    <separator name="electronic convergence detail" >
     <i type="logical" name="LDIAG"> T  </i>
     <i type="logical" name="LSUBROT"> F  </i>
     <i name="WEIMIN">      0.00100000</i>
     <i name="EBREAK">      0.00000000</i>
     <i name="DEPER">      0.30000000</i>
     <i type="int" name="NRMM">     4</i>
     <i name="TIME">      0.40000000</i>
    </separator>
   </separator>
   <separator name="electronic mixer" >
    <i name="AMIX">      0.40000000</i>
    <i name="BMIX">      1.00000000</i>
    <i name="AMIN">      0.10000000</i>
    <i name="AMIX_MAG">      1.60000000</i>
    <i name="BMIX_MAG">      1.00000000</i>
    <separator name="electronic mixer details" >
     <i type="int" name="IMIX">     4</i>
     <i type="logical" name="MIXFIRST"> F  </i>
     <i type="int" name="MAXMIX">   -45</i>
     <i name="WC">    100.00000000</i>
     <i type="int" name="INIMIX">     1</i>
     <i type="int" name="MIXPRE">     1</i>
     <i type="int" name="MREMOVE">     5</i>
    </separator>
   </separator>
   <separator name="electronic dipolcorrection" >
    <i type="logical" name="LDIPOL"> F  </i>
    <i type="logical" name="LMONO"> F  </i>
    <i type="int" name="IDIPOL">     0</i>
    <i name="EPSILON">      1.00000000</i>
    <v name="DIPOL">   -100.00000000   -100.00000000   -100.00000000</v>
    <i name="EFIELD">      0.00000000</i>
   </separator>
  </separator>
  <separator name="grids" >
   <i type="int" name="NGX">    72</i>
   <i type="int" name="NGY">    72</i>
   <i type="int" name="NGZ">    72</i>
   <i type="int" name="NGXF">   144</i>
   <i type="int" name="NGYF">   144</i>
   <i type="int" name="NGZF">   144</i>
   <i type="logical" name="ADDGRID"> F  </i>
  </separator>
  <separator name="ionic" >
   <i type="int" name="NSW">  1000</i>
   <i type="int" name="IBRION">     2</i>
   <i type="int" name="MDALGO">     0</i>
   <i type="int" name="ISIF">     2</i>
   <i name="PSTRESS">      0.00000000</i>
   <i name="EDIFFG">     -0.00100000</i>
   <i type="int" name="NFREE">     1</i>
   <i name="POTIM">      0.20000000</i>
   <i name="SMASS">     -3.00000000</i>
   <i name="SCALEE">      1.00000000</i>
  </separator>
  <separator name="ionic md" >
   <i name="TEBEG">      0.00010000</i>
   <i name="TEEND">      0.00010000</i>
   <i type="int" name="NBLOCK">     1</i>
   <i type="int" name="KBLOCK">  1000</i>
   <i type="int" name="NPACO">   256</i>
   <i name="APACO">     10.00000000</i>
  </separator>
  <separator name="symmetry" >
   <i type="int" name="ISYM">     2</i>
   <i name="SYMPREC">      0.00001000</i>
  </separator>
  <separator name="dos" >
   <i type="int" name="LORBIT">     0</i>
   <v name="RWIGS">     -1.00000000     -1.00000000     -1.00000000     -1.00000000</v>
   <i type="int" name="NEDOS">   301</i>
   <i name="EMIN">     10.00000000</i>
   <i name="EMAX">    -10.00000000</i>
   <i name="EFERMI">      0.00000000</i>
  </separator>
  <separator name="writing" >
   <i type="int" name="NWRITE">     2</i>
   <i type="logical" name="LWAVE"> F  </i>
   <i type="logical" name="LDOWNSAMPLE"> F  </i>
   <i type="logical" name="LCHARG"> F  </i>
   <i type="logical" name="LPARD"> F  </i>
   <i type="logical" name="LVTOT"> F  </i>
   <i type="logical" name="LVHAR"> F  </i>
   <i type="logical" name="LELF"> F  </i>
   <i type="logical" name="LOPTICS"> F  </i>
   <v name="STM">      0.00000000      0.00000000      0.00000000      0.00000000      0.00000000      0.00000000      0.00000000</v>
  </separator>
  <separator name="performance" >
   <i type="int" name="NPAR">     4</i>
   <i type="int" name="NSIM">     4</i>
   <i type="int" name="NBLK">    -1</i>
   <i type="logical" name="LPLANE"> T  </i>
   <i type="logical" name="LSCALAPACK"> T  </i>
   <i type="logical" name="LSCAAWARE"> F  </i>
   <i type="logical" name="LSCALU"> F  </i>
   <i type="logical" name="LASYNC"> F  </i>
   <i type="logical" name="LORBITALREAL"> F  </i>
  </separator>
  <separator name="miscellaneous" >
   <i type="int" name="IDIOT">     3</i>
   <i type="int" name="PHON_NSTRUCT">    -1</i>
   <i type="logical" name="LMUSIC"> F  </i>
   <v name="POMASS">      7.01000000     30.97400000     32.06600000     35.45300000</v>
   <v name="DARWINR">      0.00000000      0.00000000      0.00000000      0.00000000</v>
   <v name="DARWINV">      1.00000000      1.00000000      1.00000000      1.00000000</v>
   <i type="logical" name="LCORR"> T  </i>
  </separator>
  <i type="logical" name="GGA_COMPAT"> T  </i>
  <i type="logical" name="LBERRY"> F  </i>
  <i type="int" name="ICORELEVEL">     0</i>
  <i type="logical" name="LDAU"> F  </i>
  <i type="int" name="I_CONSTRAINED_M">     0</i>
  <separator name="electronic exchange-correlation" >
   <i type="string" name="GGA">PE</i>
   <i type="int" name="VOSKOWN">     0</i>
   <i type="logical" name="LHFCALC"> F  </i>
   <i type="string" name="PRECFOCK"></i>
   <i type="logical" name="LSYMGRAD"> F  </i>
   <i type="logical" name="LHFONE"> F  </i>
   <i type="logical" name="LRHFCALC"> F  </i>
   <i type="logical" name="LTHOMAS"> F  </i>
   <i type="logical" name="LMODELHF"> F  </i>
   <i type="logical" name="LFOCKACE"> F  </i>
   <i name="ENCUT4O">     -1.00000000</i>
   <i type="int" name="EXXOEP">     0</i>
   <i type="int" name="FOURORBIT">     0</i>
   <i name="AEXX">      0.00000000</i>
   <i name="HFALPHA">      0.00000000</i>
   <i name="MCALPHA">      0.00000000</i>
   <i name="ALDAX">      1.00000000</i>
   <i name="AGGAX">      1.00000000</i>
   <i name="ALDAC">      1.00000000</i>
   <i name="AGGAC">      1.00000000</i>
   <i type="int" name="NKREDX">     1</i>
   <i type="int" name="NKREDY">     1</i>
   <i type="int" name="NKREDZ">     1</i>
   <i type="logical" name="SHIFTRED"> F  </i>
   <i type="logical" name="ODDONLY"> F  </i>
   <i type="logical" name="EVENONLY"> F  </i>
   <i type="int" name="LMAXFOCK">     0</i>
   <i type="int" name="NMAXFOCKAE">     0</i>
   <i type="logical" name="LFOCKAEDFT"> F  </i>
   <i name="HFSCREEN">      0.00000000</i>
   <i name="HFSCREENC">      0.00000000</i>
   <i type="int" name="NBANDSGWLOW">     0</i>
  </separator>
  <separator name="vdW DFT" >
   <i type="logical" name="LUSE_VDW"> F  </i>
   <i type="int" name="IVDW_NL">     1</i>
   <i type="logical" name="LSPIN_VDW"> F  </i>
   <i name="Zab_VDW">     -0.84910000</i>
   <i name="PARAM1">      0.12340000</i>
   <i name="PARAM2">      1.00000000</i>
   <i name="PARAM3">      0.00000000</i>
  </separator>
  <separator name="model GW" >
   <i type="int" name="MODEL_GW">     0</i>
   <i name="MODEL_EPS0">     10.32896867</i>
   <i name="MODEL_ALPHA">      1.00000000</i>
  </separator>
  <separator name="linear response parameters" >
   <i type="logical" name="LEPSILON"> F  </i>
   <i type="logical" name="LRPA"> F  </i>
   <i type="logical" name="LNABLA"> F  </i>
   <i type="logical" name="LVEL"> F  </i>
   <i name="CSHIFT">      0.10000000</i>
   <i name="OMEGAMAX">     -1.00000000</i>
   <i name="DEG_THRESHOLD">      0.00200000</i>
   <i name="RTIME">     -0.10000000</i>
   <i name="WPLASMAI">      0.00000000</i>
   <v name="DFIELD">      0.00000000      0.00000000      0.00000000</v>
   <v name="WPLASMA">      0.00000000      0.00000000      0.00000000      0.00000000      0.00000000      0.00000000      0.00000000      0.00000000      0.00000000</v>
  </separator>
  <separator name="orbital magnetization" >
   <i type="logical" name="NUCIND"> F  </i>
   <v name="MAGPOS">      0.00000000      0.00000000      0.00000000</v>
   <i type="logical" name="LNICSALL"> T  </i>
   <i type="logical" name="ORBITALMAG"> F  </i>
   <i type="logical" name="LMAGBLOCH"> F  </i>
   <i type="logical" name="LCHIMAG"> F  </i>
   <i type="logical" name="LGAUGE"> T  </i>
   <i type="int" name="MAGATOM">     0</i>
   <v name="MAGDIPOL">      0.00000000      0.00000000      0.00000000</v>
   <v name="AVECCONST">      0.00000000      0.00000000      0.00000000</v>
  </separator>
  <separator name="response functions" >
   <i type="logical" name="LALL_IN_ONE"> F  </i>
   <i type="int" name="IALL_IN_ONE">    -1</i>
   <i type="int" name="NBANDS_WAVE">    -1</i>
   <i type="logical" name="LFINITE_TEMPERATURE"> F  </i>
   <i type="logical" name="LADDER"> F  </i>
   <i type="logical" name="LRPAFORCE"> F  </i>
   <i type="logical" name="LFXC"> F  </i>
   <i type="logical" name="LHARTREE"> T  </i>
   <i type="int" name="IBSE">     0</i>
   <v type="int" name="KPOINT">    -1     0     0     0</v>
   <i type="logical" name="LTCTC"> F  </i>
   <i type="logical" name="LTCTE"> F  </i>
   <i type="logical" name="LTETE"> F  </i>
   <i type="logical" name="LTRIPLET"> F  </i>
   <i type="logical" name="LFXCEPS"> F  </i>
   <i type="logical" name="LFXHEG"> F  </i>
   <i type="int" name="NATURALO">     2</i>
   <i type="logical" name="LHOLEGF"> F  </i>
   <i type="logical" name="L2ORDER"> F  </i>
   <i type="logical" name="LDMP1"> F  </i>
   <i type="logical" name="LMP2LT"> F  </i>
   <i type="logical" name="LSMP2LT"> F  </i>
   <i type="logical" name="LGWLF"> F  </i>
   <i name="ENCUTGW">     -1.60000002</i>
   <i name="ENCUTGWSOFT">     -1.60000002</i>
   <i name="ENCUTLF">     -1.00000000</i>
   <i type="logical" name="LESF_SPLINES"> F  </i>
   <i type="int" name="LMAXMP2">    -1</i>
   <i name="SCISSOR">      0.00000000</i>
   <i type="int" name="NOMEGA">     0</i>
   <i type="int" name="NOMEGAR">     0</i>
   <i type="int" name="NBANDSGW">    -1</i>
   <i type="int" name="NBANDSO">    -1</i>
   <i type="int" name="NBANDSV">    -1</i>
   <i type="int" name="NELMGW">     1</i>
   <i type="int" name="NELMHF">     1</i>
   <i type="int" name="DIM">     3</i>
   <i type="int" name="IESPILON">     4</i>
   <i type="int" name="ANTIRES">     0</i>
   <i name="OMEGAMAX">    -30.00000000</i>
   <i name="OMEGAMIN">    -30.00000000</i>
   <i name="OMEGATL">   -200.00000000</i>
   <i type="int" name="OMEGAGRID">     0</i>
   <i name="CSHIFT">     -0.10000000</i>
   <i type="logical" name="LSELFENERGY"> F  </i>
   <i type="logical" name="LSPECTRAL"> F  </i>
   <i type="logical" name="LSPECTRALGW"> F  </i>
   <i type="logical" name="LSINGLES"> F  </i>
   <i type="logical" name="LFERMIGW"> F  </i>
   <i type="logical" name="ODDONLYGW"> F  </i>
   <i type="logical" name="EVENONLYGW"> F  </i>
   <i type="int" name="NKREDLFX">     1</i>
   <i type="int" name="NKREDLFY">     1</i>
   <i type="int" name="NKREDLFZ">     1</i>
   <i type="int" name="MAXMEM">  2800</i>
   <i type="int" name="TELESCOPE">     0</i>
   <i type="int" name="NTAUPAR">    -1</i>
   <i type="int" name="NOMEGAPAR">    -1</i>
   <i name="DAMP_NEWTON">      0.80000001</i>
   <i name="LAMBDA">      1.00000000</i>
  </separator>
  <separator name="External order field" >
   <i name="OFIELD_KAPPA">      0.00000000</i>
   <v name="OFIELD_K">      0.00000000      0.00000000      0.00000000</v>
   <i name="OFIELD_Q6_NEAR">      0.00000000</i>
   <i name="OFIELD_Q6_FAR">      0.00000000</i>
   <i name="OFIELD_A">      0.00000000</i>
  </separator>
  <separator name="optional k-points parameters" >
   <i type="int" name="KPOINTS_OPT_MODE">     1</i>
   <i type="logical" name="LKPOINTS_OPT"> F  </i>
  </separator>
 </parameters>
 <atominfo>
  <atoms>      52 </atoms>
  <types>       4 </types>
  <array name="atoms" >
   <dimension dim="1">ion</dimension>
   <field type="string">element</field>
   <field type="int">atomtype</field>
   <set>
    <rc><c>Li</c><c>   1</c></rc>
    <rc><c>Li</c><c>   1</c></rc>
    <rc><c>Li</c><c>   1</c></rc>
    <rc><c>Li</c><c>   1</c></rc>
    <rc><c>Li</c><c>   1</c></rc>
    <rc><c>Li</c><c>   1</c></rc>
    <rc><c>Li</c><c>   1</c></rc>
    <rc><c>Li</c><c>   1</c></rc>
    <rc><c>Li</c><c>   1</c></rc>
    <rc><c>Li</c><c>   1</c></rc>
    <rc><c>Li</c><c>   1</c></rc>
    <rc><c>Li</c><c>   1</c></rc>
    <rc><c>Li</c><c>   1</c></rc>
    <rc><c>Li</c><c>   1</c></rc>
    <rc><c>Li</c><c>   1</c></rc>
    <rc><c>Li</c><c>   1</c></rc>
    <rc><c>Li</c><c>   1</c></rc>
    <rc><c>Li</c><c>   1</c></rc>
    <rc><c>Li</c><c>   1</c></rc>
    <rc><c>Li</c><c>   1</c></rc>
    <rc><c>Li</c><c>   1</c></rc>
    <rc><c>Li</c><c>   1</c></rc>
    <rc><c>Li</c><c>   1</c></rc>
    <rc><c>Li</c><c>   1</c></rc>
    <rc><c>P </c><c>   2</c></rc>
    <rc><c>P </c><c>   2</c></rc>
    <rc><c>P </c><c>   2</c></rc>
    <rc><c>P </c><c>   2</c></rc>
    <rc><c>S </c><c>   3</c></rc>
    <rc><c>S </c><c>   3</c></rc>
    <rc><c>S </c><c>   3</c></rc>
    <rc><c>S </c><c>   3</c></rc>
    <rc><c>S </c><c>   3</c></rc>
    <rc><c>S </c><c>   3</c></rc>
    <rc><c>S </c><c>   3</c></rc>
    <rc><c>S </c><c>   3</c></rc>
    <rc><c>S </c><c>   3</c></rc>
    <rc><c>S </c><c>   3</c></rc>
    <rc><c>S </c><c>   3</c></rc>
    <rc><c>S </c><c>   3</c></rc>
    <rc><c>S </c><c>   3</c></rc>
    <rc><c>S </c><c>   3</c></rc>
    <rc><c>S </c><c>   3</c></rc>
    <rc><c>S </c><c>   3</c></rc>
    <rc><c>S </c><c>   3</c></rc>
    <rc><c>S </c><c>   3</c></rc>
    <rc><c>S </c><c>   3</c></rc>
    <rc><c>S </c><c>   3</c></rc>
    <rc><c>Cl</c><c>   4</c></rc>
    <rc><c>Cl</c><c>   4</c></rc>
    <rc><c>Cl</c><c>   4</c></rc>
    <rc><c>Cl</c><c>   4</c></rc>
   </set>
  </array>
  <array name="atomtypes" >
   <dimension dim="1">type</dimension>
   <field type="int">atomspertype</field>
   <field type="string">element</field>
   <field>mass</field>
   <field>valence</field>
   <field type="string">pseudopotential</field>
   <set>
    <rc><c>  24</c><c>Li</c><c>      7.01000000</c><c>      3.00000000</c><c>  PAW_PBE Li_sv_GW 25Mar2010            </c></rc>
    <rc><c>   4</c><c>P </c><c>     30.97400000</c><c>      5.00000000</c><c>  PAW_PBE P_GW 19Mar2012                </c></rc>
    <rc><c>  20</c><c>S </c><c>     32.06600000</c><c>      6.00000000</c><c>  PAW_PBE S_GW 19Mar2012                </c></rc>
    <rc><c>   4</c><c>Cl</c><c>     35.45300000</c><c>      7.00000000</c><c>  PAW_PBE Cl_GW 19Mar2012               </c></rc>
   </set>
  </array>
 </atominfo>
 <structure name="initialpos" >
  <crystal>
   <varray name="basis" >
    <v>       9.63761747       0.00000000       0.00000000 </v>
    <v>       0.00000000       9.63761747       0.00000000 </v>
    <v>       0.00000000       0.00000000       9.63761747 </v>
   </varray>
   <i name="volume">    895.17728444 </i>
   <varray name="rec_basis" >
    <v>       0.10376008       0.00000000       0.00000000 </v>
    <v>       0.00000000       0.10376008       0.00000000 </v>
    <v>       0.00000000       0.00000000       0.10376008 </v>
   </varray>
  </crystal>
  <varray name="positions" >
   <v>       0.98615219       0.34318377       0.28306110 </v>
   <v>       0.96353323       0.68723259       0.66335939 </v>
   <v>       0.03126115       0.31922208       0.71027896 </v>
   <v>       0.02369580       0.82342132       0.21012164 </v>
   <v>       0.35176232       0.28765258       0.96032909 </v>
   <v>       0.21361357       0.80919359       0.00581558 </v>
   <v>       0.83979726       0.17202467       0.04147599 </v>
   <v>       0.82354343       0.77248365       0.98009880 </v>
   <v>       0.29980381       0.97632213       0.32967128 </v>
   <v>       0.16175400       0.04287609       0.80578244 </v>
   <v>       0.79678249       0.97092665       0.79233586 </v>
   <v>       0.72094722       0.01700269       0.29638229 </v>
   <v>       0.19275248       0.66846385       0.45246178 </v>
   <v>       0.21494177       0.29075864       0.50708568 </v>
   <v>       0.66593466       0.80033965       0.54143300 </v>
   <v>       0.79970014       0.31621437       0.48455961 </v>
   <v>       0.30653959       0.48629337       0.77214400 </v>
   <v>       0.32102687       0.54100761       0.16128664 </v>
   <v>       0.68874891       0.46318740       0.16109876 </v>
   <v>       0.69800501       0.50430846       0.80056293 </v>
   <v>       0.46817140       0.13640279       0.68234772 </v>
   <v>       0.48732290       0.77555672       0.28766944 </v>
   <v>       0.53076440       0.21330474       0.31343866 </v>
   <v>       0.51907573       0.71393694       0.82423189 </v>
   <v>       0.50717766       0.50161706       0.49311943 </v>
   <v>       0.50988682       0.00495251       0.00185892 </v>
   <v>       0.01598181       0.49648852       0.99713423 </v>
   <v>       0.00303895       0.00000151       0.50040030 </v>
   <v>       0.13701465       0.87769017       0.61160432 </v>
   <v>       0.10646137       0.12079436       0.35864331 </v>
   <v>       0.87541580       0.86047829       0.40095225 </v>
   <v>       0.88913134       0.12594788       0.62920599 </v>
   <v>       0.90308698       0.60591091       0.14170776 </v>
   <v>       0.87950572       0.37081054       0.89174444 </v>
   <v>       0.11893577       0.62543989       0.86217119 </v>
   <v>       0.15086929       0.36903632       0.09952251 </v>
   <v>       0.63290596       0.13515980       0.88746833 </v>
   <v>       0.63121811       0.86756046       0.11118725 </v>
   <v>       0.38635392       0.11666237       0.13271867 </v>
   <v>       0.38201356       0.90891978       0.85849625 </v>
   <v>       0.64799357       0.60824598       0.37493025 </v>
   <v>       0.60332106       0.36140836       0.62079673 </v>
   <v>       0.39551757       0.64482271       0.60573335 </v>
   <v>       0.37654656       0.39783238       0.36008502 </v>
   <v>       0.74799584       0.73753177       0.75740616 </v>
   <v>       0.76072891       0.25045975       0.25559802 </v>
   <v>       0.25452306       0.75807160       0.23666574 </v>
   <v>       0.25941228       0.25368263       0.73853862 </v>
   <v>       0.99054229       0.96740822       0.98957198 </v>
   <v>       0.01688480       0.47386547       0.50796779 </v>
   <v>       0.51662648       0.99593054       0.46183378 </v>
   <v>       0.49444349       0.50635156       0.97429583 </v>
  </varray>
 </structure>
 <calculation>
  <scstep>
   <time name="dav">    2.29    2.34</time>
   <time name="total">    2.76    2.83</time>
   <energy>
    <i name="alphaZ">    303.24440577 </i>
    <i name="ewald">  -8856.34365241 </i>
    <i name="hartreedc">  -2089.01178647 </i>
    <i name="XCdc">    534.57241319 </i>
    <i name="pawpsdc">   8141.38806575 </i>
    <i name="pawaedc">  -8271.61346273 </i>
    <i name="eentropy">     -0.00591818 </i>
    <i name="bandstr">   -881.45972803 </i>
    <i name="atom">  12703.13999606 </i>
    <i name="e_fr_energy">   1583.91033295 </i>
    <i name="e_wo_entrp">   1583.91625113 </i>
    <i name="e_0_energy">   1583.91329204 </i>
   </energy>
  </scstep>
  <scstep>
   <time name="dav">    2.63    2.66</time>
   <time name="total">    2.63    2.66</time>
   <energy>
    <i name="e_fr_energy">    -56.87711773 </i>
    <i name="e_wo_entrp">    -56.87711773 </i>
    <i name="e_0_energy">    -56.87711773 </i>
   </energy>
  </scstep>
  <scstep>
   <time name="dav">    2.66    2.68</time>
   <time name="total">    2.66    2.68</time>
   <energy>
    <i name="e_fr_energy">   -228.47954761 </i>
    <i name="e_wo_entrp">   -228.47954761 </i>
    <i name="e_0_energy">   -228.47954761 </i>
   </energy>
  </scstep>
  <scstep>
   <time name="dav">    3.14    3.17</time>
   <time name="total">    3.15    3.17</time>
   <energy>
    <i name="e_fr_energy">   -241.64447100 </i>
    <i name="e_wo_entrp">   -241.64447100 </i>
    <i name="e_0_energy">   -241.64447100 </i>
   </energy>
  </scstep>
  <scstep>
   <time name="dav">    2.99    3.02</time>
   <time name="total">    2.99    3.02</time>
   <energy>
    <i name="e_fr_energy">   -241.87236958 </i>
    <i name="e_wo_entrp">   -241.87236958 </i>
    <i name="e_0_energy">   -241.87236958 </i>
   </energy>
  </scstep>
  <scstep>
   <time name="dav">    3.09    3.12</time>
   <time name="total">    3.09    3.12</time>
   <energy>
    <i name="e_fr_energy">   -241.88294722 </i>
    <i name="e_wo_entrp">   -241.88294722 </i>
    <i name="e_0_energy">   -241.88294722 </i>
   </energy>
  </scstep>
  <scstep>
   <time name="dav">    3.04    3.08</time>
   <time name="total">    3.04    3.08</time>
   <energy>
    <i name="e_fr_energy">   -241.88331999 </i>
    <i name="e_wo_entrp">   -241.88331999 </i>
    <i name="e_0_energy">   -241.88331999 </i>
   </energy>
  </scstep>
  <scstep>
   <time name="dav">    3.07    3.10</time>
   <time name="total">    3.07    3.10</time>
   <energy>
    <i name="e_fr_energy">   -241.88334203 </i>
    <i name="e_wo_entrp">   -241.88334203 </i>
    <i name="e_0_energy">   -241.88334203 </i>
   </energy>
  </scstep>
  <scstep>
   <time name="dav">    2.97    2.99</time>
   <time name="total">    2.97    3.00</time>
   <energy>
    <i name="e_fr_energy">   -241.88334346 </i>
    <i name="e_wo_entrp">   -241.88334346 </i>
    <i name="e_0_energy">   -241.88334346 </i>
   </energy>
  </scstep>
  <scstep>
   <time name="dav">    2.00    2.01</time>
   <time name="total">    2.07    2.09</time>
   <energy>
    <i name="e_fr_energy">   -241.88334352 </i>
    <i name="e_wo_entrp">   -241.88334352 </i>
    <i name="e_0_energy">   -241.88334352 </i>
   </energy>
  </scstep>
  <scstep>
   <time name="diag">    0.37    0.37</time>
   <time name="diis">    1.16    1.17</time>
   <time name="orth">    0.07    0.07</time>
   <time name="total">    2.11    2.48</time>
   <energy>
    <i name="e_fr_energy">   -236.72996515 </i>
    <i name="e_wo_entrp">   -236.72996515 </i>
    <i name="e_0_energy">   -236.72996515 </i>
   </energy>
  </scstep>
  <scstep>
   <time name="diag">    0.36    0.36</time>
   <time name="diis">    1.22    1.23</time>
   <time name="orth">    0.07    0.07</time>
   <time name="total">    2.16    2.18</time>
   <energy>
    <i name="e_fr_energy">   -255.93176868 </i>
    <i name="e_wo_entrp">   -255.93176868 </i>
    <i name="e_0_energy">   -255.93176868 </i>
   </energy>
  </scstep>
  <scstep>
   <time name="diag">    0.36    0.36</time>
   <time name="diis">    1.21    1.22</time>
   <time name="orth">    0.07    0.07</time>
   <time name="total">    2.15    2.17</time>
   <energy>
    <i name="e_fr_energy">   -258.38634237 </i>
    <i name="e_wo_entrp">   -258.38634237 </i>
    <i name="e_0_energy">   -258.38634237 </i>
   </energy>
  </scstep>
  <scstep>
   <time name="diag">    0.36    0.36</time>
   <time name="diis">    1.57    1.59</time>
   <time name="orth">    0.07    0.07</time>
   <time name="total">    2.51    2.53</time>
   <energy>
    <i name="e_fr_energy">   -258.58571881 </i>
    <i name="e_wo_entrp">   -258.58571881 </i>
    <i name="e_0_energy">   -258.58571881 </i>
   </energy>
  </scstep>
  <scstep>
   <time name="diag">    0.36    0.36</time>
   <time name="diis">    1.29    1.30</time>
   <time name="orth">    0.07    0.07</time>
   <time name="total">    2.23    2.25</time>
   <energy>
    <i name="e_fr_energy">   -258.55735174 </i>
    <i name="e_wo_entrp">   -258.55735174 </i>
    <i name="e_0_energy">   -258.55735174 </i>
   </energy>
  </scstep>
  <scstep>
   <time name="diag">    0.36    0.36</time>
   <time name="diis">    1.27    1.28</time>
   <time name="orth">    0.07    0.07</time>
   <time name="total">    2.22    2.23</time>
   <energy>
    <i name="e_fr_energy">   -258.57653976 </i>
    <i name="e_wo_entrp">   -258.57653976 </i>
    <i name="e_0_energy">   -258.57653976 </i>
   </energy>
  </scstep>
  <scstep>
   <time name="diag">    0.36    0.36</time>
   <time name="diis">    1.46    1.47</time>
   <time name="orth">    0.07    0.07</time>
   <time name="total">    2.40    2.42</time>
   <energy>
    <i name="e_fr_energy">   -258.58248520 </i>
    <i name="e_wo_entrp">   -258.58248520 </i>
    <i name="e_0_energy">   -258.58248520 </i>
   </energy>
  </scstep>
  <scstep>
   <time name="diag">    0.36    0.36</time>
   <time name="diis">    1.41    1.42</time>
   <time name="orth">    0.07    0.07</time>
   <time name="total">    2.35    2.37</time>
   <energy>
    <i name="e_fr_energy">   -258.58361108 </i>
    <i name="e_wo_entrp">   -258.58361108 </i>
    <i name="e_0_energy">   -258.58361108 </i>
   </energy>
  </scstep>
  <scstep>
   <time name="diag">    0.35    0.36</time>
   <time name="diis">    1.60    1.61</time>
   <time name="orth">    0.07    0.07</time>
   <time name="total">    2.54    2.56</time>
   <energy>
    <i name="e_fr_energy">   -258.58406664 </i>
    <i name="e_wo_entrp">   -258.58406664 </i>
    <i name="e_0_energy">   -258.58406664 </i>
   </energy>
  </scstep>
  <scstep>
   <time name="diag">    0.36    0.36</time>
   <time name="diis">    1.59    1.60</time>
   <time name="orth">    0.07    0.07</time>
   <time name="total">    2.54    2.56</time>
   <energy>
    <i name="e_fr_energy">   -258.58415446 </i>
    <i name="e_wo_entrp">   -258.58415446 </i>
    <i name="e_0_energy">   -258.58415446 </i>
   </energy>
  </scstep>
  <scstep>
   <time name="diag">    0.36    0.36</time>
   <time name="diis">    1.45    1.46</time>
   <time name="orth">    0.07    0.07</time>
   <time name="total">    2.39    2.40</time>
   <energy>
    <i name="e_fr_energy">   -258.58416964 </i>
    <i name="e_wo_entrp">   -258.58416964 </i>
    <i name="e_0_energy">   -258.58416964 </i>
   </energy>
  </scstep>
  <scstep>
   <time name="diag">    0.36    0.36</time>
   <time name="diis">    1.58    1.59</time>
   <time name="orth">    0.07    0.07</time>
   <time name="total">    2.52    2.54</time>
   <energy>
    <i name="e_fr_energy">   -258.58417571 </i>
    <i name="e_wo_entrp">   -258.58417571 </i>
    <i name="e_0_energy">   -258.58417571 </i>
   </energy>
  </scstep>
  <scstep>
   <time name="diag">    0.35    0.36</time>
   <time name="diis">    1.24    1.25</time>
   <time name="orth">    0.07    0.07</time>
   <time name="total">    2.18    2.20</time>
   <energy>
    <i name="e_fr_energy">   -258.58417542 </i>
    <i name="e_wo_entrp">   -258.58417542 </i>
    <i name="e_0_energy">   -258.58417542 </i>
   </energy>
  </scstep>
  <scstep>
   <time name="diag">    0.35    0.36</time>
   <time name="diis">    0.97    0.98</time>
   <time name="orth">    0.07    0.07</time>
   <time name="total">    1.84    1.85</time>
   <energy>
    <i name="alphaZ">    303.24440577 </i>
    <i name="ewald">  -8856.34365241 </i>
    <i name="hartreedc">  -2185.93454771 </i>
    <i name="XCdc">    537.97973304 </i>
    <i name="pawpsdc">   9809.83438661 </i>
    <i name="pawaedc">  -9953.74010478 </i>
    <i name="eentropy">     -0.00000000 </i>
    <i name="bandstr">  -2616.76439129 </i>
    <i name="atom">  12703.13999606 </i>
    <i name="e_fr_energy">   -258.58417471 </i>
    <i name="e_wo_entrp">   -258.58417471 </i>
    <i name="e_0_energy">   -258.58417471 </i>
   </energy>
  </scstep>
  <structure>
   <crystal>
    <varray name="basis" >
     <v>       9.63761747       0.00000000       0.00000000 </v>
     <v>       0.00000000       9.63761747       0.00000000 </v>
     <v>       0.00000000       0.00000000       9.63761747 </v>
    </varray>
    <i name="volume">    895.17728444 </i>
    <varray name="rec_basis" >
     <v>       0.10376008       0.00000000       0.00000000 </v>
     <v>       0.00000000       0.10376008       0.00000000 </v>
     <v>       0.00000000       0.00000000       0.10376008 </v>
    </varray>
   </crystal>
   <varray name="positions" >
    <v>       0.98615219       0.34318377       0.28306110 </v>
    <v>       0.96353323       0.68723259       0.66335939 </v>
    <v>       0.03126115       0.31922208       0.71027896 </v>
    <v>       0.02369580       0.82342132       0.21012164 </v>
    <v>       0.35176232       0.28765258       0.96032909 </v>
    <v>       0.21361357       0.80919359       0.00581558 </v>
    <v>       0.83979726       0.17202467       0.04147599 </v>
    <v>       0.82354343       0.77248365       0.98009880 </v>
    <v>       0.29980381       0.97632213       0.32967128 </v>
    <v>       0.16175400       0.04287609       0.80578244 </v>
    <v>       0.79678249       0.97092665       0.79233586 </v>
    <v>       0.72094722       0.01700269       0.29638229 </v>
    <v>       0.19275248       0.66846385       0.45246178 </v>
    <v>       0.21494177       0.29075864       0.50708568 </v>
    <v>       0.66593466       0.80033965       0.54143300 </v>
    <v>       0.79970014       0.31621437       0.48455961 </v>
    <v>       0.30653959       0.48629337       0.77214400 </v>
    <v>       0.32102687       0.54100761       0.16128664 </v>
    <v>       0.68874891       0.46318740       0.16109876 </v>
    <v>       0.69800501       0.50430846       0.80056293 </v>
    <v>       0.46817140       0.13640279       0.68234772 </v>
    <v>       0.48732290       0.77555672       0.28766944 </v>
    <v>       0.53076440       0.21330474       0.31343866 </v>
    <v>       0.51907573       0.71393694       0.82423189 </v>
    <v>       0.50717766       0.50161706       0.49311943 </v>
    <v>       0.50988682       0.00495251       0.00185892 </v>
    <v>       0.01598181       0.49648852       0.99713423 </v>
    <v>       0.00303895       0.00000151       0.50040030 </v>
    <v>       0.13701465       0.87769017       0.61160432 </v>
    <v>       0.10646137       0.12079436       0.35864331 </v>
    <v>       0.87541580       0.86047829       0.40095225 </v>
    <v>       0.88913134       0.12594788       0.62920599 </v>
    <v>       0.90308698       0.60591091       0.14170776 </v>
    <v>       0.87950572       0.37081054       0.89174444 </v>
    <v>       0.11893577       0.62543989       0.86217119 </v>
    <v>       0.15086929       0.36903632       0.09952251 </v>
    <v>       0.63290596       0.13515980       0.88746833 </v>
    <v>       0.63121811       0.86756046       0.11118725 </v>
    <v>       0.38635392       0.11666237       0.13271867 </v>
    <v>       0.38201356       0.90891978       0.85849625 </v>
    <v>       0.64799357       0.60824598       0.37493025 </v>
    <v>       0.60332106       0.36140836       0.62079673 </v>
    <v>       0.39551757       0.64482271       0.60573335 </v>
    <v>       0.37654656       0.39783238       0.36008502 </v>
    <v>       0.74799584       0.73753177       0.75740616 </v>
    <v>       0.76072891       0.25045975       0.25559802 </v>
    <v>       0.25452306       0.75807160       0.23666574 </v>
    <v>       0.25941228       0.25368263       0.73853862 </v>
    <v>       0.99054229       0.96740822       0.98957198 </v>
    <v>       0.01688480       0.47386547       0.50796779 </v>
    <v>       0.51662648       0.99593054       0.46183378 </v>
    <v>       0.49444349       0.50635156       0.97429583 </v>
   </varray>
  </structure>
  <varray name="forces" >
   <v>      -0.00070594       0.00249154      -0.00078659 </v>
   <v>       0.00008993       0.00101318      -0.00116249 </v>
   <v>       0.00028730       0.00078046      -0.00000799 </v>
   <v>       0.00005018       0.00041260       0.00057866 </v>
   <v>       0.00156452      -0.00069078      -0.00036512 </v>
   <v>      -0.00040474       0.00051916      -0.00008761 </v>
   <v>       0.00053351      -0.00001803       0.00037233 </v>
   <v>       0.00061080      -0.00025768       0.00017180 </v>
   <v>      -0.00076380      -0.00059571       0.00178147 </v>
   <v>      -0.00054392       0.00036133      -0.00038227 </v>
   <v>      -0.00055628       0.00017558       0.00025322 </v>
   <v>      -0.00010667      -0.00035397       0.00007280 </v>
   <v>       0.00053649      -0.00094287      -0.00033066 </v>
   <v>      -0.00031039      -0.00064244      -0.00049533 </v>
   <v>      -0.00109580      -0.00066269       0.00042245 </v>
   <v>       0.00023771      -0.00020928      -0.00001101 </v>
   <v>       0.00016080       0.00025004       0.00017413 </v>
   <v>       0.00016171       0.00002402      -0.00059737 </v>
   <v>      -0.00004283      -0.00015895      -0.00066666 </v>
   <v>       0.00016293       0.00000344      -0.00086129 </v>
   <v>      -0.00037644      -0.00111933       0.00024364 </v>
   <v>       0.00001645      -0.00005910       0.00021237 </v>
   <v>      -0.00033737      -0.00006068       0.00021220 </v>
   <v>       0.00043323       0.00009204       0.00103698 </v>
   <v>       0.00020625       0.00136815      -0.00087205 </v>
   <v>      -0.00155440      -0.00137506       0.00268702 </v>
   <v>      -0.00012741       0.00107228      -0.00007966 </v>
   <v>       0.00031924      -0.00092685      -0.00079915 </v>
   <v>       0.00076214       0.00081381      -0.00117253 </v>
   <v>      -0.00131856       0.00006519      -0.00079044 </v>
   <v>       0.00014964       0.00009014       0.00114196 </v>
   <v>       0.00028879       0.00042246       0.00073534 </v>
   <v>       0.00082411      -0.00074018      -0.00002111 </v>
   <v>      -0.00026804      -0.00003507      -0.00004666 </v>
   <v>      -0.00050429      -0.00020819       0.00000789 </v>
   <v>       0.00058439      -0.00060238      -0.00072761 </v>
   <v>       0.00057752       0.00161706      -0.00017118 </v>
   <v>      -0.00065050       0.00034248      -0.00062156 </v>
   <v>       0.00010797      -0.00127369      -0.00029758 </v>
   <v>      -0.00001604       0.00032303      -0.00013785 </v>
   <v>      -0.00055664      -0.00102643       0.00047156 </v>
   <v>       0.00001278      -0.00099324       0.00007552 </v>
   <v>       0.00088176      -0.00025597      -0.00010512 </v>
   <v>      -0.00035024       0.00020527      -0.00000779 </v>
   <v>       0.00033494       0.00007420       0.00012807 </v>
   <v>      -0.00015098      -0.00002518       0.00003591 </v>
   <v>       0.00000621      -0.00017944      -0.00020918 </v>
   <v>       0.00025330       0.00007782      -0.00029818 </v>
   <v>       0.00046771       0.00044195       0.00025573 </v>
   <v>      -0.00041306       0.00113576      -0.00033542 </v>
   <v>      -0.00034406      -0.00025795       0.00117599 </v>
   <v>       0.00087608      -0.00050184       0.00020043 </v>
  </varray>
  <varray name="stress" >
   <v>       1.38220543      -3.03600375      -3.32279356 </v>
   <v>      -3.03600294      -2.58217981      -0.34328576 </v>
   <v>      -3.32279189      -0.34328686       1.18094570 </v>
  </varray>
  <energy>
   <i name="e_fr_energy">   -272.25324263 </i>
   <i name="e_wo_entrp">   -272.25324263 </i>
   <i name="e_0_energy">   -272.25324263 </i>
  </energy>
  <time name="totalsc">   63.65   64.63</time>
 </calculation>
 <calculation>
  <scstep>
   <time name="dav">    2.25    2.27</time>
   <time name="total">    2.77    2.80</time>
   <energy>
    <i name="alphaZ">    303.24440577 </i>
    <i name="ewald">  -8856.34645523 </i>
    <i name="hartreedc">  -2185.93511445 </i>
    <i name="XCdc">    537.97973240 </i>
    <i name="pawpsdc">   9809.82111144 </i>
    <i name="pawaedc">  -9953.72671970 </i>
    <i name="eentropy">     -0.00000000 </i>
    <i name="bandstr">  -2616.76113361 </i>
    <i name="atom">  12703.13999606 </i>
    <i name="e_fr_energy">   -258.58417731 </i>
    <i name="e_wo_entrp">   -258.58417731 </i>
    <i name="e_0_energy">   -258.58417731 </i>
   </energy>
  </scstep>
  <scstep>
   <time name="diag">    0.36    0.37</time>
   <time name="diis">    0.86    0.87</time>
   <time name="orth">    0.07    0.07</time>
   <time name="total">    1.75    1.76</time>
   <energy>
    <i name="alphaZ">    303.24440577 </i>
    <i name="ewald">  -8856.34645523 </i>
    <i name="hartreedc">  -2185.93748905 </i>
    <i name="XCdc">    537.97964101 </i>
    <i name="pawpsdc">   9809.80527817 </i>
    <i name="pawaedc">  -9953.71053123 </i>
    <i name="eentropy">     -0.00000000 </i>
    <i name="bandstr">  -2616.75902314 </i>
    <i name="atom">  12703.13999606 </i>
    <i name="e_fr_energy">   -258.58417764 </i>
    <i name="e_wo_entrp">   -258.58417764 </i>
    <i name="e_0_energy">   -258.58417764 </i>
   </energy>
  </scstep>
  <structure>
   <crystal>
    <varray name="basis" >
     <v>       9.63761747       0.00000000       0.00000000 </v>
     <v>       0.00000000       9.63761747       0.00000000 </v>
     <v>       0.00000000       0.00000000       9.63761747 </v>
    </varray>
    <i name="volume">    895.17728444 </i>
    <varray name="rec_basis" >
     <v>       0.10376008       0.00000000       0.00000000 </v>
     <v>       0.00000000       0.10376008       0.00000000 </v>
     <v>       0.00000000       0.00000000       0.10376008 </v>
    </varray>
   </crystal>
   <varray name="positions" >
    <v>       0.98615078       0.34318876       0.28305952 </v>
    <v>       0.96353341       0.68723462       0.66335706 </v>
    <v>       0.03126172       0.31922365       0.71027894 </v>
    <v>       0.02369590       0.82342215       0.21012279 </v>
    <v>       0.35176546       0.28765120       0.96032836 </v>
    <v>       0.21361276       0.80919463       0.00581540 </v>
    <v>       0.83979832       0.17202463       0.04147673 </v>
    <v>       0.82354465       0.77248314       0.98009914 </v>
    <v>       0.29980228       0.97632094       0.32967485 </v>
    <v>       0.16175291       0.04287681       0.80578168 </v>
    <v>       0.79678137       0.97092700       0.79233637 </v>
    <v>       0.72094701       0.01700198       0.29638244 </v>
    <v>       0.19275356       0.66846197       0.45246112 </v>
    <v>       0.21494115       0.29075736       0.50708469 </v>
    <v>       0.66593247       0.80033832       0.54143384 </v>
    <v>       0.79970062       0.31621395       0.48455959 </v>
    <v>       0.30653991       0.48629387       0.77214435 </v>
    <v>       0.32102719       0.54100766       0.16128545 </v>
    <v>       0.68874883       0.46318709       0.16109743 </v>
    <v>       0.69800534       0.50430846       0.80056120 </v>
    <v>       0.46817065       0.13640055       0.68234821 </v>
    <v>       0.48732293       0.77555660       0.28766986 </v>
    <v>       0.53076372       0.21330462       0.31343908 </v>
    <v>       0.51907659       0.71393713       0.82423396 </v>
    <v>       0.50717807       0.50161980       0.49311768 </v>
    <v>       0.50988371       0.00494975       0.00186430 </v>
    <v>       0.01598156       0.49649066       0.99713407 </v>
    <v>       0.00303959      -0.00000034       0.50039870 </v>
    <v>       0.13701617       0.87769180       0.61160197 </v>
    <v>       0.10645873       0.12079449       0.35864172 </v>
    <v>       0.87541610       0.86047847       0.40095453 </v>
    <v>       0.88913191       0.12594873       0.62920746 </v>
    <v>       0.90308863       0.60590943       0.14170772 </v>
    <v>       0.87950519       0.37081047       0.89174435 </v>
    <v>       0.11893476       0.62543948       0.86217121 </v>
    <v>       0.15087046       0.36903511       0.09952105 </v>
    <v>       0.63290711       0.13516304       0.88746799 </v>
    <v>       0.63121681       0.86756115       0.11118601 </v>
    <v>       0.38635414       0.11665982       0.13271808 </v>
    <v>       0.38201353       0.90892043       0.85849597 </v>
    <v>       0.64799245       0.60824392       0.37493120 </v>
    <v>       0.60332109       0.36140637       0.62079688 </v>
    <v>       0.39551934       0.64482219       0.60573314 </v>
    <v>       0.37654586       0.39783279       0.36008501 </v>
    <v>       0.74799651       0.73753192       0.75740642 </v>
    <v>       0.76072860       0.25045970       0.25559809 </v>
    <v>       0.25452307       0.75807124       0.23666532 </v>
    <v>       0.25941278       0.25368278       0.73853802 </v>
    <v>       0.99054322       0.96740910       0.98957249 </v>
    <v>       0.01688397       0.47386774       0.50796712 </v>
    <v>       0.51662579       0.99593003       0.46183614 </v>
    <v>       0.49444525       0.50635055       0.97429623 </v>
   </varray>
  </structure>
  <varray name="forces" >
   <v>      -0.00041444       0.00154263      -0.00045971 </v>
   <v>       0.00004247       0.00062887      -0.00066466 </v>
   <v>       0.00014462       0.00046785       0.00000804 </v>
   <v>       0.00007008       0.00030716       0.00034420 </v>
   <v>       0.00100069      -0.00037261      -0.00029376 </v>
   <v>      -0.00022827       0.00033154      -0.00005645 </v>
   <v>       0.00028721       0.00001891       0.00016349 </v>
   <v>       0.00039823      -0.00009363       0.00005490 </v>
   <v>      -0.00045321      -0.00035192       0.00116421 </v>
   <v>      -0.00035234       0.00029228      -0.00021749 </v>
   <v>      -0.00032857       0.00026693       0.00013579 </v>
   <v>      -0.00004572      -0.00010974       0.00010539 </v>
   <v>       0.00034157      -0.00056994      -0.00022153 </v>
   <v>      -0.00016976      -0.00034906      -0.00025072 </v>
   <v>      -0.00067092      -0.00033956       0.00035568 </v>
   <v>       0.00012953      -0.00014683       0.00007253 </v>
   <v>       0.00012710       0.00007747       0.00011785 </v>
   <v>       0.00008210      -0.00001762      -0.00035237 </v>
   <v>      -0.00003132      -0.00018628      -0.00044107 </v>
   <v>       0.00010738      -0.00004510      -0.00053346 </v>
   <v>      -0.00014733      -0.00062518       0.00023410 </v>
   <v>      -0.00003333      -0.00001031       0.00015212 </v>
   <v>      -0.00013789       0.00001426       0.00018784 </v>
   <v>       0.00028627       0.00007680       0.00065214 </v>
   <v>       0.00007101       0.00013981      -0.00016456 </v>
   <v>      -0.00039629      -0.00027718       0.00074354 </v>
   <v>       0.00012170       0.00021058      -0.00016178 </v>
   <v>       0.00007904      -0.00000905      -0.00022834 </v>
   <v>       0.00061967       0.00033475      -0.00047883 </v>
   <v>      -0.00055419       0.00013158      -0.00041293 </v>
   <v>      -0.00025745      -0.00013345       0.00034858 </v>
   <v>       0.00043958       0.00002733       0.00022837 </v>
   <v>       0.00026935      -0.00006365       0.00016984 </v>
   <v>      -0.00000037       0.00009421      -0.00003486 </v>
   <v>      -0.00004993       0.00016659      -0.00018171 </v>
   <v>       0.00018337      -0.00006214      -0.00047887 </v>
   <v>      -0.00034928      -0.00000659       0.00057488 </v>
   <v>       0.00008192      -0.00023506       0.00010067 </v>
   <v>      -0.00031374      -0.00027355       0.00049648 </v>
   <v>       0.00002521       0.00002419       0.00000858 </v>
   <v>       0.00006760      -0.00008805      -0.00015779 </v>
   <v>      -0.00011443      -0.00016898      -0.00026878 </v>
   <v>       0.00030914       0.00002311       0.00017649 </v>
   <v>      -0.00023704       0.00010129       0.00000923 </v>
   <v>       0.00015029       0.00012882       0.00022689 </v>
   <v>      -0.00017095      -0.00013295       0.00013804 </v>
   <v>       0.00009082      -0.00000905      -0.00010351 </v>
   <v>      -0.00004210       0.00030284      -0.00016986 </v>
   <v>      -0.00027080      -0.00049449      -0.00011261 </v>
   <v>       0.00023451      -0.00052598       0.00037345 </v>
   <v>       0.00013903      -0.00004943      -0.00061702 </v>
   <v>      -0.00012981       0.00003760      -0.00028066 </v>
  </varray>
  <varray name="stress" >
   <v>       1.37626819      -3.03738057      -3.32380121 </v>
   <v>      -3.03737967      -2.58859136      -0.34154063 </v>
   <v>      -3.32379947      -0.34154179       1.17520093 </v>
  </varray>
  <energy>
   <i name="e_fr_energy">   -272.25324450 </i>
   <i name="e_wo_entrp">   -272.25324450 </i>
   <i name="e_0_energy">   -272.25324450 </i>
  </energy>
  <time name="totalsc">    7.59    7.67</time>
 </calculation>
 <calculation>
  <scstep>
   <time name="dav">    2.27    2.29</time>
   <time name="total">    2.79    2.82</time>
   <energy>
    <i name="alphaZ">    303.24440577 </i>
    <i name="ewald">  -8856.34786539 </i>
    <i name="hartreedc">  -2185.93717004 </i>
    <i name="XCdc">    537.97953058 </i>
    <i name="pawpsdc">   9809.78972916 </i>
    <i name="pawaedc">  -9953.69457681 </i>
    <i name="eentropy">     -0.00000000 </i>
    <i name="bandstr">  -2616.75822796 </i>
    <i name="atom">  12703.13999606 </i>
    <i name="e_fr_energy">   -258.58417863 </i>
    <i name="e_wo_entrp">   -258.58417863 </i>
    <i name="e_0_energy">   -258.58417863 </i>
   </energy>
  </scstep>
  <scstep>
   <time name="diag">    0.36    0.37</time>
   <time name="diis">    0.81    0.82</time>
   <time name="orth">    0.07    0.07</time>
   <time name="total">    1.70    1.71</time>
   <energy>
    <i name="alphaZ">    303.24440577 </i>
    <i name="ewald">  -8856.34786539 </i>
    <i name="hartreedc">  -2185.93718418 </i>
    <i name="XCdc">    537.97942785 </i>
    <i name="pawpsdc">   9809.77749422 </i>
    <i name="pawaedc">  -9953.68215342 </i>
    <i name="eentropy">     -0.00000000 </i>
    <i name="bandstr">  -2616.75829959 </i>
    <i name="atom">  12703.13999606 </i>
    <i name="e_fr_energy">   -258.58417869 </i>
    <i name="e_wo_entrp">   -258.58417869 </i>
    <i name="e_0_energy">   -258.58417869 </i>
   </energy>
  </scstep>
  <structure>
   <crystal>
    <varray name="basis" >
     <v>       9.63761747       0.00000000       0.00000000 </v>
     <v>       0.00000000       9.63761747       0.00000000 </v>
     <v>       0.00000000       0.00000000       9.63761747 </v>
    </varray>
    <i name="volume">    895.17728444 </i>
    <varray name="rec_basis" >
     <v>       0.10376008       0.00000000       0.00000000 </v>
     <v>       0.00000000       0.10376008       0.00000000 </v>
     <v>       0.00000000       0.00000000       0.10376008 </v>
    </varray>
   </crystal>
   <varray name="positions" >
    <v>       0.98615007       0.34319127       0.28305873 </v>
    <v>       0.96353350       0.68723564       0.66335589 </v>
    <v>       0.03126201       0.31922443       0.71027893 </v>
    <v>       0.02369595       0.82342257       0.21012338 </v>
    <v>       0.35176703       0.28765050       0.96032799 </v>
    <v>       0.21361235       0.80919516       0.00581531 </v>
    <v>       0.83979886       0.17202462       0.04147711 </v>
    <v>       0.82354527       0.77248288       0.98009931 </v>
    <v>       0.29980151       0.97632033       0.32967664 </v>
    <v>       0.16175236       0.04287717       0.80578129 </v>
    <v>       0.79678081       0.97092717       0.79233662 </v>
    <v>       0.72094690       0.01700163       0.29638251 </v>
    <v>       0.19275410       0.66846102       0.45246078 </v>
    <v>       0.21494084       0.29075671       0.50708419 </v>
    <v>       0.66593136       0.80033765       0.54143427 </v>
    <v>       0.79970086       0.31621374       0.48455957 </v>
    <v>       0.30654007       0.48629412       0.77214453 </v>
    <v>       0.32102736       0.54100768       0.16128484 </v>
    <v>       0.68874879       0.46318693       0.16109676 </v>
    <v>       0.69800551       0.50430847       0.80056034 </v>
    <v>       0.46817027       0.13639942       0.68234846 </v>
    <v>       0.48732295       0.77555654       0.28767007 </v>
    <v>       0.53076338       0.21330456       0.31343930 </v>
    <v>       0.51907703       0.71393722       0.82423501 </v>
    <v>       0.50717828       0.50162118       0.49311680 </v>
    <v>       0.50988214       0.00494837       0.00186701 </v>
    <v>       0.01598143       0.49649175       0.99713399 </v>
    <v>       0.00303991      -0.00000128       0.50039789 </v>
    <v>       0.13701694       0.87769262       0.61160079 </v>
    <v>       0.10645740       0.12079456       0.35864093 </v>
    <v>       0.87541625       0.86047856       0.40095569 </v>
    <v>       0.88913221       0.12594915       0.62920820 </v>
    <v>       0.90308946       0.60590868       0.14170769 </v>
    <v>       0.87950492       0.37081044       0.89174430 </v>
    <v>       0.11893425       0.62543927       0.86217122 </v>
    <v>       0.15087105       0.36903451       0.09952031 </v>
    <v>       0.63290769       0.13516467       0.88746781 </v>
    <v>       0.63121615       0.86756149       0.11118538 </v>
    <v>       0.38635424       0.11665854       0.13271778 </v>
    <v>       0.38201352       0.90892075       0.85849583 </v>
    <v>       0.64799189       0.60824289       0.37493167 </v>
    <v>       0.60332110       0.36140537       0.62079696 </v>
    <v>       0.39552023       0.64482194       0.60573304 </v>
    <v>       0.37654551       0.39783299       0.36008500 </v>
    <v>       0.74799685       0.73753199       0.75740655 </v>
    <v>       0.76072845       0.25045967       0.25559812 </v>
    <v>       0.25452307       0.75807106       0.23666511 </v>
    <v>       0.25941304       0.25368286       0.73853772 </v>
    <v>       0.99054369       0.96740955       0.98957275 </v>
    <v>       0.01688356       0.47386889       0.50796678 </v>
    <v>       0.51662544       0.99592977       0.46183732 </v>
    <v>       0.49444613       0.50635004       0.97429644 </v>
   </varray>
  </structure>
  <varray name="forces" >
   <v>      -0.00059952       0.00219125      -0.00067806 </v>
   <v>       0.00005155       0.00085292      -0.00096642 </v>
   <v>       0.00016980       0.00058302       0.00002750 </v>
   <v>       0.00008251       0.00038179       0.00042745 </v>
   <v>       0.00139606      -0.00055330      -0.00040030 </v>
   <v>      -0.00030766       0.00042655      -0.00008530 </v>
   <v>       0.00036717       0.00002850       0.00019081 </v>
   <v>       0.00048737      -0.00013524       0.00006136 </v>
   <v>      -0.00067780      -0.00049879       0.00163613 </v>
   <v>      -0.00046911       0.00037712      -0.00027918 </v>
   <v>      -0.00047360       0.00034374       0.00017569 </v>
   <v>      -0.00005382      -0.00015113       0.00012485 </v>
   <v>       0.00045375      -0.00081619      -0.00029560 </v>
   <v>      -0.00020231      -0.00046099      -0.00032940 </v>
   <v>      -0.00094262      -0.00047878       0.00047578 </v>
   <v>       0.00014770      -0.00018305       0.00009051 </v>
   <v>       0.00015441       0.00008361       0.00013575 </v>
   <v>       0.00010547      -0.00004441      -0.00044131 </v>
   <v>      -0.00005881      -0.00023570      -0.00056974 </v>
   <v>       0.00013662      -0.00008347      -0.00068264 </v>
   <v>      -0.00022103      -0.00089704       0.00029655 </v>
   <v>      -0.00003491      -0.00002843       0.00019513 </v>
   <v>      -0.00020861       0.00002608       0.00025149 </v>
   <v>       0.00039207       0.00010739       0.00090677 </v>
   <v>       0.00002435      -0.00044092       0.00015147 </v>
   <v>       0.00000343       0.00016449      -0.00006097 </v>
   <v>       0.00017722      -0.00021794      -0.00023246 </v>
   <v>      -0.00005539       0.00039094       0.00002809 </v>
   <v>       0.00086464       0.00037896      -0.00066632 </v>
   <v>      -0.00077552       0.00008501      -0.00064956 </v>
   <v>      -0.00030310      -0.00027375       0.00045523 </v>
   <v>       0.00059008      -0.00007218       0.00022458 </v>
   <v>       0.00033249      -0.00009994       0.00031675 </v>
   <v>       0.00001176       0.00017782       0.00003201 </v>
   <v>      -0.00011930       0.00024133      -0.00023323 </v>
   <v>       0.00018229      -0.00012560      -0.00065248 </v>
   <v>      -0.00056572      -0.00001628       0.00082850 </v>
   <v>       0.00001675      -0.00037953       0.00014855 </v>
   <v>      -0.00052368      -0.00043224       0.00065068 </v>
   <v>      -0.00000270       0.00005266       0.00003778 </v>
   <v>       0.00017059      -0.00009310      -0.00024987 </v>
   <v>      -0.00020039      -0.00015793      -0.00043197 </v>
   <v>       0.00039739       0.00013070       0.00017023 </v>
   <v>      -0.00028513       0.00020779      -0.00001415 </v>
   <v>       0.00024259       0.00013645       0.00022505 </v>
   <v>      -0.00020561      -0.00012109       0.00012093 </v>
   <v>       0.00007922      -0.00004322      -0.00015725 </v>
   <v>       0.00003967       0.00027514      -0.00023338 </v>
   <v>      -0.00003172      -0.00028571       0.00003281 </v>
   <v>       0.00004010       0.00000003       0.00019851 </v>
   <v>      -0.00002227      -0.00017884      -0.00013660 </v>
   <v>       0.00022326      -0.00013849      -0.00017076 </v>
  </varray>
  <varray name="stress" >
   <v>       1.37282851      -3.03768021      -3.32412930 </v>
   <v>      -3.03767952      -2.59228731      -0.34094372 </v>
   <v>      -3.32412780      -0.34094473       1.17175034 </v>
  </varray>
  <energy>
   <i name="e_fr_energy">   -272.25324500 </i>
   <i name="e_wo_entrp">   -272.25324500 </i>
   <i name="e_0_energy">   -272.25324500 </i>
  </energy>
  <time name="totalsc">    7.57    7.64</time>
 </calculation>
 <calculation>
  <scstep>
   <time name="dav">    2.39    2.41</time>
   <time name="total">    2.91    2.93</time>
   <energy>
    <i name="alphaZ">    303.24440577 </i>
    <i name="ewald">  -8856.35068386 </i>
    <i name="hartreedc">  -2185.93430832 </i>
    <i name="XCdc">    537.97938455 </i>
    <i name="pawpsdc">   9809.76942681 </i>
    <i name="pawaedc">  -9953.67400181 </i>
    <i name="eentropy">     -0.00000000 </i>
    <i name="bandstr">  -2616.75839926 </i>
    <i name="atom">  12703.13999606 </i>
    <i name="e_fr_energy">   -258.58418006 </i>
    <i name="e_wo_entrp">   -258.58418006 </i>
    <i name="e_0_energy">   -258.58418006 </i>
   </energy>
  </scstep>
  <scstep>
   <time name="diag">    0.36    0.37</time>
   <time name="diis">    0.83    0.84</time>
   <time name="orth">    0.07    0.07</time>
   <time name="total">    1.72    1.73</time>
   <energy>
    <i name="alphaZ">    303.24440577 </i>
    <i name="ewald">  -8856.35068386 </i>
    <i name="hartreedc">  -2185.93445024 </i>
    <i name="XCdc">    537.97935245 </i>
    <i name="pawpsdc">   9809.76443541 </i>
    <i name="pawaedc">  -9953.66894536 </i>
    <i name="eentropy">     -0.00000000 </i>
    <i name="bandstr">  -2616.75829049 </i>
    <i name="atom">  12703.13999606 </i>
    <i name="e_fr_energy">   -258.58418026 </i>
    <i name="e_wo_entrp">   -258.58418026 </i>
    <i name="e_0_energy">   -258.58418026 </i>
   </energy>
  </scstep>
  <structure>
   <crystal>
    <varray name="basis" >
     <v>       9.63761747       0.00000000       0.00000000 </v>
     <v>       0.00000000       9.63761747       0.00000000 </v>
     <v>       0.00000000       0.00000000       9.63761747 </v>
    </varray>
    <i name="volume">    895.17728444 </i>
    <varray name="rec_basis" >
     <v>       0.10376008       0.00000000       0.00000000 </v>
     <v>       0.00000000       0.10376008       0.00000000 </v>
     <v>       0.00000000       0.00000000       0.10376008 </v>
    </varray>
   </crystal>
   <varray name="positions" >
    <v>       0.98614865       0.34319629       0.28305714 </v>
    <v>       0.96353368       0.68723769       0.66335354 </v>
    <v>       0.03126259       0.31922601       0.71027892 </v>
    <v>       0.02369605       0.82342340       0.21012454 </v>
    <v>       0.35177019       0.28764911       0.96032726 </v>
    <v>       0.21361154       0.80919620       0.00581514 </v>
    <v>       0.83979994       0.17202458       0.04147786 </v>
    <v>       0.82354650       0.77248236       0.98009966 </v>
    <v>       0.29979997       0.97631913       0.32968023 </v>
    <v>       0.16175126       0.04287790       0.80578052 </v>
    <v>       0.79677969       0.97092753       0.79233714 </v>
    <v>       0.72094669       0.01700091       0.29638266 </v>
    <v>       0.19275518       0.66845911       0.45246012 </v>
    <v>       0.21494021       0.29075541       0.50708319 </v>
    <v>       0.66592915       0.80033631       0.54143512 </v>
    <v>       0.79970134       0.31621332       0.48455955 </v>
    <v>       0.30654040       0.48629463       0.77214488 </v>
    <v>       0.32102768       0.54100773       0.16128364 </v>
    <v>       0.68874870       0.46318660       0.16109541 </v>
    <v>       0.69800583       0.50430847       0.80055860 </v>
    <v>       0.46816951       0.13639716       0.68234895 </v>
    <v>       0.48732298       0.77555642       0.28767050 </v>
    <v>       0.53076270       0.21330443       0.31343973 </v>
    <v>       0.51907790       0.71393741       0.82423710 </v>
    <v>       0.50717869       0.50162394       0.49311504 </v>
    <v>       0.50987901       0.00494560       0.00187243 </v>
    <v>       0.01598117       0.49649391       0.99713383 </v>
    <v>       0.00304055      -0.00000315       0.50039628 </v>
    <v>       0.13701848       0.87769426       0.61159842 </v>
    <v>       0.10645475       0.12079469       0.35863933 </v>
    <v>       0.87541655       0.86047875       0.40095799 </v>
    <v>       0.88913279       0.12595001       0.62920969 </v>
    <v>       0.90309113       0.60590719       0.14170765 </v>
    <v>       0.87950438       0.37081037       0.89174421 </v>
    <v>       0.11893323       0.62543885       0.86217123 </v>
    <v>       0.15087223       0.36903329       0.09951885 </v>
    <v>       0.63290886       0.13516793       0.88746747 </v>
    <v>       0.63121484       0.86756218       0.11118413 </v>
    <v>       0.38635446       0.11665597       0.13271718 </v>
    <v>       0.38201348       0.90892141       0.85849555 </v>
    <v>       0.64799077       0.60824082       0.37493262 </v>
    <v>       0.60332113       0.36140336       0.62079711 </v>
    <v>       0.39552201       0.64482142       0.60573282 </v>
    <v>       0.37654480       0.39783341       0.36008498 </v>
    <v>       0.74799753       0.73753214       0.75740681 </v>
    <v>       0.76072815       0.25045962       0.25559820 </v>
    <v>       0.25452309       0.75807070       0.23666469 </v>
    <v>       0.25941355       0.25368302       0.73853712 </v>
    <v>       0.99054464       0.96741044       0.98957327 </v>
    <v>       0.01688273       0.47387118       0.50796611 </v>
    <v>       0.51662475       0.99592925       0.46183969 </v>
    <v>       0.49444790       0.50634903       0.97429684 </v>
   </varray>
  </structure>
  <varray name="forces" >
   <v>      -0.00041031       0.00159128      -0.00049829 </v>
   <v>       0.00002280       0.00060203      -0.00067741 </v>
   <v>       0.00010061       0.00043466       0.00003905 </v>
   <v>       0.00009482       0.00032652       0.00033081 </v>
   <v>       0.00104709      -0.00037003      -0.00037551 </v>
   <v>      -0.00025011       0.00033851      -0.00009665 </v>
   <v>       0.00024451       0.00005756       0.00006360 </v>
   <v>       0.00041677      -0.00007112      -0.00000680 </v>
   <v>      -0.00051658      -0.00034371       0.00124369 </v>
   <v>      -0.00036869       0.00034109      -0.00021328 </v>
   <v>      -0.00044161       0.00042598       0.00013303 </v>
   <v>      -0.00002652      -0.00004803       0.00014597 </v>
   <v>       0.00033141      -0.00060786      -0.00022477 </v>
   <v>      -0.00014734      -0.00037496      -0.00024223 </v>
   <v>      -0.00068132      -0.00029149       0.00044540 </v>
   <v>       0.00008341      -0.00018733       0.00015736 </v>
   <v>       0.00014623      -0.00001013       0.00011391 </v>
   <v>       0.00006756      -0.00009827      -0.00034778 </v>
   <v>      -0.00005120      -0.00027546      -0.00049711 </v>
   <v>       0.00011309      -0.00014807      -0.00055838 </v>
   <v>      -0.00005044      -0.00058614       0.00030769 </v>
   <v>      -0.00006729      -0.00001210       0.00016048 </v>
   <v>      -0.00013003       0.00006798       0.00026005 </v>
   <v>       0.00030368       0.00009220       0.00065587 </v>
   <v>      -0.00009794      -0.00169724       0.00082279 </v>
   <v>       0.00109009       0.00123177      -0.00203562 </v>
   <v>       0.00038231      -0.00113089      -0.00034744 </v>
   <v>      -0.00031243       0.00125419       0.00054909 </v>
   <v>       0.00092586       0.00001850      -0.00029428 </v>
   <v>      -0.00040505       0.00007503      -0.00056240 </v>
   <v>      -0.00061134      -0.00062402      -0.00004441 </v>
   <v>       0.00080445      -0.00050282      -0.00022687 </v>
   <v>      -0.00005821       0.00032254       0.00065042 </v>
   <v>       0.00021340       0.00032906       0.00017496 </v>
   <v>       0.00016026       0.00054159      -0.00040883 </v>
   <v>      -0.00018086       0.00024379      -0.00059178 </v>
   <v>      -0.00152032      -0.00130350       0.00159854 </v>
   <v>       0.00054113      -0.00094372       0.00067020 </v>
   <v>      -0.00105347       0.00028679       0.00131081 </v>
   <v>       0.00002300      -0.00006241       0.00011086 </v>
   <v>       0.00082218       0.00055359      -0.00078461 </v>
   <v>      -0.00043239       0.00048616      -0.00081521 </v>
   <v>       0.00003333       0.00044780       0.00034178 </v>
   <v>      -0.00019359       0.00022907      -0.00001411 </v>
   <v>       0.00016001       0.00012270       0.00019740 </v>
   <v>      -0.00018964      -0.00011728       0.00010879 </v>
   <v>       0.00008154      -0.00000011      -0.00009052 </v>
   <v>      -0.00003050       0.00025627      -0.00017024 </v>
   <v>      -0.00019686      -0.00046860      -0.00003394 </v>
   <v>       0.00018596      -0.00033595       0.00031222 </v>
   <v>       0.00008415      -0.00011189      -0.00052742 </v>
   <v>      -0.00005560       0.00004643      -0.00021889 </v>
  </varray>
  <varray name="stress" >
   <v>       1.37328389      -3.03906748      -3.32514360 </v>
   <v>      -3.03906671      -2.59242638      -0.33902717 </v>
   <v>      -3.32514209      -0.33902832       1.17241807 </v>
  </varray>
  <energy>
   <i name="e_fr_energy">   -272.25324550 </i>
   <i name="e_wo_entrp">   -272.25324550 </i>
   <i name="e_0_energy">   -272.25324550 </i>
  </energy>
  <time name="totalsc">    7.69    7.76</time>
 </calculation>
 <calculation>
  <scstep>
   <time name="dav">    2.36    2.38</time>
   <time name="total">    2.88    2.91</time>
   <energy>
    <i name="alphaZ">    303.24440577 </i>
    <i name="ewald">  -8856.35639237 </i>
    <i name="hartreedc">  -2185.92968499 </i>
    <i name="XCdc">    537.97925470 </i>
    <i name="pawpsdc">   9809.75952642 </i>
    <i name="pawaedc">  -9953.66399329 </i>
    <i name="eentropy">     -0.00000000 </i>
    <i name="bandstr">  -2616.75729477 </i>
    <i name="atom">  12703.13999606 </i>
    <i name="e_fr_energy">   -258.58418247 </i>
    <i name="e_wo_entrp">   -258.58418247 </i>
    <i name="e_0_energy">   -258.58418247 </i>
   </energy>
  </scstep>
  <scstep>
   <time name="diag">    0.36    0.37</time>
   <time name="diis">    0.83    0.84</time>
   <time name="orth">    0.07    0.07</time>
   <time name="total">    1.71    1.73</time>
   <energy>
    <i name="alphaZ">    303.24440577 </i>
    <i name="ewald">  -8856.35639237 </i>
    <i name="hartreedc">  -2185.92965030 </i>
    <i name="XCdc">    537.97922939 </i>
    <i name="pawpsdc">   9809.75244070 </i>
    <i name="pawaedc">  -9953.65685821 </i>
    <i name="eentropy">     -0.00000000 </i>
    <i name="bandstr">  -2616.75735387 </i>
    <i name="atom">  12703.13999606 </i>
    <i name="e_fr_energy">   -258.58418283 </i>
    <i name="e_wo_entrp">   -258.58418283 </i>
    <i name="e_0_energy">   -258.58418283 </i>
   </energy>
  </scstep>
  <structure>
   <crystal>
    <varray name="basis" >
     <v>       9.63761747       0.00000000       0.00000000 </v>
     <v>       0.00000000       9.63761747       0.00000000 </v>
     <v>       0.00000000       0.00000000       9.63761747 </v>
    </varray>
    <i name="volume">    895.17728444 </i>
    <varray name="rec_basis" >
     <v>       0.10376008       0.00000000       0.00000000 </v>
     <v>       0.00000000       0.10376008       0.00000000 </v>
     <v>       0.00000000       0.00000000       0.10376008 </v>
    </varray>
   </crystal>
   <varray name="positions" >
    <v>       0.98614645       0.34320439       0.28305460 </v>
    <v>       0.96353389       0.68724087       0.66334992 </v>
    <v>       0.03126332       0.31922839       0.71027900 </v>
    <v>       0.02369637       0.82342489       0.21012633 </v>
    <v>       0.35177539       0.28764704       0.96032573 </v>
    <v>       0.21361024       0.80919791       0.00581475 </v>
    <v>       0.83980144       0.17202469       0.04147865 </v>
    <v>       0.82354855       0.77248174       0.98009994 </v>
    <v>       0.29979742       0.97631729       0.32968628 </v>
    <v>       0.16174944       0.04287934       0.80577935 </v>
    <v>       0.79677768       0.97092886       0.79233789 </v>
    <v>       0.72094644       0.01700019       0.29638313 </v>
    <v>       0.19275690       0.66845604       0.45245901 </v>
    <v>       0.21493933       0.29075341       0.50708176 </v>
    <v>       0.66592563       0.80033448       0.54143692 </v>
    <v>       0.79970194       0.31621251       0.48455991 </v>
    <v>       0.30654102       0.48629503       0.77214545 </v>
    <v>       0.32102812       0.54100753       0.16128178 </v>
    <v>       0.68874850       0.46318567       0.16109308 </v>
    <v>       0.69800639       0.50430812       0.80055578 </v>
    <v>       0.46816874       0.13639383       0.68235011 </v>
    <v>       0.48732285       0.77555629       0.28767125 </v>
    <v>       0.53076181       0.21330449       0.31344072 </v>
    <v>       0.51907938       0.71393779       0.82424046 </v>
    <v>       0.50717881       0.50162219       0.49311554 </v>
    <v>       0.50987898       0.00494621       0.00187212 </v>
    <v>       0.01598187       0.49649301       0.99713285 </v>
    <v>       0.00304035      -0.00000171       0.50039624 </v>
    <v>       0.13702201       0.87769569       0.61159571 </v>
    <v>       0.10645151       0.12079498       0.35863663 </v>
    <v>       0.87541533       0.86047740       0.40095983 </v>
    <v>       0.88913522       0.12594952       0.62921040 </v>
    <v>       0.90309239       0.60590670       0.14170918 </v>
    <v>       0.87950443       0.37081110       0.89174455 </v>
    <v>       0.11893275       0.62543980       0.86217026 </v>
    <v>       0.15087279       0.36903285       0.09951618 </v>
    <v>       0.63290618       0.13516755       0.88747103 </v>
    <v>       0.63121503       0.86756049       0.11118468 </v>
    <v>       0.38635211       0.11665448       0.13271983 </v>
    <v>       0.38201351       0.90892181       0.85849559 </v>
    <v>       0.64799180       0.60824040       0.37493154 </v>
    <v>       0.60332011       0.36140284       0.62079528 </v>
    <v>       0.39552360       0.64482206       0.60573347 </v>
    <v>       0.37654374       0.39783431       0.36008494 </v>
    <v>       0.74799848       0.73753256       0.75740750 </v>
    <v>       0.76072743       0.25045929       0.25559852 </v>
    <v>       0.25452329       0.75807039       0.23666411 </v>
    <v>       0.25941391       0.25368377       0.73853620 </v>
    <v>       0.99054496       0.96741007       0.98957362 </v>
    <v>       0.01688247       0.47387231       0.50796629 </v>
    <v>       0.51662436       0.99592854       0.46184043 </v>
    <v>       0.49444926       0.50634829       0.97429665 </v>
   </varray>
  </structure>
  <varray name="forces" >
   <v>      -0.00031080       0.00106699      -0.00029716 </v>
   <v>       0.00002762       0.00043791      -0.00046910 </v>
   <v>       0.00010168       0.00028278       0.00003080 </v>
   <v>       0.00002012       0.00017276       0.00022767 </v>
   <v>       0.00070039      -0.00028650      -0.00019591 </v>
   <v>      -0.00016996       0.00019146      -0.00004417 </v>
   <v>       0.00016824       0.00002092       0.00012013 </v>
   <v>       0.00022015      -0.00005477       0.00006828 </v>
   <v>      -0.00033169      -0.00023604       0.00079685 </v>
   <v>      -0.00024575       0.00020311      -0.00014918 </v>
   <v>      -0.00024114       0.00014629       0.00007656 </v>
   <v>      -0.00002832      -0.00008561       0.00006163 </v>
   <v>       0.00023428      -0.00040872      -0.00013750 </v>
   <v>      -0.00008339      -0.00023526      -0.00015323 </v>
   <v>      -0.00047350      -0.00024558       0.00025290 </v>
   <v>       0.00005894      -0.00009851       0.00003081 </v>
   <v>       0.00004439       0.00003222       0.00006449 </v>
   <v>       0.00004355      -0.00003091      -0.00019085 </v>
   <v>      -0.00002873      -0.00012250      -0.00025201 </v>
   <v>       0.00006890      -0.00002407      -0.00032509 </v>
[...]
       <r>     8.0887    11.7973   144.6598 </r>
       <r>     8.2817    14.0953   147.3850 </r>
       <r>     8.4748    17.1539   150.6989 </r>
       <r>     8.6678    12.8168   153.1735 </r>
       <r>     8.8609    14.0041   155.8777 </r>
       <r>     9.0540    19.5025   159.6430 </r>
       <r>     9.2470    17.4037   163.0041 </r>
       <r>     9.4401    18.2158   166.5215 </r>
       <r>     9.6332    17.0303   169.8118 </r>
       <r>     9.8262    17.4204   173.1773 </r>
       <r>    10.0193    12.6772   175.6254 </r>
       <r>    10.2123     1.9350   176.0000 </r>
       <r>    10.4054     0.0000   176.0000 </r>
       <r>    10.5985     0.0000   176.0000 </r>
       <r>    10.7915     0.0000   176.0000 </r>
       <r>    10.9846     0.0000   176.0000 </r>
       <r>    11.1777     0.0000   176.0000 </r>
       <r>    11.3707     0.0000   176.0000 </r>
       <r>    11.5638     0.0000   176.0000 </r>
       <r>    11.7568     0.0000   176.0000 </r>
       <r>    11.9499     0.0000   176.0000 </r>
       <r>    12.1430     0.0000   176.0000 </r>
       <r>    12.3360     0.0000   176.0000 </r>
       <r>    12.5291     0.0000   176.0000 </r>
       <r>    12.7221     0.0000   176.0000 </r>
      </set>
      <set comment="spin 2">
       <r>   -45.1964     0.0000     0.0000 </r>
       <r>   -45.0034     0.0000     0.0000 </r>
       <r>   -44.8103     0.0000     0.0000 </r>
       <r>   -44.6172     0.0000     0.0000 </r>
       <r>   -44.4242     0.0000     0.0000 </r>
       <r>   -44.2311     0.0000     0.0000 </r>
       <r>   -44.0381     0.0000     0.0000 </r>
       <r>   -43.8450     0.0000     0.0000 </r>
       <r>   -43.6519     0.0000     0.0000 </r>
       <r>   -43.4589     0.0000     0.0000 </r>
       <r>   -43.2658     0.0000     0.0000 </r>
       <r>   -43.0727     0.0000     0.0000 </r>
       <r>   -42.8797     0.0000     0.0000 </r>
       <r>   -42.6866     0.0000     0.0000 </r>
       <r>   -42.4936    16.9124     3.2651 </r>
       <r>   -42.3005    58.8753    14.6357 </r>
       <r>   -42.1074    48.3892    23.9884 </r>
       <r>   -41.9144     0.0000    24.0000 </r>
       <r>   -41.7213     0.0000    24.0000 </r>
       <r>   -41.5282     0.0000    24.0000 </r>
       <r>   -41.3352     0.0000    24.0000 </r>
       <r>   -41.1421     0.0000    24.0000 </r>
       <r>   -40.9491     0.0000    24.0000 </r>
       <r>   -40.7560     0.0000    24.0000 </r>
       <r>   -40.5629     0.0000    24.0000 </r>
       <r>   -40.3699     0.0000    24.0000 </r>
       <r>   -40.1768     0.0000    24.0000 </r>
       <r>   -39.9838     0.0000    24.0000 </r>
       <r>   -39.7907     0.0000    24.0000 </r>
       <r>   -39.5976     0.0000    24.0000 </r>
       <r>   -39.4046     0.0000    24.0000 </r>
       <r>   -39.2115     0.0000    24.0000 </r>
       <r>   -39.0184     0.0000    24.0000 </r>
       <r>   -38.8254     0.0000    24.0000 </r>
       <r>   -38.6323     0.0000    24.0000 </r>
       <r>   -38.4393     0.0000    24.0000 </r>
       <r>   -38.2462     0.0000    24.0000 </r>
       <r>   -38.0531     0.0000    24.0000 </r>
       <r>   -37.8601     0.0000    24.0000 </r>
       <r>   -37.6670     0.0000    24.0000 </r>
       <r>   -37.4739     0.0000    24.0000 </r>
       <r>   -37.2809     0.0000    24.0000 </r>
       <r>   -37.0878     0.0000    24.0000 </r>
       <r>   -36.8948     0.0000    24.0000 </r>
       <r>   -36.7017     0.0000    24.0000 </r>
       <r>   -36.5086     0.0000    24.0000 </r>
       <r>   -36.3156     0.0000    24.0000 </r>
       <r>   -36.1225     0.0000    24.0000 </r>
       <r>   -35.9295     0.0000    24.0000 </r>
       <r>   -35.7364     0.0000    24.0000 </r>
       <r>   -35.5433     0.0000    24.0000 </r>
       <r>   -35.3503     0.0000    24.0000 </r>
       <r>   -35.1572     0.0000    24.0000 </r>
       <r>   -34.9641     0.0000    24.0000 </r>
       <r>   -34.7711     0.0000    24.0000 </r>
       <r>   -34.5780     0.0000    24.0000 </r>
       <r>   -34.3850     0.0000    24.0000 </r>
       <r>   -34.1919     0.0000    24.0000 </r>
       <r>   -33.9988     0.0000    24.0000 </r>
       <r>   -33.8058     0.0000    24.0000 </r>
       <r>   -33.6127     0.0000    24.0000 </r>
       <r>   -33.4196     0.0000    24.0000 </r>
       <r>   -33.2266     0.0000    24.0000 </r>
       <r>   -33.0335     0.0000    24.0000 </r>
       <r>   -32.8405     0.0000    24.0000 </r>
       <r>   -32.6474     0.0000    24.0000 </r>
       <r>   -32.4543     0.0000    24.0000 </r>
       <r>   -32.2613     0.0000    24.0000 </r>
       <r>   -32.0682     0.0000    24.0000 </r>
       <r>   -31.8752     0.0000    24.0000 </r>
       <r>   -31.6821     0.0000    24.0000 </r>
       <r>   -31.4890     0.0000    24.0000 </r>
       <r>   -31.2960     0.0000    24.0000 </r>
       <r>   -31.1029     0.0000    24.0000 </r>
       <r>   -30.9098     0.0000    24.0000 </r>
       <r>   -30.7168     0.0000    24.0000 </r>
       <r>   -30.5237     0.0000    24.0000 </r>
       <r>   -30.3307     0.0000    24.0000 </r>
       <r>   -30.1376     0.0000    24.0000 </r>
       <r>   -29.9445     0.0000    24.0000 </r>
       <r>   -29.7515     0.0000    24.0000 </r>
       <r>   -29.5584     0.0000    24.0000 </r>
       <r>   -29.3653     0.0000    24.0000 </r>
       <r>   -29.1723     0.0000    24.0000 </r>
       <r>   -28.9792     0.0000    24.0000 </r>
       <r>   -28.7862     0.0000    24.0000 </r>
       <r>   -28.5931     0.0000    24.0000 </r>
       <r>   -28.4000     0.0000    24.0000 </r>
       <r>   -28.2070     0.0000    24.0000 </r>
       <r>   -28.0139     0.0000    24.0000 </r>
       <r>   -27.8209     0.0000    24.0000 </r>
       <r>   -27.6278     0.0000    24.0000 </r>
       <r>   -27.4347     0.0000    24.0000 </r>
       <r>   -27.2417     0.0000    24.0000 </r>
       <r>   -27.0486     0.0000    24.0000 </r>
       <r>   -26.8555     0.0000    24.0000 </r>
       <r>   -26.6625     0.0000    24.0000 </r>
       <r>   -26.4694     0.0000    24.0000 </r>
       <r>   -26.2764     0.0000    24.0000 </r>
       <r>   -26.0833     0.0000    24.0000 </r>
       <r>   -25.8902     0.0000    24.0000 </r>
       <r>   -25.6972     0.0000    24.0000 </r>
       <r>   -25.5041     0.0000    24.0000 </r>
       <r>   -25.3110     0.0000    24.0000 </r>
       <r>   -25.1180     0.0000    24.0000 </r>
       <r>   -24.9249     0.0000    24.0000 </r>
       <r>   -24.7319     0.0000    24.0000 </r>
       <r>   -24.5388     0.0000    24.0000 </r>
       <r>   -24.3457     0.0000    24.0000 </r>
       <r>   -24.1527     0.0000    24.0000 </r>
       <r>   -23.9596     0.0000    24.0000 </r>
       <r>   -23.7666     0.0000    24.0000 </r>
       <r>   -23.5735     0.0000    24.0000 </r>
       <r>   -23.3804     0.0000    24.0000 </r>
       <r>   -23.1874     0.0000    24.0000 </r>
       <r>   -22.9943     0.0000    24.0000 </r>
       <r>   -22.8012     0.0000    24.0000 </r>
       <r>   -22.6082     0.0000    24.0000 </r>
       <r>   -22.4151     0.0000    24.0000 </r>
       <r>   -22.2221     0.0000    24.0000 </r>
       <r>   -22.0290     0.0000    24.0000 </r>
       <r>   -21.8359     0.0000    24.0000 </r>
       <r>   -21.6429     0.0000    24.0000 </r>
       <r>   -21.4498     0.0000    24.0000 </r>
       <r>   -21.2567     0.0000    24.0000 </r>
       <r>   -21.0637     0.0000    24.0000 </r>
       <r>   -20.8706     0.0000    24.0000 </r>
       <r>   -20.6776     0.0000    24.0000 </r>
       <r>   -20.4845     0.0000    24.0000 </r>
       <r>   -20.2914     0.0000    24.0000 </r>
       <r>   -20.0984     0.0000    24.0000 </r>
       <r>   -19.9053     0.0000    24.0000 </r>
       <r>   -19.7123     0.0000    24.0000 </r>
       <r>   -19.5192     0.0000    24.0000 </r>
       <r>   -19.3261     0.0000    24.0000 </r>
       <r>   -19.1331     0.0000    24.0000 </r>
       <r>   -18.9400     0.0000    24.0000 </r>
       <r>   -18.7469     0.0000    24.0000 </r>
       <r>   -18.5539     0.0000    24.0000 </r>
       <r>   -18.3608     0.0000    24.0000 </r>
       <r>   -18.1678     0.0000    24.0000 </r>
       <r>   -17.9747     0.0000    24.0000 </r>
       <r>   -17.7816     0.0000    24.0000 </r>
       <r>   -17.5886     0.0000    24.0000 </r>
       <r>   -17.3955     0.0000    24.0000 </r>
       <r>   -17.2024     0.0000    24.0000 </r>
       <r>   -17.0094     0.0000    24.0000 </r>
       <r>   -16.8163     0.0000    24.0000 </r>
       <r>   -16.6233     0.0000    24.0000 </r>
       <r>   -16.4302     0.0000    24.0000 </r>
       <r>   -16.2371     0.0000    24.0000 </r>
       <r>   -16.0441     0.0000    24.0000 </r>
       <r>   -15.8510     0.0000    24.0000 </r>
       <r>   -15.6580     0.0000    24.0000 </r>
       <r>   -15.4649     0.0000    24.0000 </r>
       <r>   -15.2718     0.0000    24.0000 </r>
       <r>   -15.0788     0.0000    24.0000 </r>
       <r>   -14.8857     0.0000    24.0000 </r>
       <r>   -14.6926     0.0000    24.0000 </r>
       <r>   -14.4996     0.0000    24.0000 </r>
       <r>   -14.3065     0.0000    24.0000 </r>
       <r>   -14.1135     0.0000    24.0000 </r>
       <r>   -13.9204     0.0000    24.0000 </r>
       <r>   -13.7273     0.0000    24.0000 </r>
       <r>   -13.5343     0.0000    24.0000 </r>
       <r>   -13.3412     0.0000    24.0000 </r>
       <r>   -13.1481     0.0000    24.0000 </r>
       <r>   -12.9551     5.3293    25.0289 </r>
       <r>   -12.7620    15.3895    28.0000 </r>
       <r>   -12.5690    12.1941    30.3542 </r>
       <r>   -12.3759     8.5137    32.0000 </r>
       <r>   -12.1828     0.0000    32.0000 </r>
       <r>   -11.9898     0.0000    32.0000 </r>
       <r>   -11.7967     0.0000    32.0000 </r>
       <r>   -11.6037     0.0000    32.0000 </r>
       <r>   -11.4106     0.0000    32.0000 </r>
       <r>   -11.2175     0.0000    32.0000 </r>
       <r>   -11.0245     0.0000    32.0000 </r>
       <r>   -10.8314     0.0000    32.0000 </r>
       <r>   -10.6383     0.0000    32.0000 </r>
       <r>   -10.4453     0.0000    32.0000 </r>
       <r>   -10.2522     0.1860    32.0359 </r>
       <r>   -10.0592    17.0140    35.3207 </r>
       <r>    -9.8661    29.7165    41.0578 </r>
       <r>    -9.6730    15.2314    44.0000 </r>
       <r>    -9.4800     0.0000    44.0000 </r>
       <r>    -9.2869     0.0000    44.0000 </r>
       <r>    -9.0938     0.0000    44.0000 </r>
       <r>    -8.9008     0.0000    44.0000 </r>
       <r>    -8.7077     0.0000    44.0000 </r>
       <r>    -8.5147     0.0000    44.0000 </r>
       <r>    -8.3216     4.9727    44.9600 </r>
       <r>    -8.1285    15.7172    47.9944 </r>
       <r>    -7.9355     0.0000    48.0000 </r>
       <r>    -7.7424     0.0000    48.0000 </r>
       <r>    -7.5494     0.0000    48.0000 </r>
       <r>    -7.3563     0.0000    48.0000 </r>
       <r>    -7.1632     0.0000    48.0000 </r>
       <r>    -6.9702     0.0000    48.0000 </r>
       <r>    -6.7771     0.0000    48.0000 </r>
       <r>    -6.5840     0.0000    48.0000 </r>
       <r>    -6.3910     0.0000    48.0000 </r>
       <r>    -6.1979     0.0000    48.0000 </r>
       <r>    -6.0049     5.0442    48.9738 </r>
       <r>    -5.8118     0.1355    49.0000 </r>
       <r>    -5.6187     3.6649    49.7076 </r>
       <r>    -5.4257    11.8729    51.9997 </r>
       <r>    -5.2326     0.0000    52.0000 </r>
       <r>    -5.0395     0.0000    52.0000 </r>
       <r>    -4.8465     0.0000    52.0000 </r>
       <r>    -4.6534     0.0000    52.0000 </r>
       <r>    -4.4604     0.0000    52.0000 </r>
       <r>    -4.2673     0.0000    52.0000 </r>
       <r>    -4.0742     0.0000    52.0000 </r>
       <r>    -3.8812     0.0000    52.0000 </r>
       <r>    -3.6881     0.0000    52.0000 </r>
       <r>    -3.4951     0.0000    52.0000 </r>
       <r>    -3.3020     0.0000    52.0000 </r>
       <r>    -3.1089    11.5413    54.2282 </r>
       <r>    -2.9159     3.9932    55.0000 </r>
       <r>    -2.7228     5.1721    55.9985 </r>
       <r>    -2.5297    10.5858    58.0440 </r>
       <r>    -2.3367    13.5566    60.6613 </r>
       <r>    -2.1436    17.2028    63.9827 </r>
       <r>    -1.9506     0.0782    64.0000 </r>
       <r>    -1.7575     0.0000    64.0000 </r>
       <r>    -1.5644     0.5182    64.1000 </r>
       <r>    -1.3714    23.0400    68.5482 </r>
       <r>    -1.1783    17.0718    71.8442 </r>
       <r>    -0.9852    21.3923    75.9742 </r>
       <r>    -0.7922     0.1291    76.0000 </r>
       <r>    -0.5991     0.0010    76.0002 </r>
       <r>    -0.4061    14.3736    78.7752 </r>
       <r>    -0.2130    11.1839    80.9349 </r>
       <r>    -0.0199    14.2387    83.6869 </r>
       <r>     0.1731    26.4633    88.7964 </r>
       <r>     0.3662    24.1466    93.4609 </r>
       <r>     0.5592    13.1333    95.9968 </r>
       <r>     0.7523     1.2889    96.2488 </r>
       <r>     0.9454    16.6082    99.4552 </r>
       <r>     1.1384    19.9760   103.3143 </r>
       <r>     1.3315    19.9770   107.1736 </r>
       <r>     1.5246    28.8930   112.7539 </r>
       <r>     1.7176    25.6050   117.7071 </r>
       <r>     1.9107    11.8212   119.9928 </r>
       <r>     2.1037     0.0363   120.0000 </r>
       <r>     2.2968     0.0000   120.0000 </r>
       <r>     2.4899     0.0000   120.0000 </r>
       <r>     2.6829     0.0000   120.0000 </r>
       <r>     2.8760     0.0000   120.0000 </r>
       <r>     3.0691     0.0000   120.0000 </r>
       <r>     3.2621     0.0000   120.0000 </r>
       <r>     3.4552     0.0000   120.0000 </r>
       <r>     3.6482     0.0000   120.0000 </r>
       <r>     3.8413     0.0000   120.0000 </r>
       <r>     4.0344     0.0000   120.0000 </r>
       <r>     4.2274     0.0000   120.0000 </r>
       <r>     4.4205     0.0000   120.0000 </r>
       <r>     4.6135     5.1793   120.9999 </r>
       <r>     4.8066     0.0000   121.0000 </r>
       <r>     4.9997     0.0000   121.0000 </r>
       <r>     5.1927     0.0000   121.0000 </r>
       <r>     5.3858     8.8111   122.7011 </r>
       <r>     5.5789     6.7260   124.0000 </r>
       <r>     5.7719     0.0000   124.0000 </r>
       <r>     5.9650     3.3244   124.6418 </r>
       <r>     6.1580    13.9986   127.3444 </r>
       <r>     6.3511    13.6802   129.9868 </r>
       <r>     6.5442     1.2638   130.2331 </r>
       <r>     6.7372    14.0405   132.9438 </r>
       <r>     6.9303     9.5587   134.7892 </r>
       <r>     7.1234     6.2796   136.0023 </r>
       <r>     7.3164     5.1672   136.9999 </r>
       <r>     7.5095     6.9266   138.3373 </r>
       <r>     7.7025    10.0575   140.2832 </r>
       <r>     7.8956    10.8530   142.3812 </r>
       <r>     8.0887    11.7973   144.6598 </r>
       <r>     8.2817    14.0953   147.3850 </r>
       <r>     8.4748    17.1539   150.6989 </r>
       <r>     8.6678    12.8168   153.1735 </r>
       <r>     8.8609    14.0041   155.8777 </r>
       <r>     9.0540    19.5025   159.6430 </r>
       <r>     9.2470    17.4036   163.0040 </r>
       <r>     9.4401    18.2154   166.5214 </r>
       <r>     9.6332    16.9653   169.7992 </r>
       <r>     9.8262    17.5521   173.1902 </r>
       <r>    10.0193    13.0986   175.7195 </r>
       <r>    10.2123     1.4423   176.0000 </r>
       <r>    10.4054     0.0000   176.0000 </r>
       <r>    10.5985     0.0000   176.0000 </r>
       <r>    10.7915     0.0000   176.0000 </r>
       <r>    10.9846     0.0000   176.0000 </r>
       <r>    11.1777     0.0000   176.0000 </r>
       <r>    11.3707     0.0000   176.0000 </r>
       <r>    11.5638     0.0000   176.0000 </r>
       <r>    11.7568     0.0000   176.0000 </r>
       <r>    11.9499     0.0000   176.0000 </r>
       <r>    12.1430     0.0000   176.0000 </r>
       <r>    12.3360     0.0000   176.0000 </r>
       <r>    12.5291     0.0000   176.0000 </r>
       <r>    12.7221     0.0000   176.0000 </r>
      </set>
     </set>
    </array>
   </total>
  </dos>
 </calculation>
 <structure name="finalpos" >
  <crystal>
   <varray name="basis" >
    <v>       9.63761747       0.00000000       0.00000000 </v>
    <v>       0.00000000       9.63761747       0.00000000 </v>
    <v>       0.00000000       0.00000000       9.63761747 </v>
   </varray>
   <i name="volume">    895.17728444 </i>
   <varray name="rec_basis" >
    <v>       0.10376008       0.00000000       0.00000000 </v>
    <v>       0.00000000       0.10376008       0.00000000 </v>
    <v>       0.00000000       0.00000000       0.10376008 </v>
   </varray>
  </crystal>
  <varray name="positions" >
   <v>       0.98614384       0.34321402       0.28305157 </v>
   <v>       0.96353414       0.68724466       0.66334562 </v>
   <v>       0.03126420       0.31923122       0.71027909 </v>
   <v>       0.02369674       0.82342667       0.21012846 </v>
   <v>       0.35178157       0.28764457       0.96032391 </v>
   <v>       0.21360870       0.80919993       0.00581430 </v>
   <v>       0.83980323       0.17202482       0.04147959 </v>
   <v>       0.82355099       0.77248102       0.98010027 </v>
   <v>       0.29979438       0.97631509       0.32969347 </v>
   <v>       0.16174728       0.04288106       0.80577797 </v>
   <v>       0.79677528       0.97093043       0.79233879 </v>
   <v>       0.72094615       0.01699933       0.29638370 </v>
   <v>       0.19275894       0.66845238       0.45245769 </v>
   <v>       0.21493827       0.29075103       0.50708005 </v>
   <v>       0.66592145       0.80033230       0.54143905 </v>
   <v>       0.79970267       0.31621155       0.48456034 </v>
   <v>       0.30654177       0.48629551       0.77214613 </v>
   <v>       0.32102864       0.54100730       0.16127957 </v>
   <v>       0.68874827       0.46318456       0.16109029 </v>
   <v>       0.69800704       0.50430771       0.80055243 </v>
   <v>       0.46816783       0.13638988       0.68235149 </v>
   <v>       0.48732269       0.77555614       0.28767214 </v>
   <v>       0.53076076       0.21330457       0.31344189 </v>
   <v>       0.51908113       0.71393824       0.82424445 </v>
   <v>       0.50717895       0.50162010       0.49311612 </v>
   <v>       0.50987894       0.00494695       0.00187175 </v>
   <v>       0.01598271       0.49649195       0.99713169 </v>
   <v>       0.00304010       0.00000000       0.50039619 </v>
   <v>       0.13702622       0.87769740       0.61159248 </v>
   <v>       0.10644767       0.12079533       0.35863340 </v>
   <v>       0.87541388       0.86047579       0.40096203 </v>
   <v>       0.88913812       0.12594893       0.62921124 </v>
   <v>       0.90309390       0.60590612       0.14171101 </v>
   <v>       0.87950450       0.37081197       0.89174496 </v>
   <v>       0.11893219       0.62544093       0.86216910 </v>
   <v>       0.15087346       0.36903232       0.09951300 </v>
   <v>       0.63290300       0.13516710       0.88747527 </v>
   <v>       0.63121526       0.86755848       0.11118534 </v>
   <v>       0.38634931       0.11665272       0.13272298 </v>
   <v>       0.38201354       0.90892229       0.85849562 </v>
   <v>       0.64799302       0.60823990       0.37493025 </v>
   <v>       0.60331889       0.36140221       0.62079309 </v>
   <v>       0.39552548       0.64482283       0.60573423 </v>
   <v>       0.37654247       0.39783539       0.36008488 </v>
   <v>       0.74799962       0.73753307       0.75740833 </v>
   <v>       0.76072658       0.25045891       0.25559891 </v>
   <v>       0.25452354       0.75807003       0.23666343 </v>
   <v>       0.25941434       0.25368466       0.73853510 </v>
   <v>       0.99054535       0.96740962       0.98957405 </v>
   <v>       0.01688216       0.47387365       0.50796650 </v>
   <v>       0.51662390       0.99592769       0.46184131 </v>
   <v>       0.49445088       0.50634740       0.97429643 </v>
  </varray>
 </structure>
</modeling>
