unknown system                          
           1
     9.637617    0.000000    0.000000
     0.000000    9.637617    0.000000
     0.000000    0.000000    9.637617
   Li   P    S    Cl
    24     4    20     4
Direct configuration=     1
   0.98615219  0.34318377  0.28306110
   0.96353323  0.68723259  0.66335939
   0.03126115  0.31922208  0.71027896
   0.02369580  0.82342132  0.21012164
   0.35176232  0.28765258  0.96032909
   0.21361357  0.80919359  0.00581558
   0.83979726  0.17202467  0.04147599
   0.82354343  0.77248365  0.98009880
   0.29980381  0.97632213  0.32967128
   0.16175400  0.04287609  0.80578244
   0.79678249  0.97092665  0.79233586
   0.72094722  0.01700269  0.29638229
   0.19275248  0.66846385  0.45246178
   0.21494177  0.29075864  0.50708568
   0.66593466  0.80033965  0.54143300
   0.79970014  0.31621437  0.48455961
   0.30653959  0.48629337  0.77214400
   0.32102687  0.54100761  0.16128664
   0.68874891  0.46318740  0.16109876
   0.69800501  0.50430846  0.80056293
   0.46817140  0.13640279  0.68234772
   0.48732290  0.77555672  0.28766944
   0.53076440  0.21330474  0.31343866
   0.51907573  0.71393694  0.82423189
   0.50717766  0.50161706  0.49311943
   0.50988682  0.00495251  0.00185892
   0.01598181  0.49648852  0.99713423
   0.00303895  0.00000151  0.50040030
   0.13701465  0.87769017  0.61160432
   0.10646137  0.12079436  0.35864331
   0.87541580  0.86047829  0.40095225
   0.88913134  0.12594788  0.62920599
   0.90308698  0.60591091  0.14170776
   0.87950572  0.37081054  0.89174444
   0.11893577  0.62543989  0.86217119
   0.15086929  0.36903632  0.09952251
   0.63290596  0.13515980  0.88746833
   0.63121811  0.86756046  0.11118725
   0.38635392  0.11666237  0.13271867
   0.38201356  0.90891978  0.85849625
   0.64799357  0.60824598  0.37493025
   0.60332106  0.36140836  0.62079673
   0.39551757  0.64482271  0.60573335
   0.37654656  0.39783238  0.36008502
   0.74799584  0.73753177  0.75740616
   0.76072891  0.25045975  0.25559802
   0.25452306  0.75807160  0.23666574
   0.25941228  0.25368263  0.73853862
   0.99054229  0.96740822  0.98957198
   0.01688480  0.47386547  0.50796779
   0.51662648  0.99593054  0.46183378
   0.49444349  0.50635156  0.97429583
Direct configuration=     2
   0.98615078  0.34318876  0.28305952
   0.96353341  0.68723462  0.66335706
   0.03126172  0.31922365  0.71027894
   0.02369590  0.82342215  0.21012279
   0.35176546  0.28765120  0.96032836
   0.21361276  0.80919463  0.00581540
   0.83979832  0.17202463  0.04147673
   0.82354465  0.77248314  0.98009914
   0.29980228  0.97632094  0.32967485
   0.16175291  0.04287681  0.80578168
   0.79678137  0.97092700  0.79233637
   0.72094701  0.01700198  0.29638244
   0.19275356  0.66846197  0.45246112
   0.21494115  0.29075736  0.50708469
   0.66593247  0.80033832  0.54143384
   0.79970062  0.31621395  0.48455959
   0.30653991  0.48629387  0.77214435
   0.32102719  0.54100766  0.16128545
   0.68874883  0.46318709  0.16109743
   0.69800534  0.50430846  0.80056120
   0.46817065  0.13640055  0.68234821
   0.48732293  0.77555660  0.28766986
   0.53076372  0.21330462  0.31343908
   0.51907659  0.71393713  0.82423396
   0.50717807  0.50161980  0.49311768
   0.50988371  0.00494975  0.00186430
   0.01598156  0.49649066  0.99713407
   0.00303959 -0.00000034  0.50039870
   0.13701617  0.87769180  0.61160197
   0.10645873  0.12079449  0.35864172
   0.87541610  0.86047847  0.40095453
   0.88913191  0.12594873  0.62920746
   0.90308863  0.60590943  0.14170772
   0.87950519  0.37081047  0.89174435
   0.11893476  0.62543948  0.86217121
   0.15087046  0.36903511  0.09952105
   0.63290711  0.13516304  0.88746799
   0.63121681  0.86756115  0.11118601
   0.38635414  0.11665982  0.13271808
   0.38201353  0.90892043  0.85849597
   0.64799245  0.60824392  0.37493120
   0.60332109  0.36140637  0.62079688
   0.39551934  0.64482219  0.60573314
   0.37654586  0.39783279  0.36008501
   0.74799651  0.73753192  0.75740642
   0.76072860  0.25045970  0.25559809
   0.25452307  0.75807124  0.23666532
   0.25941278  0.25368278  0.73853802
   0.99054322  0.96740910  0.98957249
   0.01688397  0.47386774  0.50796712
   0.51662579  0.99593003  0.46183614
   0.49444525  0.50635055  0.97429623
Direct configuration=     3
   0.98615007  0.34319127  0.28305873
   0.96353350  0.68723564  0.66335589
   0.03126201  0.31922443  0.71027893
   0.02369595  0.82342257  0.21012338
   0.35176703  0.28765050  0.96032799
   0.21361235  0.80919516  0.00581531
   0.83979886  0.17202462  0.04147711
   0.82354527  0.77248288  0.98009931
   0.29980151  0.97632033  0.32967664
   0.16175236  0.04287717  0.80578129
   0.79678081  0.97092717  0.79233662
   0.72094690  0.01700163  0.29638251
   0.19275410  0.66846102  0.45246078
   0.21494084  0.29075671  0.50708419
   0.66593136  0.80033765  0.54143427
   0.79970086  0.31621374  0.48455957
   0.30654007  0.48629412  0.77214453
   0.32102736  0.54100768  0.16128484
   0.68874879  0.46318693  0.16109676
   0.69800551  0.50430847  0.80056034
   0.46817027  0.13639942  0.68234846
   0.48732295  0.77555654  0.28767007
   0.53076338  0.21330456  0.31343930
   0.51907703  0.71393722  0.82423501
   0.50717828  0.50162118  0.49311680
   0.50988214  0.00494837  0.00186701
   0.01598143  0.49649175  0.99713399
   0.00303991 -0.00000128  0.50039789
   0.13701694  0.87769262  0.61160079
   0.10645740  0.12079456  0.35864093
   0.87541625  0.86047856  0.40095569
   0.88913221  0.12594915  0.62920820
   0.90308946  0.60590868  0.14170769
   0.87950492  0.37081044  0.89174430
   0.11893425  0.62543927  0.86217122
   0.15087105  0.36903451  0.09952031
   0.63290769  0.13516467  0.88746781
   0.63121615  0.86756149  0.11118538
   0.38635424  0.11665854  0.13271778
   0.38201352  0.90892075  0.85849583
   0.64799189  0.60824289  0.37493167
   0.60332110  0.36140537  0.62079696
   0.39552023  0.64482194  0.60573304
   0.37654551  0.39783299  0.36008500
   0.74799685  0.73753199  0.75740655
   0.76072845  0.25045967  0.25559812
   0.25452307  0.75807106  0.23666511
   0.25941304  0.25368286  0.73853772
   0.99054369  0.96740955  0.98957275
   0.01688356  0.47386889  0.50796678
   0.51662544  0.99592977  0.46183732
   0.49444613  0.50635004  0.97429644
Direct configuration=     4
   0.98614865  0.34319629  0.28305714
   0.96353368  0.68723769  0.66335354
   0.03126259  0.31922601  0.71027892
   0.02369605  0.82342340  0.21012454
   0.35177019  0.28764911  0.96032726
   0.21361154  0.80919620  0.00581514
   0.83979994  0.17202458  0.04147786
   0.82354650  0.77248236  0.98009966
   0.29979997  0.97631913  0.32968023
   0.16175126  0.04287790  0.80578052
   0.79677969  0.97092753  0.79233714
   0.72094669  0.01700091  0.29638266
   0.19275518  0.66845911  0.45246012
   0.21494021  0.29075541  0.50708319
   0.66592915  0.80033631  0.54143512
   0.79970134  0.31621332  0.48455955
   0.30654040  0.48629463  0.77214488
   0.32102768  0.54100773  0.16128364
   0.68874870  0.46318660  0.16109541
   0.69800583  0.50430847  0.80055860
   0.46816951  0.13639716  0.68234895
   0.48732298  0.77555642  0.28767050
   0.53076270  0.21330443  0.31343973
   0.51907790  0.71393741  0.82423710
   0.50717869  0.50162394  0.49311504
   0.50987901  0.00494560  0.00187243
   0.01598117  0.49649391  0.99713383
   0.00304055 -0.00000315  0.50039628
   0.13701848  0.87769426  0.61159842
   0.10645475  0.12079469  0.35863933
   0.87541655  0.86047875  0.40095799
   0.88913279  0.12595001  0.62920969
   0.90309113  0.60590719  0.14170765
   0.87950438  0.37081037  0.89174421
   0.11893323  0.62543885  0.86217123
   0.15087223  0.36903329  0.09951885
   0.63290886  0.13516793  0.88746747
   0.63121484  0.86756218  0.11118413
   0.38635446  0.11665597  0.13271718
   0.38201348  0.90892141  0.85849555
   0.64799077  0.60824082  0.37493262
   0.60332113  0.36140336  0.62079711
   0.39552201  0.64482142  0.60573282
   0.37654480  0.39783341  0.36008498
   0.74799753  0.73753214  0.75740681
   0.76072815  0.25045962  0.25559820
   0.25452309  0.75807070  0.23666469
   0.25941355  0.25368302  0.73853712
   0.99054464  0.96741044  0.98957327
   0.01688273  0.47387118  0.50796611
   0.51662475  0.99592925  0.46183969
   0.49444790  0.50634903  0.97429684
Direct configuration=     5
   0.98614645  0.34320439  0.28305460
   0.96353389  0.68724087  0.66334992
   0.03126332  0.31922839  0.71027900
   0.02369637  0.82342489  0.21012633
   0.35177539  0.28764704  0.96032573
   0.21361024  0.80919791  0.00581475
   0.83980144  0.17202469  0.04147865
   0.82354855  0.77248174  0.98009994
   0.29979742  0.97631729  0.32968628
   0.16174944  0.04287934  0.80577935
   0.79677768  0.97092886  0.79233789
   0.72094644  0.01700019  0.29638313
   0.19275690  0.66845604  0.45245901
   0.21493933  0.29075341  0.50708176
   0.66592563  0.80033448  0.54143692
   0.79970194  0.31621251  0.48455991
   0.30654102  0.48629503  0.77214545
   0.32102812  0.54100753  0.16128178
   0.68874850  0.46318567  0.16109308
   0.69800639  0.50430812  0.80055578
   0.46816874  0.13639383  0.68235011
   0.48732285  0.77555629  0.28767125
   0.53076181  0.21330449  0.31344072
   0.51907938  0.71393779  0.82424046
   0.50717881  0.50162219  0.49311554
   0.50987898  0.00494621  0.00187212
   0.01598187  0.49649301  0.99713285
   0.00304035 -0.00000171  0.50039624
   0.13702201  0.87769569  0.61159571
   0.10645151  0.12079498  0.35863663
   0.87541533  0.86047740  0.40095983
   0.88913522  0.12594952  0.62921040
   0.90309239  0.60590670  0.14170918
   0.87950443  0.37081110  0.89174455
   0.11893275  0.62543980  0.86217026
   0.15087279  0.36903285  0.09951618
   0.63290618  0.13516755  0.88747103
   0.63121503  0.86756049  0.11118468
   0.38635211  0.11665448  0.13271983
   0.38201351  0.90892181  0.85849559
   0.64799180  0.60824040  0.37493154
   0.60332011  0.36140284  0.62079528
   0.39552360  0.64482206  0.60573347
   0.37654374  0.39783431  0.36008494
   0.74799848  0.73753256  0.75740750
   0.76072743  0.25045929  0.25559852
   0.25452329  0.75807039  0.23666411
   0.25941391  0.25368377  0.73853620
   0.99054496  0.96741007  0.98957362
   0.01688247  0.47387231  0.50796629
   0.51662436  0.99592854  0.46184043
   0.49444926  0.50634829  0.97429665
Direct configuration=     6
   0.98614384  0.34321402  0.28305157
   0.96353414  0.68724466  0.66334562
   0.03126420  0.31923122  0.71027909
   0.02369674  0.82342667  0.21012846
   0.35178157  0.28764457  0.96032391
   0.21360870  0.80919993  0.00581430
   0.83980323  0.17202482  0.04147959
   0.82355099  0.77248102  0.98010027
   0.29979438  0.97631509  0.32969347
   0.16174728  0.04288106  0.80577797
   0.79677528  0.97093043  0.79233879
   0.72094615  0.01699933  0.29638370
   0.19275894  0.66845238  0.45245769
   0.21493827  0.29075103  0.50708005
   0.66592145  0.80033230  0.54143905
   0.79970267  0.31621155  0.48456034
   0.30654177  0.48629551  0.77214613
   0.32102864  0.54100730  0.16127957
   0.68874827  0.46318456  0.16109029
   0.69800704  0.50430771  0.80055243
   0.46816783  0.13638988  0.68235149
   0.48732269  0.77555614  0.28767214
   0.53076076  0.21330457  0.31344189
   0.51908113  0.71393824  0.82424445
   0.50717895  0.50162010  0.49311612
   0.50987894  0.00494695  0.00187175
   0.01598271  0.49649195  0.99713169
   0.00304010  0.00000000  0.50039619
   0.13702622  0.87769740  0.61159248
   0.10644767  0.12079533  0.35863340
   0.87541388  0.86047579  0.40096203
   0.88913812  0.12594893  0.62921124
   0.90309390  0.60590612  0.14171101
   0.87950450  0.37081197  0.89174496
   0.11893219  0.62544093  0.86216910
   0.15087346  0.36903232  0.09951300
   0.63290300  0.13516710  0.88747527
   0.63121526  0.86755848  0.11118534
   0.38634931  0.11665272  0.13272298
   0.38201354  0.90892229  0.85849562
   0.64799302  0.60823990  0.37493025
   0.60331889  0.36140221  0.62079309
   0.39552548  0.64482283  0.60573423
   0.37654247  0.39783539  0.36008488
   0.74799962  0.73753307  0.75740833
   0.76072658  0.25045891  0.25559891
   0.25452354  0.75807003  0.23666343
   0.25941434  0.25368466  0.73853510
   0.99054535  0.96740962  0.98957405
   0.01688216  0.47387365  0.50796650
   0.51662390  0.99592769  0.46184131
   0.49445088  0.50634740  0.97429643
