       N       E                     dE             d eps       ncg     rms          rms(c)
DAV:   1     0.159038184402E+04    0.15904E+04   -0.11338E+05  2320   0.126E+03
DAV:   2    -0.551200452062E+02   -0.16455E+04   -0.15482E+04  2880   0.359E+02
DAV:   3    -0.228328819405E+03   -0.17321E+03   -0.17113E+03  2832   0.117E+02
DAV:   4    -0.241535203392E+03   -0.13206E+02   -0.13182E+02  3544   0.332E+01
DAV:   5    -0.241787711865E+03   -0.25251E+00   -0.25240E+00  3376   0.462E+00
DAV:   6    -0.241797060126E+03   -0.93483E-02   -0.93470E-02  3456   0.107E+00
DAV:   7    -0.241797449751E+03   -0.38962E-03   -0.38960E-03  3416   0.213E-01
DAV:   8    -0.241797473577E+03   -0.23826E-04   -0.23826E-04  3408   0.623E-02
DAV:   9    -0.241797475159E+03   -0.15823E-05   -0.15822E-05  3392   0.137E-02
DAV:  10    -0.241797475232E+03   -0.73207E-07   -0.73151E-07  2000   0.430E-03    0.646E+01
RMM:  11    -0.234754566486E+03    0.70429E+01   -0.49152E+01  2112   0.196E+01    0.331E+01
RMM:  12    -0.255878169005E+03   -0.21124E+02   -0.23299E+01  2219   0.138E+01    0.207E+01
RMM:  13    -0.258405077674E+03   -0.25269E+01   -0.85996E+00  2174   0.531E+00    0.727E+00
RMM:  14    -0.258588011900E+03   -0.18293E+00   -0.19836E+00  2745   0.336E+00    0.322E+00
RMM:  15    -0.258557886396E+03    0.30126E-01   -0.35995E-01  2308   0.166E+00    0.654E-01
RMM:  16    -0.258578905937E+03   -0.21020E-01   -0.10673E-01  2317   0.883E-01    0.307E-01
RMM:  17    -0.258584543723E+03   -0.56378E-02   -0.24628E-02  2595   0.444E-01    0.175E-01
RMM:  18    -0.258585831527E+03   -0.12878E-02   -0.69363E-03  2498   0.207E-01    0.898E-02
RMM:  19    -0.258586292572E+03   -0.46104E-03   -0.21267E-03  2971   0.114E-01    0.438E-02
RMM:  20    -0.258586374179E+03   -0.81608E-04   -0.47311E-04  2828   0.476E-02    0.262E-02
RMM:  21    -0.258586391291E+03   -0.17111E-04   -0.14747E-04  2503   0.283E-02    0.979E-03
RMM:  22    -0.258586398290E+03   -0.69997E-05   -0.54751E-05  2830   0.159E-02    0.625E-03
RMM:  23    -0.258586398138E+03    0.15203E-06   -0.14081E-05  2249   0.827E-03    0.311E-03
RMM:  24    -0.258586397236E+03    0.90256E-06   -0.52535E-06  1694   0.619E-03
   1 F= -.27201270E+03 E0= -.27201270E+03  d E =-.272013E+03  mag=    -0.0004
       N       E                     dE             d eps       ncg     rms          rms(c)
DAV:   1    -0.258586481078E+03   -0.82940E-04   -0.33634E-03  2312   0.106E-01    0.130E-02
RMM:   2    -0.258586492986E+03   -0.11907E-04   -0.20451E-04  2140   0.529E-02    0.607E-03
RMM:   3    -0.258586499064E+03   -0.60784E-05   -0.82867E-05  2357   0.236E-02    0.343E-03
RMM:   4    -0.258586500871E+03   -0.18074E-05   -0.14869E-05  2272   0.106E-02    0.258E-03
RMM:   5    -0.258586500987E+03   -0.11600E-06   -0.16725E-06  1450   0.394E-03
   2 F= -.27201284E+03 E0= -.27201284E+03  d E =-.142214E-03  mag=     0.0000
       N       E                     dE             d eps       ncg     rms          rms(c)
DAV:   1    -0.258586481772E+03    0.19100E-04   -0.70507E-03  2520   0.155E-01    0.186E-02
RMM:   2    -0.258586508627E+03   -0.26855E-04   -0.41952E-04  2141   0.758E-02    0.895E-03
RMM:   3    -0.258586521622E+03   -0.12994E-04   -0.16929E-04  2403   0.345E-02    0.498E-03
RMM:   4    -0.258586525193E+03   -0.35719E-05   -0.30983E-05  2405   0.150E-02    0.378E-03
RMM:   5    -0.258586525413E+03   -0.21982E-06   -0.34938E-06  1673   0.498E-03
   3 F= -.27201292E+03 E0= -.27201292E+03  d E =-.222617E-03  mag=     0.0000
       N       E                     dE             d eps       ncg     rms          rms(c)
DAV:   1    -0.258586523684E+03    0.15092E-05   -0.10790E-05  2584   0.624E-03    0.111E-03
RMM:   2    -0.258586523487E+03    0.19699E-06   -0.83894E-07  1326   0.369E-03
   4 F= -.27201292E+03 E0= -.27201292E+03  d E =-.222838E-03  mag=     0.0000
       N       E                     dE             d eps       ncg     rms          rms(c)
DAV:   1    -0.258586535305E+03   -0.11621E-04   -0.80071E-04  2624   0.514E-02    0.439E-03
RMM:   2    -0.258586537579E+03   -0.22738E-05   -0.26471E-05  2546   0.168E-02    0.157E-03
RMM:   3    -0.258586537993E+03   -0.41458E-06   -0.61298E-06  1757   0.777E-03
   5 F= -.27201293E+03 E0= -.27201293E+03  d E =-.105862E-04  mag=     0.0000
       N       E                     dE             d eps       ncg     rms          rms(c)
DAV:   1    -0.258586544853E+03   -0.72744E-05   -0.43890E-04  2664   0.376E-02    0.313E-03
RMM:   2    -0.258586546103E+03   -0.12495E-05   -0.14787E-05  2237   0.132E-02    0.135E-03
RMM:   3    -0.258586546326E+03   -0.22289E-06   -0.37984E-06  1599   0.621E-03
   6 F= -.27201294E+03 E0= -.27201294E+03  d E =-.160948E-04  mag=     0.0000
       N       E                     dE             d eps       ncg     rms          rms(c)
DAV:   1    -0.258586551723E+03   -0.56199E-05   -0.16790E-03  2456   0.741E-02    0.618E-03
RMM:   2    -0.258586556471E+03   -0.47487E-05   -0.54101E-05  2592   0.248E-02    0.234E-03
RMM:   3    -0.258586557639E+03   -0.11672E-05   -0.14605E-05  2285   0.117E-02    0.185E-03
RMM:   4    -0.258586557710E+03   -0.71608E-07   -0.23484E-06  1438   0.579E-03
   7 F= -.27201294E+03 E0= -.27201294E+03  d E =-.218309E-04  mag=     0.0000
       N       E                     dE             d eps       ncg     rms          rms(c)
DAV:   1    -0.258586567508E+03   -0.98699E-05   -0.57470E-04  2664   0.391E-02    0.338E-03
RMM:   2    -0.258586569047E+03   -0.15387E-05   -0.16001E-05  2229   0.126E-02    0.886E-04
RMM:   3    -0.258586569312E+03   -0.26468E-06   -0.37233E-06  1471   0.582E-03
   8 F= -.27201295E+03 E0= -.27201295E+03  d E =-.806805E-05  mag=     0.0000
       N       E                     dE             d eps       ncg     rms          rms(c)
DAV:   1    -0.258586586552E+03   -0.17505E-04   -0.51770E-03  2456   0.116E-01    0.983E-03
RMM:   2    -0.258586599300E+03   -0.12748E-04   -0.13210E-04  2775   0.353E-02    0.253E-03
RMM:   3    -0.258586602261E+03   -0.29609E-05   -0.32158E-05  2609   0.166E-02    0.215E-03
RMM:   4    -0.258586602721E+03   -0.45998E-06   -0.62314E-06  1467   0.646E-03
   9 F= -.27201297E+03 E0= -.27201297E+03  d E =-.308451E-04  mag=     0.0000
       N       E                     dE             d eps       ncg     rms          rms(c)
DAV:   1    -0.258586598542E+03    0.37190E-05   -0.20613E-02  2448   0.233E-01    0.195E-02
RMM:   2    -0.258586648803E+03   -0.50260E-04   -0.52013E-04  2851   0.695E-02    0.512E-03
RMM:   3    -0.258586659579E+03   -0.10776E-04   -0.11097E-04  2883   0.320E-02    0.392E-03
RMM:   4    -0.258586662851E+03   -0.32723E-05   -0.36060E-05  2175   0.154E-02    0.476E-03
RMM:   5    -0.258586662782E+03    0.68620E-07   -0.14035E-06  1422   0.512E-03
  10 F= -.27201301E+03 E0= -.27201301E+03  d E =-.696345E-04  mag=     0.0000
       N       E                     dE             d eps       ncg     rms          rms(c)
DAV:   1    -0.258586500649E+03    0.16220E-03   -0.81734E-02  2448   0.463E-01    0.432E-02
RMM:   2    -0.258586697339E+03   -0.19669E-03   -0.20692E-03  2866   0.136E-01    0.113E-02
RMM:   3    -0.258586747396E+03   -0.50057E-04   -0.50342E-04  2844   0.625E-02    0.793E-03
RMM:   4    -0.258586755769E+03   -0.83733E-05   -0.91170E-05  2891   0.261E-02    0.892E-03
RMM:   5    -0.258586755471E+03    0.29796E-06   -0.45888E-06  1768   0.650E-03
  11 F= -.27201306E+03 E0= -.27201306E+03  d E =-.119742E-03  mag=    -0.0000
       N       E                     dE             d eps       ncg     rms          rms(c)
DAV:   1    -0.258586770041E+03   -0.14272E-04   -0.40110E-03  2832   0.100E-01    0.140E-02
RMM:   2    -0.258586778474E+03   -0.84333E-05   -0.10520E-04  2782   0.304E-02    0.561E-03
RMM:   3    -0.258586780581E+03   -0.21067E-05   -0.26756E-05  2542   0.146E-02    0.173E-03
RMM:   4    -0.258586781215E+03   -0.63424E-06   -0.70561E-06  1546   0.730E-03
  12 F= -.27201308E+03 E0= -.27201308E+03  d E =-.172731E-04  mag=     0.0000
       N       E                     dE             d eps       ncg     rms          rms(c)
DAV:   1    -0.258586733155E+03    0.47426E-04   -0.37553E-02  2384   0.310E-01    0.253E-02
RMM:   2    -0.258586823047E+03   -0.89892E-04   -0.93789E-04  2884   0.907E-02    0.630E-03
RMM:   3    -0.258586845108E+03   -0.22060E-04   -0.22695E-04  2900   0.419E-02    0.610E-03
RMM:   4    -0.258586848526E+03   -0.34185E-05   -0.38565E-05  2533   0.175E-02    0.653E-03
RMM:   5    -0.258586848362E+03    0.16414E-06   -0.21630E-06  1434   0.541E-03
  13 F= -.27201312E+03 E0= -.27201312E+03  d E =-.590379E-04  mag=    -0.0000
       N       E                     dE             d eps       ncg     rms          rms(c)
DAV:   1    -0.258586473144E+03    0.37538E-03   -0.14928E-01  2464   0.618E-01    0.534E-02
RMM:   2    -0.258586826322E+03   -0.35318E-03   -0.37211E-03  2894   0.181E-01    0.139E-02
RMM:   3    -0.258586917438E+03   -0.91116E-04   -0.92172E-04  2912   0.838E-02    0.115E-02
RMM:   4    -0.258586931346E+03   -0.13908E-04   -0.15338E-04  2910   0.349E-02    0.120E-02
RMM:   5    -0.258586930895E+03    0.45122E-06   -0.89063E-06  2169   0.907E-03
  14 F= -.27201315E+03 E0= -.27201315E+03  d E =-.907424E-04  mag=     0.0000
       N       E                     dE             d eps       ncg     rms          rms(c)
DAV:   1    -0.258586803845E+03    0.12750E-03   -0.31863E-02  2464   0.289E-01    0.197E-02
RMM:   2    -0.258586882675E+03   -0.78830E-04   -0.80434E-04  2857   0.841E-02    0.666E-03
RMM:   3    -0.258586899753E+03   -0.17079E-04   -0.18218E-04  2775   0.378E-02    0.759E-03
RMM:   4    -0.258586902191E+03   -0.24382E-05   -0.30876E-05  2323   0.156E-02    0.790E-03
RMM:   5    -0.258586901939E+03    0.25226E-06   -0.13910E-06  1432   0.505E-03
  15 F= -.27201315E+03 E0= -.27201315E+03  d E =-.849896E-04  mag=     0.0000
       N       E                     dE             d eps       ncg     rms          rms(c)
DAV:   1    -0.258586883864E+03    0.18327E-04   -0.11919E-02  2448   0.176E-01    0.178E-02
RMM:   2    -0.258586912680E+03   -0.28816E-04   -0.30669E-04  2872   0.520E-02    0.497E-03
RMM:   3    -0.258586920557E+03   -0.78770E-05   -0.78465E-05  2896   0.241E-02    0.263E-03
RMM:   4    -0.258586921401E+03   -0.84401E-06   -0.93011E-06  1649   0.907E-03
  16 F= -.27201315E+03 E0= -.27201315E+03  d E =-.901112E-04  mag=    -0.0000
       N       E                     dE             d eps       ncg     rms          rms(c)
DAV:   1    -0.258586903008E+03    0.17549E-04   -0.29450E-03  2448   0.879E-02    0.812E-03
RMM:   2    -0.258586910453E+03   -0.74451E-05   -0.78943E-05  2740   0.259E-02    0.194E-03
RMM:   3    -0.258586911990E+03   -0.15365E-05   -0.18081E-05  2008   0.122E-02    0.120E-03
RMM:   4    -0.258586912285E+03   -0.29577E-06   -0.34382E-06  1414   0.564E-03
  17 F= -.27201315E+03 E0= -.27201315E+03  d E =-.881672E-04  mag=    -0.0000
       N       E                     dE             d eps       ncg     rms          rms(c)
DAV:   1    -0.258586914646E+03   -0.26563E-05   -0.11107E-03  2472   0.535E-02    0.516E-03
RMM:   2    -0.258586917469E+03   -0.28233E-05   -0.30491E-05  2576   0.163E-02    0.134E-03
RMM:   3    -0.258586918008E+03   -0.53830E-06   -0.74646E-06  1570   0.761E-03
  18 F= -.27201315E+03 E0= -.27201315E+03  d E =-.894744E-04  mag=    -0.0000
       N       E                     dE             d eps       ncg     rms          rms(c)
DAV:   1    -0.258586914404E+03    0.30653E-05   -0.26767E-04  2496   0.272E-02    0.275E-03
RMM:   2    -0.258586915082E+03   -0.67851E-06   -0.73820E-06  1665   0.865E-03
  19 F= -.27201315E+03 E0= -.27201315E+03  d E =-.887569E-04  mag=     0.0000
       N       E                     dE             d eps       ncg     rms          rms(c)
DAV:   1    -0.258586916876E+03   -0.24720E-05   -0.12197E-04  2344   0.181E-02    0.178E-03
RMM:   2    -0.258586917111E+03   -0.23459E-06   -0.27322E-06  1351   0.553E-03
  20 F= -.27201315E+03 E0= -.27201315E+03  d E =-.892755E-04  mag=     0.0000
       N       E                     dE             d eps       ncg     rms          rms(c)
DAV:   1    -0.258586916150E+03    0.72558E-06   -0.28973E-05  1904   0.913E-03    0.969E-04
RMM:   2    -0.258586916220E+03   -0.69915E-07   -0.76265E-07  1112   0.348E-03
  21 F= -.27201315E+03 E0= -.27201315E+03  d E =-.891400E-04  mag=     0.0000
       N       E                     dE             d eps       ncg     rms          rms(c)
DAV:   1    -0.258586916839E+03   -0.68814E-06   -0.11801E-05  1496   0.547E-03    0.610E-04
RMM:   2    -0.258586916863E+03   -0.24795E-07   -0.33809E-07  1092   0.240E-03
  22 F= -.27201315E+03 E0= -.27201315E+03  d E =-.892973E-04  mag=     0.0000
       N       E                     dE             d eps       ncg     rms          rms(c)
DAV:   1    -0.258586922469E+03   -0.56307E-05   -0.39492E-03  2384   0.995E-02    0.805E-03
RMM:   2    -0.258586932046E+03   -0.95768E-05   -0.99636E-05  2763   0.292E-02    0.178E-03
RMM:   3    -0.258586934181E+03   -0.21351E-05   -0.24052E-05  2174   0.137E-02    0.188E-03
RMM:   4    -0.258586934456E+03   -0.27444E-06   -0.35586E-06  1516   0.644E-03
  23 F= -.27201316E+03 E0= -.27201316E+03  d E =-.108731E-04  mag=     0.0000
       N       E                     dE             d eps       ncg     rms          rms(c)
DAV:   1    -0.258586918484E+03    0.15697E-04   -0.16563E-02  2464   0.203E-01    0.158E-02
RMM:   2    -0.258586957846E+03   -0.39362E-04   -0.40605E-04  2860   0.587E-02    0.382E-03
RMM:   3    -0.258586967432E+03   -0.95854E-05   -0.99817E-05  2823   0.269E-02    0.437E-03
RMM:   4    -0.258586968596E+03   -0.11642E-05   -0.13830E-05  1851   0.104E-02    0.473E-03
RMM:   5    -0.258586968539E+03    0.57109E-07   -0.10464E-06  1404   0.465E-03
  24 F= -.27201318E+03 E0= -.27201318E+03  d E =-.311669E-04  mag=    -0.0000
       N       E                     dE             d eps       ncg     rms          rms(c)
DAV:   1    -0.258586828279E+03    0.14032E-03   -0.66086E-02  2384   0.406E-01    0.313E-02
RMM:   2    -0.258586985222E+03   -0.15694E-03   -0.16133E-03  2888   0.119E-01    0.782E-03
RMM:   3    -0.258587025144E+03   -0.39921E-04   -0.40719E-04  2931   0.549E-02    0.930E-03
RMM:   4    -0.258587029643E+03   -0.44999E-05   -0.53198E-05  2732   0.215E-02    0.101E-02
RMM:   5    -0.258587029464E+03    0.17956E-06   -0.43486E-06  1684   0.660E-03
  25 F= -.27201321E+03 E0= -.27201321E+03  d E =-.645061E-04  mag=     0.0000
       N       E                     dE             d eps       ncg     rms          rms(c)
DAV:   1    -0.258587020518E+03    0.91257E-05   -0.10190E-02  2800   0.160E-01    0.130E-02
RMM:   2    -0.258587044549E+03   -0.24031E-04   -0.24843E-04  2808   0.474E-02    0.657E-03
RMM:   3    -0.258587049592E+03   -0.50435E-05   -0.58909E-05  2508   0.213E-02    0.558E-03
RMM:   4    -0.258587050132E+03   -0.53969E-06   -0.79899E-06  1660   0.899E-03
  26 F= -.27201322E+03 E0= -.27201322E+03  d E =-.743596E-04  mag=     0.0000
       N       E                     dE             d eps       ncg     rms          rms(c)
DAV:   1    -0.258587060010E+03   -0.10418E-04   -0.29562E-04  2496   0.374E-02    0.354E-03
RMM:   2    -0.258587061281E+03   -0.12704E-05   -0.17116E-05  2227   0.141E-02    0.182E-03
RMM:   3    -0.258587061626E+03   -0.34506E-06   -0.51113E-06  1776   0.707E-03
  27 F= -.27201324E+03 E0= -.27201324E+03  d E =-.136521E-04  mag=     0.0000
       N       E                     dE             d eps       ncg     rms          rms(c)
DAV:   1    -0.258587065027E+03   -0.37459E-05   -0.32512E-04  2400   0.385E-02    0.350E-03
RMM:   2    -0.258587066212E+03   -0.11857E-05   -0.17332E-05  2130   0.153E-02    0.185E-03
RMM:   3    -0.258587066694E+03   -0.48191E-06   -0.67472E-06  1903   0.803E-03
  28 F= -.27201325E+03 E0= -.27201325E+03  d E =-.209587E-04  mag=    -0.0000
       N       E                     dE             d eps       ncg     rms          rms(c)
DAV:   1    -0.258587066686E+03   -0.47328E-06   -0.42308E-05  2880   0.142E-02    0.139E-03
RMM:   2    -0.258587066825E+03   -0.13971E-06   -0.25536E-06  1512   0.617E-03
  29 F= -.27201325E+03 E0= -.27201325E+03  d E =-.218651E-04  mag=    -0.0000
       N       E                     dE             d eps       ncg     rms          rms(c)
DAV:   1    -0.258587071028E+03   -0.43424E-05   -0.25852E-04  2464   0.272E-02    0.179E-03
RMM:   2    -0.258587071704E+03   -0.67547E-06   -0.73839E-06  1726   0.885E-03
  30 F= -.27201325E+03 E0= -.27201325E+03  d E =-.444776E-05  mag=     0.0000
       N       E                     dE             d eps       ncg     rms          rms(c)
DAV:   1    -0.258587078189E+03   -0.71608E-05   -0.15476E-03  2632   0.653E-02    0.424E-03
RMM:   2    -0.258587082140E+03   -0.39511E-05   -0.41820E-05  2663   0.198E-02    0.173E-03
RMM:   3    -0.258587082926E+03   -0.78615E-06   -0.10134E-05  1675   0.915E-03    0.148E-03
RMM:   4    -0.258587082978E+03   -0.52072E-07   -0.79119E-07  1358   0.497E-03
  31 F= -.27201326E+03 E0= -.27201326E+03  d E =-.146586E-04  mag=    -0.0000
       N       E                     dE             d eps       ncg     rms          rms(c)
DAV:   1    -0.258587082230E+03    0.69645E-06   -0.60831E-03  2536   0.129E-01    0.872E-03
RMM:   2    -0.258587097135E+03   -0.14905E-04   -0.15728E-04  2873   0.379E-02    0.313E-03
RMM:   3    -0.258587100773E+03   -0.36382E-05   -0.38865E-05  2595   0.172E-02    0.266E-03
RMM:   4    -0.258587101063E+03   -0.28937E-06   -0.42021E-06  1527   0.705E-03
  32 F= -.27201328E+03 E0= -.27201328E+03  d E =-.306348E-04  mag=     0.0000
       N       E                     dE             d eps       ncg     rms          rms(c)
DAV:   1    -0.258587045240E+03    0.55533E-04   -0.24331E-02  2480   0.257E-01    0.172E-02
RMM:   2    -0.258587104150E+03   -0.58910E-04   -0.61729E-04  2909   0.740E-02    0.656E-03
RMM:   3    -0.258587119124E+03   -0.14974E-04   -0.15545E-04  2995   0.336E-02    0.575E-03
RMM:   4    -0.258587120143E+03   -0.10185E-05   -0.12791E-05  2072   0.105E-02    0.460E-03
RMM:   5    -0.258587120154E+03   -0.11374E-07   -0.19379E-06  1444   0.551E-03
  33 F= -.27201329E+03 E0= -.27201329E+03  d E =-.454860E-04  mag=    -0.0000
       N       E                     dE             d eps       ncg     rms          rms(c)
DAV:   1    -0.258587125119E+03   -0.49760E-05   -0.40611E-04  2736   0.321E-02    0.276E-03
RMM:   2    -0.258587126245E+03   -0.11261E-05   -0.12200E-05  2077   0.115E-02    0.946E-04
RMM:   3    -0.258587126455E+03   -0.20940E-06   -0.30337E-06  1412   0.534E-03
  34 F= -.27201330E+03 E0= -.27201330E+03  d E =-.497270E-05  mag=     0.0000
       N       E                     dE             d eps       ncg     rms          rms(c)
DAV:   1    -0.258587131999E+03   -0.57536E-05   -0.26441E-03  2336   0.816E-02    0.560E-03
RMM:   2    -0.258587138712E+03   -0.67128E-05   -0.70054E-05  2683   0.256E-02    0.203E-03
RMM:   3    -0.258587140359E+03   -0.16470E-05   -0.18991E-05  2113   0.121E-02    0.200E-03
RMM:   4    -0.258587140360E+03   -0.18626E-08   -0.10615E-06  1418   0.479E-03
  35 F= -.27201331E+03 E0= -.27201331E+03  d E =-.155218E-04  mag=     0.0000
       N       E                     dE             d eps       ncg     rms          rms(c)
DAV:   1    -0.258587126434E+03    0.13925E-04   -0.10452E-02  2448   0.163E-01    0.117E-02
RMM:   2    -0.258587152337E+03   -0.25904E-04   -0.27202E-04  2806   0.495E-02    0.399E-03
RMM:   3    -0.258587158908E+03   -0.65711E-05   -0.69458E-05  2895   0.227E-02    0.358E-03
RMM:   4    -0.258587159415E+03   -0.50658E-06   -0.68790E-06  1730   0.863E-03
  36 F= -.27201332E+03 E0= -.27201332E+03  d E =-.278345E-04  mag=    -0.0000
       N       E                     dE             d eps       ncg     rms          rms(c)
DAV:   1    -0.258587154528E+03    0.43803E-05   -0.50679E-04  2784   0.371E-02    0.350E-03
RMM:   2    -0.258587156003E+03   -0.14755E-05   -0.15618E-05  2287   0.115E-02    0.116E-03
RMM:   3    -0.258587156198E+03   -0.19457E-06   -0.33470E-06  1371   0.563E-03
  37 F= -.27201332E+03 E0= -.27201332E+03  d E =-.261222E-04  mag=     0.0000
       N       E                     dE             d eps       ncg     rms          rms(c)
DAV:   1    -0.258587157789E+03   -0.17858E-05   -0.34109E-04  2416   0.300E-02    0.247E-03
RMM:   2    -0.258587158734E+03   -0.94482E-06   -0.10130E-05  1959   0.998E-03    0.796E-04
RMM:   3    -0.258587158893E+03   -0.15921E-06   -0.24011E-06  1404   0.502E-03
  38 F= -.27201332E+03 E0= -.27201332E+03  d E =-.275723E-04  mag=     0.0000
       N       E                     dE             d eps       ncg     rms          rms(c)
DAV:   1    -0.258587166083E+03   -0.73494E-05   -0.47523E-04  2400   0.343E-02    0.257E-03
RMM:   2    -0.258587167445E+03   -0.13616E-05   -0.13388E-05  2137   0.126E-02    0.101E-03
RMM:   3    -0.258587167810E+03   -0.36523E-06   -0.40609E-06  1508   0.581E-03
  39 F= -.27201333E+03 E0= -.27201333E+03  d E =-.633376E-05  mag=    -0.0000
       N       E                     dE             d eps       ncg     rms          rms(c)
DAV:   1    -0.258587177054E+03   -0.96089E-05   -0.42354E-03  2304   0.102E-01    0.769E-03
RMM:   2    -0.258587187734E+03   -0.10680E-04   -0.10969E-04  2500   0.332E-02    0.303E-03
RMM:   3    -0.258587190918E+03   -0.31835E-05   -0.33461E-05  2617   0.159E-02    0.278E-03
RMM:   4    -0.258587190909E+03    0.89276E-08   -0.24591E-06  1462   0.595E-03
  40 F= -.27201334E+03 E0= -.27201334E+03  d E =-.217058E-04  mag=    -0.0000
       N       E                     dE             d eps       ncg     rms          rms(c)
DAV:   1    -0.258587167284E+03    0.23633E-04   -0.16834E-02  2416   0.203E-01    0.160E-02
RMM:   2    -0.258587208860E+03   -0.41576E-04   -0.43244E-04  2552   0.637E-02    0.600E-03
RMM:   3    -0.258587220425E+03   -0.11565E-04   -0.11955E-04  2853   0.301E-02    0.500E-03
RMM:   4    -0.258587221485E+03   -0.10597E-05   -0.14232E-05  2256   0.116E-02    0.373E-03
RMM:   5    -0.258587221386E+03    0.99322E-07   -0.13825E-06  1433   0.493E-03
  41 F= -.27201336E+03 E0= -.27201336E+03  d E =-.366786E-04  mag=     0.0000
       N       E                     dE             d eps       ncg     rms          rms(c)
DAV:   1    -0.258587227931E+03   -0.64465E-05   -0.13410E-03  2816   0.537E-02    0.478E-03
RMM:   2    -0.258587231340E+03   -0.34083E-05   -0.36063E-05  2536   0.174E-02    0.146E-03
RMM:   3    -0.258587232055E+03   -0.71492E-06   -0.92979E-06  1620   0.793E-03
  42 F= -.27201336E+03 E0= -.27201336E+03  d E =-.717682E-05  mag=     0.0000
       N       E                     dE             d eps       ncg     rms          rms(c)
DAV:   1    -0.258587236923E+03   -0.55833E-05   -0.72900E-04  2544   0.397E-02    0.292E-03
RMM:   2    -0.258587238859E+03   -0.19364E-05   -0.20289E-05  2306   0.144E-02    0.119E-03
RMM:   3    -0.258587239258E+03   -0.39909E-06   -0.53564E-06  1484   0.637E-03
  43 F= -.27201337E+03 E0= -.27201337E+03  d E =-.118632E-04  mag=    -0.0000
       N       E                     dE             d eps       ncg     rms          rms(c)
DAV:   1    -0.258587243358E+03   -0.44990E-05   -0.28546E-03  2432   0.784E-02    0.592E-03
RMM:   2    -0.258587250386E+03   -0.70276E-05   -0.73482E-05  2631   0.255E-02    0.205E-03
RMM:   3    -0.258587252166E+03   -0.17805E-05   -0.20643E-05  2116   0.118E-02    0.221E-03
RMM:   4    -0.258587252179E+03   -0.12547E-07   -0.12541E-06  1403   0.527E-03
  44 F= -.27201338E+03 E0= -.27201338E+03  d E =-.197628E-04  mag=    -0.0000
       N       E                     dE             d eps       ncg     rms          rms(c)
DAV:   1    -0.258587238320E+03    0.13846E-04   -0.11293E-02  2432   0.156E-01    0.127E-02
RMM:   2    -0.258587265246E+03   -0.26926E-04   -0.28244E-04  2784   0.475E-02    0.389E-03
RMM:   3    -0.258587272312E+03   -0.70656E-05   -0.73755E-05  2814   0.218E-02    0.376E-03
RMM:   4    -0.258587272815E+03   -0.50377E-06   -0.71414E-06  1675   0.860E-03
  45 F= -.27201339E+03 E0= -.27201339E+03  d E =-.303158E-04  mag=    -0.0000
       N       E                     dE             d eps       ncg     rms          rms(c)
DAV:   1    -0.258587257276E+03    0.15035E-04   -0.22883E-03  2416   0.713E-02    0.677E-03
RMM:   2    -0.258587263068E+03   -0.57914E-05   -0.60809E-05  2716   0.219E-02    0.195E-03
RMM:   3    -0.258587264476E+03   -0.14086E-05   -0.15839E-05  1834   0.102E-02    0.131E-03
RMM:   4    -0.258587264518E+03   -0.42060E-07   -0.89625E-07  1320   0.476E-03
  46 F= -.27201338E+03 E0= -.27201338E+03  d E =-.265893E-04  mag=    -0.0000
       N       E                     dE             d eps       ncg     rms          rms(c)
DAV:   1    -0.258587266884E+03   -0.24073E-05   -0.13337E-03  2352   0.538E-02    0.442E-03
RMM:   2    -0.258587270306E+03   -0.34228E-05   -0.35785E-05  2530   0.166E-02    0.137E-03
RMM:   3    -0.258587270933E+03   -0.62688E-06   -0.86433E-06  1546   0.772E-03
  47 F= -.27201339E+03 E0= -.27201339E+03  d E =-.295288E-04  mag=    -0.0000
       N       E                     dE             d eps       ncg     rms          rms(c)
DAV:   1    -0.258587279089E+03   -0.87824E-05   -0.49715E-03  2352   0.104E-01    0.736E-03
RMM:   2    -0.258587291096E+03   -0.12007E-04   -0.12657E-04  2748   0.325E-02    0.259E-03
RMM:   3    -0.258587294138E+03   -0.30423E-05   -0.34142E-05  2428   0.150E-02    0.280E-03
RMM:   4    -0.258587294205E+03   -0.66731E-07   -0.23587E-06  1458   0.584E-03
  48 F= -.27201340E+03 E0= -.27201340E+03  d E =-.163194E-04  mag=     0.0000
       N       E                     dE             d eps       ncg     rms          rms(c)
DAV:   1    -0.258587260039E+03    0.34099E-04   -0.23375E-02  2296   0.226E-01    0.168E-02
RMM:   2    -0.258587315217E+03   -0.55178E-04   -0.58128E-04  2840   0.678E-02    0.574E-03
RMM:   3    -0.258587329646E+03   -0.14430E-04   -0.15049E-04  2921   0.312E-02    0.555E-03
RMM:   4    -0.258587330899E+03   -0.12528E-05   -0.15987E-05  2128   0.118E-02    0.473E-03
RMM:   5    -0.258587330814E+03    0.85685E-07   -0.14997E-06  1434   0.466E-03
  49 F= -.27201342E+03 E0= -.27201342E+03  d E =-.376983E-04  mag=     0.0000
       N       E                     dE             d eps       ncg     rms          rms(c)
DAV:   1    -0.258587066533E+03    0.26437E-03   -0.93104E-02  2304   0.451E-01    0.349E-02
RMM:   2    -0.258587286741E+03   -0.22021E-03   -0.23175E-03  2854   0.136E-01    0.114E-02
RMM:   3    -0.258587344859E+03   -0.58118E-04   -0.59630E-04  2924   0.617E-02    0.104E-02
RMM:   4    -0.258587350320E+03   -0.54613E-05   -0.65135E-05  2892   0.235E-02    0.917E-03
RMM:   5    -0.258587349973E+03    0.34683E-06   -0.53240E-06  1791   0.686E-03
  50 F= -.27201341E+03 E0= -.27201341E+03  d E =-.263588E-04  mag=     0.0000
       N       E                     dE             d eps       ncg     rms          rms(c)
DAV:   1    -0.258587153984E+03    0.19634E-03   -0.60595E-02  2192   0.366E-01    0.262E-02
RMM:   2    -0.258587300069E+03   -0.14609E-03   -0.15149E-03  2848   0.109E-01    0.893E-03
RMM:   3    -0.258587337398E+03   -0.37329E-04   -0.38184E-04  2874   0.494E-02    0.919E-03
RMM:   4    -0.258587340664E+03   -0.32662E-05   -0.41961E-05  2714   0.188E-02    0.814E-03
RMM:   5    -0.258587340200E+03    0.46418E-06   -0.29469E-06  1532   0.585E-03
  51 F= -.27201343E+03 E0= -.27201343E+03  d E =-.411305E-04  mag=    -0.0000
       N       E                     dE             d eps       ncg     rms          rms(c)
DAV:   1    -0.258587304385E+03    0.36279E-04   -0.15189E-02  2256   0.183E-01    0.126E-02
RMM:   2    -0.258587341033E+03   -0.36648E-04   -0.38288E-04  2816   0.554E-02    0.446E-03
RMM:   3    -0.258587350015E+03   -0.89827E-05   -0.96033E-05  2812   0.253E-02    0.473E-03
RMM:   4    -0.258587350679E+03   -0.66356E-06   -0.98710E-06  1716   0.938E-03
  52 F= -.27201342E+03 E0= -.27201342E+03  d E =-.393384E-04  mag=    -0.0000
       N       E                     dE             d eps       ncg     rms          rms(c)
DAV:   1    -0.258587324667E+03    0.25348E-04   -0.64207E-03  2256   0.121E-01    0.104E-02
RMM:   2    -0.258587340619E+03   -0.15952E-04   -0.16595E-04  2820   0.364E-02    0.315E-03
RMM:   3    -0.258587344952E+03   -0.43331E-05   -0.44419E-05  2661   0.164E-02    0.240E-03
RMM:   4    -0.258587345043E+03   -0.90909E-07   -0.20121E-06  1464   0.562E-03
  53 F= -.27201343E+03 E0= -.27201343E+03  d E =-.417262E-04  mag=     0.0000
       N       E                     dE             d eps       ncg     rms          rms(c)
DAV:   1    -0.258587343498E+03    0.14533E-05   -0.16017E-03  2320   0.601E-02    0.461E-03
RMM:   2    -0.258587347632E+03   -0.41331E-05   -0.43784E-05  2590   0.186E-02    0.151E-03
RMM:   3    -0.258587348362E+03   -0.73065E-06   -0.10331E-05  1599   0.847E-03    0.134E-03
RMM:   4    -0.258587348421E+03   -0.58728E-07   -0.85871E-07  1349   0.493E-03
  54 F= -.27201343E+03 E0= -.27201343E+03  d E =-.410983E-04  mag=    -0.0000
       N       E                     dE             d eps       ncg     rms          rms(c)
DAV:   1    -0.258587345641E+03    0.27216E-05   -0.39071E-04  2432   0.294E-02    0.231E-03
RMM:   2    -0.258587346643E+03   -0.10024E-05   -0.10036E-05  1770   0.867E-03    0.776E-04
RMM:   3    -0.258587346853E+03   -0.21003E-06   -0.24688E-06  1335   0.515E-03
  55 F= -.27201343E+03 E0= -.27201343E+03  d E =-.415108E-04  mag=     0.0000
       N       E                     dE             d eps       ncg     rms          rms(c)
DAV:   1    -0.258587347367E+03   -0.72356E-06   -0.53045E-05  2352   0.111E-02    0.129E-03
RMM:   2    -0.258587347471E+03   -0.10410E-06   -0.13487E-06  1200   0.376E-03
  56 F= -.27201343E+03 E0= -.27201343E+03  d E =-.413790E-04  mag=    -0.0000
       N       E                     dE             d eps       ncg     rms          rms(c)
DAV:   1    -0.258587347057E+03    0.30920E-06   -0.18116E-05  1616   0.673E-03    0.651E-04
RMM:   2    -0.258587347111E+03   -0.54062E-07   -0.55770E-07  1074   0.318E-03
  57 F= -.27201343E+03 E0= -.27201343E+03  d E =-.414687E-04  mag=    -0.0000
       N       E                     dE             d eps       ncg     rms          rms(c)
DAV:   1    -0.258587347324E+03   -0.26671E-06   -0.42467E-06  1344   0.315E-03    0.418E-04
RMM:   2    -0.258587347330E+03   -0.55570E-08   -0.11969E-07   970   0.137E-03
  58 F= -.27201343E+03 E0= -.27201343E+03  d E =-.414624E-04  mag=    -0.0000
       N       E                     dE             d eps       ncg     rms          rms(c)
DAV:   1    -0.258587347228E+03    0.96454E-07   -0.11096E-06  1344   0.164E-03    0.218E-04
RMM:   2    -0.258587347232E+03   -0.39818E-08   -0.35709E-08   836   0.767E-04
  59 F= -.27201343E+03 E0= -.27201343E+03  d E =-.414809E-04  mag=    -0.0000
       N       E                     dE             d eps       ncg     rms          rms(c)
DAV:   1    -0.258587351078E+03   -0.38507E-05   -0.24852E-03  2224   0.715E-02    0.554E-03
RMM:   2    -0.258587357053E+03   -0.59751E-05   -0.61831E-05  2668   0.208E-02    0.155E-03
RMM:   3    -0.258587358271E+03   -0.12172E-05   -0.14578E-05  1618   0.980E-03    0.151E-03
RMM:   4    -0.258587358428E+03   -0.15774E-06   -0.18656E-06  1456   0.574E-03
  60 F= -.27201343E+03 E0= -.27201343E+03  d E =-.606016E-05  mag=    -0.0000
       N       E                     dE             d eps       ncg     rms          rms(c)
DAV:   1    -0.258587362191E+03   -0.39201E-05   -0.12225E-03  2464   0.505E-02    0.345E-03
RMM:   2    -0.258587365290E+03   -0.30989E-05   -0.31946E-05  2500   0.157E-02    0.127E-03
RMM:   3    -0.258587365818E+03   -0.52816E-06   -0.74529E-06  1489   0.716E-03
  61 F= -.27201344E+03 E0= -.27201344E+03  d E =-.987400E-05  mag=    -0.0000
       N       E                     dE             d eps       ncg     rms          rms(c)
DAV:   1    -0.258587372282E+03   -0.69925E-05   -0.65918E-05  2336   0.180E-02    0.225E-03
RMM:   2    -0.258587372698E+03   -0.41561E-06   -0.43142E-06  1758   0.769E-03
  62 F= -.27201344E+03 E0= -.27201344E+03  d E =-.668653E-05  mag=     0.0000
       N       E                     dE             d eps       ncg     rms          rms(c)
DAV:   1    -0.258587380424E+03   -0.81420E-05   -0.31240E-04  2192   0.372E-02    0.424E-03
RMM:   2    -0.258587381919E+03   -0.14947E-05   -0.18438E-05  2086   0.161E-02    0.222E-03
RMM:   3    -0.258587382644E+03   -0.72487E-06   -0.78851E-06  1962   0.831E-03
  63 F= -.27201345E+03 E0= -.27201345E+03  d E =-.161880E-04  mag=     0.0000
       N       E                     dE             d eps       ncg     rms          rms(c)
DAV:   1    -0.258587372868E+03    0.90510E-05   -0.12182E-03  2192   0.741E-02    0.828E-03
RMM:   2    -0.258587378042E+03   -0.51743E-05   -0.69209E-05  2196   0.296E-02    0.421E-03
RMM:   3    -0.258587380472E+03   -0.24297E-05   -0.28491E-05  2580   0.157E-02    0.264E-03
RMM:   4    -0.258587380507E+03   -0.35332E-07   -0.34087E-06  1626   0.549E-03
  64 F= -.27201345E+03 E0= -.27201345E+03  d E =-.131483E-04  mag=     0.0000
       N       E                     dE             d eps       ncg     rms          rms(c)
DAV:   1    -0.258587381438E+03   -0.96655E-06   -0.62151E-04  2160   0.538E-02    0.607E-03
RMM:   2    -0.258587383851E+03   -0.24131E-05   -0.36135E-05  2176   0.210E-02    0.309E-03
RMM:   3    -0.258587384777E+03   -0.92560E-06   -0.13833E-05  2230   0.107E-02    0.178E-03
RMM:   4    -0.258587384855E+03   -0.78047E-07   -0.15834E-06  1440   0.508E-03
  65 F= -.27201346E+03 E0= -.27201346E+03  d E =-.181560E-04  mag=     0.0000
       N       E                     dE             d eps       ncg     rms          rms(c)
DAV:   1    -0.258587383375E+03    0.14018E-05   -0.16316E-04  2256   0.279E-02    0.314E-03
RMM:   2    -0.258587384251E+03   -0.87561E-06   -0.96489E-06  1948   0.104E-02
  66 F= -.27201345E+03 E0= -.27201345E+03  d E =-.172281E-04  mag=    -0.0000
       N       E                     dE             d eps       ncg     rms          rms(c)
DAV:   1    -0.258587384922E+03   -0.15468E-05   -0.80618E-05  2128   0.209E-02    0.229E-03
RMM:   2    -0.258587385174E+03   -0.25184E-06   -0.47976E-06  1750   0.694E-03
  67 F= -.27201346E+03 E0= -.27201346E+03  d E =-.183832E-04  mag=     0.0000
       N       E                     dE             d eps       ncg     rms          rms(c)
DAV:   1    -0.258587384999E+03   -0.76574E-07   -0.17640E-05  2336   0.103E-02    0.102E-03
RMM:   2    -0.258587385112E+03   -0.11344E-06   -0.10266E-06  1176   0.323E-03
  68 F= -.27201346E+03 E0= -.27201346E+03  d E =-.182016E-04  mag=    -0.0000
       N       E                     dE             d eps       ncg     rms          rms(c)
DAV:   1    -0.258587385257E+03   -0.25785E-06   -0.53635E-06  2048   0.574E-03    0.563E-04
RMM:   2    -0.258587385265E+03   -0.80472E-08   -0.38887E-07  1050   0.210E-03
  69 F= -.27201346E+03 E0= -.27201346E+03  d E =-.184207E-04  mag=    -0.0000
       N       E                     dE             d eps       ncg     rms          rms(c)
DAV:   1    -0.258587388104E+03   -0.28472E-05   -0.16793E-04  2192   0.241E-02    0.207E-03
RMM:   2    -0.258587388667E+03   -0.56340E-06   -0.55087E-06  1772   0.859E-03
  70 F= -.27201346E+03 E0= -.27201346E+03  d E =-.313390E-05  mag=     0.0000
       N       E                     dE             d eps       ncg     rms          rms(c)
DAV:   1    -0.258587390532E+03   -0.24283E-05   -0.98220E-05  2480   0.187E-02    0.159E-03
RMM:   2    -0.258587390872E+03   -0.34044E-06   -0.34732E-06  1490   0.736E-03
  71 F= -.27201346E+03 E0= -.27201346E+03  d E =-.513164E-05  mag=     0.0000
       N       E                     dE             d eps       ncg     rms          rms(c)
DAV:   1    -0.258587392435E+03   -0.19028E-05   -0.36251E-04  2240   0.355E-02    0.293E-03
RMM:   2    -0.258587393720E+03   -0.12853E-05   -0.13150E-05  2240   0.140E-02    0.138E-03
RMM:   3    -0.258587394131E+03   -0.41112E-06   -0.44339E-06  1714   0.659E-03
  72 F= -.27201346E+03 E0= -.27201346E+03  d E =-.798550E-05  mag=    -0.0000
       N       E                     dE             d eps       ncg     rms          rms(c)
DAV:   1    -0.258587395468E+03   -0.17480E-05   -0.13468E-04  2528   0.215E-02    0.172E-03
RMM:   2    -0.258587395831E+03   -0.36301E-06   -0.52083E-06  1700   0.847E-03
  73 F= -.27201347E+03 E0= -.27201347E+03  d E =-.238359E-05  mag=    -0.0000
       N       E                     dE             d eps       ncg     rms          rms(c)
DAV:   1    -0.258587396539E+03   -0.10707E-05   -0.11861E-04  2480   0.200E-02    0.167E-03
RMM:   2    -0.258587396842E+03   -0.30308E-06   -0.46879E-06  1699   0.814E-03
  74 F= -.27201347E+03 E0= -.27201347E+03  d E =-.401924E-05  mag=    -0.0000
       N       E                     dE             d eps       ncg     rms          rms(c)
DAV:   1    -0.258587395464E+03    0.10748E-05   -0.44799E-04  2272   0.380E-02    0.304E-03
RMM:   2    -0.258587396755E+03   -0.12907E-05   -0.16773E-05  2293   0.145E-02    0.140E-03
RMM:   3    -0.258587397079E+03   -0.32475E-06   -0.51592E-06  1737   0.698E-03
  75 F= -.27201347E+03 E0= -.27201347E+03  d E =-.551218E-05  mag=    -0.0000
       N       E                     dE             d eps       ncg     rms          rms(c)
DAV:   1    -0.258587396895E+03   -0.13990E-06   -0.85475E-05  2336   0.176E-02    0.180E-03
RMM:   2    -0.258587397254E+03   -0.35936E-06   -0.31020E-06  1380   0.615E-03
  76 F= -.27201347E+03 E0= -.27201347E+03  d E =-.511073E-05  mag=     0.0000
       N       E                     dE             d eps       ncg     rms          rms(c)
DAV:   1    -0.258587397195E+03   -0.30066E-06   -0.42122E-05  2224   0.125E-02    0.116E-03
RMM:   2    -0.258587397262E+03   -0.66260E-07   -0.14860E-06  1253   0.408E-03
  77 F= -.27201347E+03 E0= -.27201347E+03  d E =-.553283E-05  mag=     0.0000
       N       E                     dE             d eps       ncg     rms          rms(c)
DAV:   1    -0.258587398295E+03   -0.10996E-05   -0.12645E-04  2464   0.188E-02    0.153E-03
RMM:   2    -0.258587398573E+03   -0.27785E-06   -0.35502E-06  1397   0.669E-03
  78 F= -.27201347E+03 E0= -.27201347E+03  d E =-.158684E-05  mag=    -0.0000
       N       E                     dE             d eps       ncg     rms          rms(c)
DAV:   1    -0.258587398830E+03   -0.53555E-06   -0.11040E-03  2400   0.533E-02    0.423E-03
RMM:   2    -0.258587401720E+03   -0.28893E-05   -0.31661E-05  2519   0.184E-02    0.126E-03
RMM:   3    -0.258587402358E+03   -0.63857E-06   -0.85670E-06  1729   0.809E-03
  79 F= -.27201348E+03 E0= -.27201348E+03  d E =-.619750E-05  mag=    -0.0000
       N       E                     dE             d eps       ncg     rms          rms(c)
DAV:   1    -0.258587403096E+03   -0.13766E-05   -0.18148E-04  2640   0.220E-02    0.174E-03
RMM:   2    -0.258587403563E+03   -0.46679E-06   -0.55834E-06  1575   0.872E-03
  80 F= -.27201348E+03 E0= -.27201348E+03  d E =-.772746E-05  mag=    -0.0000
       N       E                     dE             d eps       ncg     rms          rms(c)
DAV:   1    -0.258587403686E+03   -0.58946E-06   -0.69348E-04  2368   0.425E-02    0.322E-03
RMM:   2    -0.258587405560E+03   -0.18742E-05   -0.20660E-05  2427   0.145E-02    0.103E-03
RMM:   3    -0.258587405875E+03   -0.31463E-06   -0.49793E-06  1536   0.663E-03
  81 F= -.27201348E+03 E0= -.27201348E+03  d E =-.106787E-04  mag=    -0.0000
       N       E                     dE             d eps       ncg     rms          rms(c)
DAV:   1    -0.258587410633E+03   -0.50734E-05   -0.16033E-04  2352   0.228E-02    0.207E-03
RMM:   2    -0.258587411369E+03   -0.73571E-06   -0.68244E-06  1939   0.100E-02
  82 F= -.27201348E+03 E0= -.27201348E+03  d E =-.336596E-05  mag=     0.0000
       N       E                     dE             d eps       ncg     rms          rms(c)
DAV:   1    -0.258587414693E+03   -0.40597E-05   -0.11156E-04  2560   0.189E-02    0.185E-03
RMM:   2    -0.258587415128E+03   -0.43549E-06   -0.43554E-06  1660   0.815E-03
  83 F= -.27201348E+03 E0= -.27201348E+03  d E =-.538045E-05  mag=    -0.0000
       N       E                     dE             d eps       ncg     rms          rms(c)
DAV:   1    -0.258587418040E+03   -0.33472E-05   -0.41042E-04  2200   0.357E-02    0.325E-03
RMM:   2    -0.258587419593E+03   -0.15531E-05   -0.15965E-05  2127   0.150E-02    0.152E-03
RMM:   3    -0.258587420261E+03   -0.66800E-06   -0.64443E-06  1835   0.744E-03
  84 F= -.27201349E+03 E0= -.27201349E+03  d E =-.705700E-05  mag=    -0.0000
       N       E                     dE             d eps       ncg     rms          rms(c)
DAV:   1    -0.258587417551E+03    0.20418E-05   -0.11179E-04  2192   0.198E-02    0.234E-03
RMM:   2    -0.258587417875E+03   -0.32380E-06   -0.50007E-06  1625   0.749E-03
  85 F= -.27201349E+03 E0= -.27201349E+03  d E =-.654922E-05  mag=    -0.0000
       N       E                     dE             d eps       ncg     rms          rms(c)
DAV:   1    -0.258587419211E+03   -0.16591E-05   -0.40116E-05  2208   0.122E-02    0.123E-03
RMM:   2    -0.258587419393E+03   -0.18240E-06   -0.14777E-06  1228   0.410E-03
  86 F= -.27201349E+03 E0= -.27201349E+03  d E =-.690895E-05  mag=    -0.0000
       N       E                     dE             d eps       ncg     rms          rms(c)
DAV:   1    -0.258587418617E+03    0.59314E-06   -0.13382E-05  2048   0.724E-03    0.752E-04
RMM:   2    -0.258587418633E+03   -0.15645E-07   -0.56696E-07  1075   0.246E-03
  87 F= -.27201349E+03 E0= -.27201349E+03  d E =-.683011E-05  mag=    -0.0000
       N       E                     dE             d eps       ncg     rms          rms(c)
DAV:   1    -0.258587419096E+03   -0.47817E-06   -0.46328E-06  1696   0.425E-03    0.461E-04
RMM:   2    -0.258587419138E+03   -0.42694E-07   -0.27917E-07  1027   0.217E-03
  88 F= -.27201349E+03 E0= -.27201349E+03  d E =-.692614E-05  mag=     0.0000
       N       E                     dE             d eps       ncg     rms          rms(c)
DAV:   1    -0.258587422502E+03   -0.34064E-05   -0.23532E-04  2208   0.239E-02    0.201E-03
RMM:   2    -0.258587423158E+03   -0.65599E-06   -0.62682E-06  1550   0.812E-03
  89 F= -.27201349E+03 E0= -.27201349E+03  d E =-.192682E-05  mag=     0.0000
       N       E                     dE             d eps       ncg     rms          rms(c)
DAV:   1    -0.258587424852E+03   -0.23502E-05   -0.47094E-05  2448   0.113E-02    0.896E-04
RMM:   2    -0.258587425015E+03   -0.16263E-06   -0.15511E-06  1249   0.443E-03
  90 F= -.27201349E+03 E0= -.27201349E+03  d E =-.290941E-05  mag=     0.0000
       N       E                     dE             d eps       ncg     rms          rms(c)
DAV:   1    -0.258587427600E+03   -0.27481E-05   -0.16276E-04  2224   0.201E-02    0.152E-03
RMM:   2    -0.258587428109E+03   -0.50874E-06   -0.47854E-06  1468   0.778E-03
  91 F= -.27201349E+03 E0= -.27201349E+03  d E =-.425461E-05  mag=    -0.0000
       N       E                     dE             d eps       ncg     rms          rms(c)
DAV:   1    -0.258587429274E+03   -0.16738E-05   -0.24631E-05  2496   0.900E-03    0.752E-04
RMM:   2    -0.258587429373E+03   -0.99164E-07   -0.97218E-07  1136   0.370E-03
  92 F= -.27201349E+03 E0= -.27201349E+03  d E =-.490314E-05  mag=     0.0000
       N       E                     dE             d eps       ncg     rms          rms(c)
DAV:   1    -0.258587431166E+03   -0.18919E-05   -0.80566E-05  2064   0.143E-02    0.106E-03
RMM:   2    -0.258587431429E+03   -0.26274E-06   -0.23500E-06  1268   0.551E-03
  93 F= -.27201349E+03 E0= -.27201349E+03  d E =-.572699E-05  mag=     0.0000
       N       E                     dE             d eps       ncg     rms          rms(c)
DAV:   1    -0.258587434244E+03   -0.30777E-05   -0.32811E-04  2400   0.282E-02    0.216E-03
RMM:   2    -0.258587435220E+03   -0.97602E-06   -0.94704E-06  1888   0.106E-02
  94 F= -.27201349E+03 E0= -.27201349E+03  d E =-.705363E-05  mag=    -0.0000
       N       E                     dE             d eps       ncg     rms          rms(c)
DAV:   1    -0.258587438666E+03   -0.44229E-05   -0.49055E-04  2336   0.363E-02    0.261E-03
RMM:   2    -0.258587439951E+03   -0.12846E-05   -0.15409E-05  2230   0.128E-02    0.990E-04
RMM:   3    -0.258587440225E+03   -0.27370E-06   -0.41059E-06  1530   0.612E-03
  95 F= -.27201350E+03 E0= -.27201350E+03  d E =-.505362E-05  mag=     0.0000
       N       E                     dE             d eps       ncg     rms          rms(c)
DAV:   1    -0.258587441214E+03   -0.12630E-05   -0.13198E-03  2304   0.590E-02    0.452E-03
RMM:   2    -0.258587444626E+03   -0.34122E-05   -0.39771E-05  2442   0.202E-02    0.172E-03
RMM:   3    -0.258587445562E+03   -0.93571E-06   -0.12039E-05  2088   0.971E-03    0.169E-03
RMM:   4    -0.258587445579E+03   -0.17153E-07   -0.99768E-07  1406   0.523E-03
  96 F= -.27201350E+03 E0= -.27201350E+03  d E =-.104915E-04  mag=    -0.0000
       N       E                     dE             d eps       ncg     rms          rms(c)
DAV:   1    -0.258587427405E+03    0.18157E-04   -0.51841E-03  2272   0.117E-01    0.962E-03
RMM:   2    -0.258587441078E+03   -0.13673E-04   -0.15358E-04  2524   0.388E-02    0.327E-03
RMM:   3    -0.258587445075E+03   -0.39970E-05   -0.45524E-05  2796   0.181E-02    0.300E-03
RMM:   4    -0.258587445234E+03   -0.15884E-06   -0.36393E-06  1607   0.664E-03
  97 F= -.27201350E+03 E0= -.27201350E+03  d E =-.102793E-04  mag=     0.0000
       N       E                     dE             d eps       ncg     rms          rms(c)
DAV:   1    -0.258587434660E+03    0.10415E-04   -0.32232E-03  2224   0.930E-02    0.769E-03
RMM:   2    -0.258587444049E+03   -0.93891E-05   -0.97233E-05  2525   0.304E-02    0.252E-03
RMM:   3    -0.258587446684E+03   -0.26346E-05   -0.27277E-05  2529   0.142E-02    0.227E-03
RMM:   4    -0.258587446705E+03   -0.20837E-07   -0.21987E-06  1474   0.585E-03
  98 F= -.27201351E+03 E0= -.27201351E+03  d E =-.116469E-04  mag=    -0.0000
       N       E                     dE             d eps       ncg     rms          rms(c)
DAV:   1    -0.258587444399E+03    0.22855E-05   -0.80333E-04  2256   0.468E-02    0.391E-03
RMM:   2    -0.258587446510E+03   -0.21117E-05   -0.24879E-05  2423   0.152E-02    0.124E-03
RMM:   3    -0.258587447005E+03   -0.49462E-06   -0.66660E-06  1690   0.710E-03
  99 F= -.27201351E+03 E0= -.27201351E+03  d E =-.120004E-04  mag=    -0.0000
       N       E                     dE             d eps       ncg     rms          rms(c)
DAV:   1    -0.258587446431E+03    0.79228E-07   -0.15312E-04  2352   0.208E-02    0.226E-03
RMM:   2    -0.258587446941E+03   -0.51042E-06   -0.48199E-06  1470   0.727E-03
 100 F= -.27201351E+03 E0= -.27201351E+03  d E =-.119135E-04  mag=     0.0000
       N       E                     dE             d eps       ncg     rms          rms(c)
DAV:   1    -0.258587447074E+03   -0.64308E-06   -0.42495E-05  2256   0.116E-02    0.113E-03
RMM:   2    -0.258587447128E+03   -0.54115E-07   -0.11447E-06  1160   0.361E-03
 101 F= -.27201351E+03 E0= -.27201351E+03  d E =-.121131E-04  mag=     0.0000
       N       E                     dE             d eps       ncg     rms          rms(c)
DAV:   1    -0.258587447084E+03   -0.10268E-07   -0.99817E-06  1648   0.558E-03    0.602E-04
RMM:   2    -0.258587447134E+03   -0.49624E-07   -0.37349E-07  1078   0.251E-03
 102 F= -.27201351E+03 E0= -.27201351E+03  d E =-.121125E-04  mag=     0.0000
       N       E                     dE             d eps       ncg     rms          rms(c)
DAV:   1    -0.258587447166E+03   -0.81667E-07   -0.21623E-06  1344   0.263E-03    0.341E-04
RMM:   2    -0.258587447165E+03    0.15061E-08   -0.89362E-08   980   0.131E-03
 103 F= -.27201351E+03 E0= -.27201351E+03  d E =-.121461E-04  mag=     0.0000
       N       E                     dE             d eps       ncg     rms          rms(c)
DAV:   1    -0.258587448641E+03   -0.14745E-05   -0.27366E-04  2176   0.250E-02    0.199E-03
RMM:   2    -0.258587449221E+03   -0.58041E-06   -0.68848E-06  1538   0.782E-03
 104 F= -.27201351E+03 E0= -.27201351E+03  d E =-.187984E-05  mag=     0.0000
       N       E                     dE             d eps       ncg     rms          rms(c)
DAV:   1    -0.258587450068E+03   -0.14279E-05   -0.45339E-05  2464   0.108E-02    0.881E-04
RMM:   2    -0.258587450166E+03   -0.97514E-07   -0.13954E-06  1210   0.408E-03
 105 F= -.27201351E+03 E0= -.27201351E+03  d E =-.275829E-05  mag=     0.0000
       N       E                     dE             d eps       ncg     rms          rms(c)
DAV:   1    -0.258587451249E+03   -0.11809E-05   -0.15421E-04  2272   0.192E-02    0.138E-03
RMM:   2    -0.258587451603E+03   -0.35378E-06   -0.42679E-06  1414   0.705E-03
 106 F= -.27201351E+03 E0= -.27201351E+03  d E =-.406206E-05  mag=     0.0000
       N       E                     dE             d eps       ncg     rms          rms(c)
DAV:   1    -0.258587452562E+03   -0.13121E-05   -0.62737E-04  2384   0.379E-02    0.273E-03
RMM:   2    -0.258587454129E+03   -0.15671E-05   -0.17499E-05  2246   0.135E-02    0.812E-04
RMM:   3    -0.258587454486E+03   -0.35694E-06   -0.49089E-06  1522   0.620E-03
 107 F= -.27201351E+03 E0= -.27201351E+03  d E =-.667010E-05  mag=     0.0000
       N       E                     dE             d eps       ncg     rms          rms(c)
DAV:   1    -0.258587451509E+03    0.26193E-05   -0.24695E-03  2256   0.748E-02    0.545E-03
RMM:   2    -0.258587457416E+03   -0.59068E-05   -0.63733E-05  2562   0.246E-02    0.162E-03
RMM:   3    -0.258587458992E+03   -0.15762E-05   -0.18597E-05  2142   0.115E-02    0.201E-03
RMM:   4    -0.258587459049E+03   -0.56993E-07   -0.14787E-06  1418   0.546E-03
 108 F= -.27201352E+03 E0= -.27201352E+03  d E =-.106899E-04  mag=    -0.0000
       N       E                     dE             d eps       ncg     rms          rms(c)
DAV:   1    -0.258587465954E+03   -0.69614E-05   -0.34248E-04  2576   0.300E-02    0.250E-03
RMM:   2    -0.258587467105E+03   -0.11515E-05   -0.11281E-05  2024   0.110E-02    0.129E-03
RMM:   3    -0.258587467388E+03   -0.28296E-06   -0.29520E-06  1468   0.528E-03
 109 F= -.27201352E+03 E0= -.27201352E+03  d E =-.594857E-05  mag=     0.0000
       N       E                     dE             d eps       ncg     rms          rms(c)
DAV:   1    -0.258587474621E+03   -0.75156E-05   -0.10780E-03  2176   0.528E-02    0.443E-03
RMM:   2    -0.258587477859E+03   -0.32382E-05   -0.33817E-05  2377   0.190E-02    0.176E-03
RMM:   3    -0.258587478955E+03   -0.10956E-05   -0.11590E-05  2058   0.925E-03    0.161E-03
RMM:   4    -0.258587478895E+03    0.59579E-07   -0.87721E-07  1388   0.500E-03
 110 F= -.27201353E+03 E0= -.27201353E+03  d E =-.132039E-04  mag=    -0.0000
       N       E                     dE             d eps       ncg     rms          rms(c)
DAV:   1    -0.258587470002E+03    0.89528E-05   -0.42547E-03  2208   0.105E-01    0.935E-03
RMM:   2    -0.258587482389E+03   -0.12387E-04   -0.13249E-04  2459   0.366E-02    0.344E-03
RMM:   3    -0.258587486401E+03   -0.40119E-05   -0.41576E-05  2753   0.173E-02    0.290E-03
RMM:   4    -0.258587486521E+03   -0.12031E-06   -0.42794E-06  1644   0.642E-03
 111 F= -.27201353E+03 E0= -.27201353E+03  d E =-.123062E-04  mag=    -0.0000
       N       E                     dE             d eps       ncg     rms          rms(c)
DAV:   1    -0.258587474212E+03    0.12189E-04   -0.23545E-03  2176   0.787E-02    0.694E-03
RMM:   2    -0.258587480702E+03   -0.64893E-05   -0.74208E-05  2476   0.265E-02    0.241E-03
RMM:   3    -0.258587482690E+03   -0.19887E-05   -0.22758E-05  2384   0.126E-02    0.207E-03
RMM:   4    -0.258587482706E+03   -0.15385E-07   -0.16138E-06  1452   0.524E-03
 112 F= -.27201353E+03 E0= -.27201353E+03  d E =-.148548E-04  mag=    -0.0000
       N       E                     dE             d eps       ncg     rms          rms(c)
DAV:   1    -0.258587483709E+03   -0.10191E-05   -0.58966E-04  2224   0.399E-02    0.330E-03
RMM:   2    -0.258587485553E+03   -0.18436E-05   -0.19020E-05  2235   0.133E-02    0.130E-03
RMM:   3    -0.258587486021E+03   -0.46790E-06   -0.52314E-06  1612   0.647E-03
 113 F= -.27201353E+03 E0= -.27201353E+03  d E =-.149815E-04  mag=     0.0000
       N       E                     dE             d eps       ncg     rms          rms(c)
DAV:   1    -0.258587484135E+03    0.14183E-05   -0.15538E-04  2288   0.208E-02    0.219E-03
RMM:   2    -0.258587484524E+03   -0.38945E-06   -0.52180E-06  1545   0.730E-03
 114 F= -.27201353E+03 E0= -.27201353E+03  d E =-.151415E-04  mag=    -0.0000
       N       E                     dE             d eps       ncg     rms          rms(c)
DAV:   1    -0.258587485252E+03   -0.11174E-05   -0.36347E-05  2288   0.108E-02    0.110E-03
RMM:   2    -0.258587485371E+03   -0.11848E-06   -0.10430E-06  1180   0.328E-03
 115 F= -.27201353E+03 E0= -.27201353E+03  d E =-.151561E-04  mag=    -0.0000
       N       E                     dE             d eps       ncg     rms          rms(c)
DAV:   1    -0.258587485056E+03    0.19658E-06   -0.76422E-06  1680   0.493E-03    0.531E-04
RMM:   2    -0.258587485071E+03   -0.15743E-07   -0.33468E-07  1068   0.240E-03
 116 F= -.27201353E+03 E0= -.27201353E+03  d E =-.152532E-04  mag=    -0.0000
       N       E                     dE             d eps       ncg     rms          rms(c)
DAV:   1    -0.258587490516E+03   -0.54606E-05   -0.77018E-04  2160   0.407E-02    0.345E-03
RMM:   2    -0.258587492620E+03   -0.21034E-05   -0.20681E-05  2298   0.130E-02    0.948E-04
RMM:   3    -0.258587493089E+03   -0.46974E-06   -0.51993E-06  1494   0.596E-03
 117 F= -.27201354E+03 E0= -.27201354E+03  d E =-.403141E-05  mag=     0.0000
       N       E                     dE             d eps       ncg     rms          rms(c)
DAV:   1    -0.258587495367E+03   -0.27473E-05   -0.10613E-04  2560   0.155E-02    0.120E-03
RMM:   2    -0.258587495698E+03   -0.33148E-06   -0.30811E-06  1378   0.641E-03
 118 F= -.27201354E+03 E0= -.27201354E+03  d E =-.521451E-05  mag=     0.0000
       N       E                     dE             d eps       ncg     rms          rms(c)
DAV:   1    -0.258587499648E+03   -0.42813E-05   -0.40893E-04  2288   0.301E-02    0.219E-03
RMM:   2    -0.258587500915E+03   -0.12671E-05   -0.12248E-05  2028   0.111E-02    0.734E-04
RMM:   3    -0.258587501170E+03   -0.25475E-06   -0.30331E-06  1434   0.510E-03
 119 F= -.27201354E+03 E0= -.27201354E+03  d E =-.782970E-05  mag=     0.0000
       N       E                     dE             d eps       ncg     rms          rms(c)
DAV:   1    -0.258587504662E+03   -0.37466E-05   -0.16147E-03  2208   0.590E-02    0.449E-03
RMM:   2    -0.258587508867E+03   -0.42055E-05   -0.42213E-05  2492   0.190E-02    0.144E-03
RMM:   3    -0.258587509953E+03   -0.10861E-05   -0.11984E-05  1810   0.912E-03    0.164E-03
RMM:   4    -0.258587509957E+03   -0.40309E-08   -0.77234E-07  1390   0.483E-03
 120 F= -.27201354E+03 E0= -.27201354E+03  d E =-.108767E-04  mag=     0.0000
       N       E                     dE             d eps       ncg     rms          rms(c)
DAV:   1    -0.258587514584E+03   -0.46305E-05   -0.89956E-04  2384   0.465E-02    0.385E-03
RMM:   2    -0.258587516956E+03   -0.23725E-05   -0.27641E-05  2436   0.155E-02    0.142E-03
RMM:   3    -0.258587517531E+03   -0.57479E-06   -0.76566E-06  1701   0.746E-03
 121 F= -.27201355E+03 E0= -.27201355E+03  d E =-.709927E-05  mag=     0.0000
       N       E                     dE             d eps       ncg     rms          rms(c)
DAV:   1    -0.258587519551E+03   -0.25942E-05   -0.45057E-04  2704   0.329E-02    0.269E-03
RMM:   2    -0.258587520702E+03   -0.11515E-05   -0.13956E-05  2088   0.123E-02    0.127E-03
RMM:   3    -0.258587520982E+03   -0.27942E-06   -0.41441E-06  1536   0.601E-03
 122 F= -.27201355E+03 E0= -.27201355E+03  d E =-.102085E-04  mag=     0.0000
       N       E                     dE             d eps       ncg     rms          rms(c)
DAV:   1    -0.258587516979E+03    0.37234E-05   -0.17688E-03  2224   0.649E-02    0.528E-03
RMM:   2    -0.258587521638E+03   -0.46588E-05   -0.53180E-05  2498   0.223E-02    0.209E-03
RMM:   3    -0.258587522987E+03   -0.13495E-05   -0.16351E-05  2110   0.108E-02    0.198E-03
RMM:   4    -0.258587523001E+03   -0.14390E-07   -0.10817E-06  1410   0.522E-03
 123 F= -.27201355E+03 E0= -.27201355E+03  d E =-.115566E-04  mag=    -0.0000
       N       E                     dE             d eps       ncg     rms          rms(c)
DAV:   1    -0.258587519005E+03    0.39816E-05   -0.90181E-04  2224   0.468E-02    0.386E-03
RMM:   2    -0.258587521690E+03   -0.26848E-05   -0.27577E-05  2400   0.150E-02    0.157E-03
RMM:   3    -0.258587522295E+03   -0.60450E-06   -0.70695E-06  1635   0.724E-03
 124 F= -.27201355E+03 E0= -.27201355E+03  d E =-.113347E-04  mag=     0.0000
       N       E                     dE             d eps       ncg     rms          rms(c)
DAV:   1    -0.258587522124E+03   -0.43387E-06   -0.31464E-04  2256   0.280E-02    0.280E-03
RMM:   2    -0.258587522964E+03   -0.83961E-06   -0.10287E-05  1959   0.940E-03    0.899E-04
RMM:   3    -0.258587523097E+03   -0.13301E-06   -0.24016E-06  1406   0.496E-03
 125 F= -.27201355E+03 E0= -.27201355E+03  d E =-.118467E-04  mag=     0.0000
       N       E                     dE             d eps       ncg     rms          rms(c)
DAV:   1    -0.258587522508E+03    0.45606E-06   -0.76178E-05  2192   0.140E-02    0.142E-03
RMM:   2    -0.258587522761E+03   -0.25295E-06   -0.23576E-06  1230   0.488E-03
 126 F= -.27201355E+03 E0= -.27201355E+03  d E =-.116557E-04  mag=    -0.0000
       N       E                     dE             d eps       ncg     rms          rms(c)
DAV:   1    -0.258587523016E+03   -0.50839E-06   -0.28826E-05  2256   0.908E-03    0.908E-04
RMM:   2    -0.258587523062E+03   -0.45729E-07   -0.83291E-07  1116   0.284E-03
 127 F= -.27201355E+03 E0= -.27201355E+03  d E =-.118662E-04  mag=     0.0000
       N       E                     dE             d eps       ncg     rms          rms(c)
DAV:   1    -0.258587523058E+03   -0.42275E-07   -0.15943E-03  2144   0.582E-02    0.471E-03
RMM:   2    -0.258587526793E+03   -0.37349E-05   -0.41981E-05  2476   0.188E-02    0.137E-03
RMM:   3    -0.258587527714E+03   -0.92036E-06   -0.11874E-05  1852   0.878E-03    0.141E-03
RMM:   4    -0.258587527745E+03   -0.31107E-07   -0.84509E-07  1382   0.486E-03
 128 F= -.27201356E+03 E0= -.27201356E+03  d E =-.590734E-05  mag=     0.0000
       N       E                     dE             d eps       ncg     rms          rms(c)
DAV:   1    -0.258587518894E+03    0.88192E-05   -0.39786E-03  2224   0.913E-02    0.730E-03
RMM:   2    -0.258587528192E+03   -0.92981E-05   -0.10179E-04  2540   0.298E-02    0.221E-03
RMM:   3    -0.258587530762E+03   -0.25693E-05   -0.29496E-05  2426   0.138E-02    0.234E-03
RMM:   4    -0.258587530929E+03   -0.16715E-06   -0.28560E-06  1521   0.618E-03
 129 F= -.27201357E+03 E0= -.27201357E+03  d E =-.110278E-04  mag=     0.0000
       N       E                     dE             d eps       ncg     rms          rms(c)
DAV:   1    -0.258587536839E+03   -0.60777E-05   -0.13983E-03  2448   0.561E-02    0.426E-03
RMM:   2    -0.258587540829E+03   -0.39892E-05   -0.40745E-05  2496   0.188E-02    0.175E-03
RMM:   3    -0.258587541770E+03   -0.94091E-06   -0.10809E-05  1825   0.860E-03    0.187E-03
RMM:   4    -0.258587541768E+03    0.16826E-08   -0.77647E-07  1392   0.487E-03
 130 F= -.27201357E+03 E0= -.27201357E+03  d E =-.700501E-05  mag=    -0.0000
       N       E                     dE             d eps       ncg     rms          rms(c)
DAV:   1    -0.258587544414E+03   -0.26444E-05   -0.50786E-04  2752   0.335E-02    0.304E-03
RMM:   2    -0.258587545940E+03   -0.15264E-05   -0.15379E-05  2148   0.115E-02    0.935E-04
RMM:   3    -0.258587546258E+03   -0.31778E-06   -0.37339E-06  1450   0.533E-03
 131 F= -.27201357E+03 E0= -.27201357E+03  d E =-.917662E-05  mag=    -0.0000
       N       E                     dE             d eps       ncg     rms          rms(c)
DAV:   1    -0.258587553120E+03   -0.71798E-05   -0.18018E-03  2160   0.598E-02    0.470E-03
RMM:   2    -0.258587557838E+03   -0.47177E-05   -0.47179E-05  2464   0.199E-02    0.147E-03
RMM:   3    -0.258587559082E+03   -0.12438E-05   -0.13560E-05  1864   0.924E-03    0.163E-03
RMM:   4    -0.258587559091E+03   -0.90113E-08   -0.91604E-07  1390   0.511E-03
 132 F= -.27201358E+03 E0= -.27201358E+03  d E =-.657890E-05  mag=    -0.0000
       N       E                     dE             d eps       ncg     rms          rms(c)
DAV:   1    -0.258587559643E+03   -0.56145E-06   -0.49106E-03  2272   0.989E-02    0.807E-03
RMM:   2    -0.258587571861E+03   -0.12218E-04   -0.12438E-04  2588   0.317E-02    0.251E-03
RMM:   3    -0.258587575344E+03   -0.34826E-05   -0.35537E-05  2506   0.149E-02    0.259E-03
RMM:   4    -0.258587575475E+03   -0.13101E-06   -0.32127E-06  1502   0.619E-03
 133 F= -.27201359E+03 E0= -.27201359E+03  d E =-.126333E-04  mag=    -0.0000
       N       E                     dE             d eps       ncg     rms          rms(c)
DAV:   1    -0.258587569215E+03    0.61286E-05   -0.52190E-04  2512   0.328E-02    0.395E-03
RMM:   2    -0.258587570473E+03   -0.12584E-05   -0.14690E-05  2060   0.104E-02    0.130E-03
RMM:   3    -0.258587570706E+03   -0.23223E-06   -0.36066E-06  1350   0.516E-03
 134 F= -.27201359E+03 E0= -.27201359E+03  d E =-.112792E-04  mag=     0.0000
       N       E                     dE             d eps       ncg     rms          rms(c)
DAV:   1    -0.258587573322E+03   -0.28484E-05   -0.30630E-04  2272   0.252E-02    0.237E-03
RMM:   2    -0.258587574200E+03   -0.87830E-06   -0.83375E-06  1676   0.840E-03
 135 F= -.27201359E+03 E0= -.27201359E+03  d E =-.121519E-04  mag=     0.0000
       N       E                     dE             d eps       ncg     rms          rms(c)
DAV:   1    -0.258587572518E+03    0.80396E-06   -0.71865E-05  2320   0.127E-02    0.144E-03
RMM:   2    -0.258587572625E+03   -0.10675E-06   -0.16168E-06  1144   0.396E-03
 136 F= -.27201359E+03 E0= -.27201359E+03  d E =-.118874E-04  mag=     0.0000
       N       E                     dE             d eps       ncg     rms          rms(c)
DAV:   1    -0.258587573689E+03   -0.11710E-05   -0.28533E-05  2176   0.776E-03    0.814E-04
RMM:   2    -0.258587573785E+03   -0.96068E-07   -0.74734E-07  1120   0.269E-03
 137 F= -.27201359E+03 E0= -.27201359E+03  d E =-.122111E-04  mag=    -0.0000
       N       E                     dE             d eps       ncg     rms          rms(c)
DAV:   1    -0.258587575692E+03   -0.20035E-05   -0.18271E-03  2256   0.589E-02    0.466E-03
RMM:   2    -0.258587580055E+03   -0.43622E-05   -0.45515E-05  2574   0.172E-02    0.108E-03
RMM:   3    -0.258587580954E+03   -0.89938E-06   -0.11379E-05  1564   0.812E-03    0.140E-03
RMM:   4    -0.258587581006E+03   -0.51952E-07   -0.71422E-07  1352   0.437E-03
 138 F= -.27201359E+03 E0= -.27201359E+03  d E =-.537147E-05  mag=     0.0000
       N       E                     dE             d eps       ncg     rms          rms(c)
DAV:   1    -0.258587553267E+03    0.27687E-04   -0.16315E-02  2320   0.175E-01    0.138E-02
RMM:   2    -0.258587590472E+03   -0.37205E-04   -0.38526E-04  2834   0.503E-02    0.327E-03
RMM:   3    -0.258587600308E+03   -0.98356E-05   -0.10245E-04  2787   0.233E-02    0.424E-03
RMM:   4    -0.258587600814E+03   -0.50647E-06   -0.70197E-06  1703   0.861E-03
 139 F= -.27201361E+03 E0= -.27201361E+03  d E =-.196274E-04  mag=     0.0000
       N       E                     dE             d eps       ncg     rms          rms(c)
DAV:   1    -0.258587594392E+03    0.59160E-05   -0.81963E-04  2704   0.400E-02    0.615E-03
RMM:   2    -0.258587596379E+03   -0.19870E-05   -0.21509E-05  2330   0.118E-02    0.236E-03
RMM:   3    -0.258587596913E+03   -0.53438E-06   -0.57714E-06  1396   0.617E-03
 140 F= -.27201360E+03 E0= -.27201360E+03  d E =-.170091E-04  mag=     0.0000
       N       E                     dE             d eps       ncg     rms          rms(c)
DAV:   1    -0.258587598498E+03   -0.21196E-05   -0.63284E-04  2320   0.347E-02    0.310E-03
RMM:   2    -0.258587599993E+03   -0.14950E-05   -0.16162E-05  2034   0.109E-02    0.750E-04
RMM:   3    -0.258587600296E+03   -0.30216E-06   -0.41285E-06  1408   0.555E-03
 141 F= -.27201361E+03 E0= -.27201361E+03  d E =-.192690E-04  mag=     0.0000
       N       E                     dE             d eps       ncg     rms          rms(c)
DAV:   1    -0.258587600611E+03   -0.61800E-06   -0.61495E-06  2000   0.488E-03    0.647E-04
RMM:   2    -0.258587600641E+03   -0.29679E-07   -0.36108E-07  1114   0.282E-03
 142 F= -.27201361E+03 E0= -.27201361E+03  d E =-.195212E-04  mag=     0.0000
       N       E                     dE             d eps       ncg     rms          rms(c)
DAV:   1    -0.258587600812E+03   -0.20084E-06   -0.16196E-06  1392   0.251E-03    0.150E-04
RMM:   2    -0.258587600826E+03   -0.13373E-07   -0.13054E-07  1042   0.190E-03
 143 F= -.27201361E+03 E0= -.27201361E+03  d E =-.196547E-04  mag=    -0.0000
       N       E                     dE             d eps       ncg     rms          rms(c)
DAV:   1    -0.258587600869E+03   -0.57247E-07   -0.14267E-07  1200   0.108E-03    0.764E-05
RMM:   2    -0.258587600874E+03   -0.47257E-08   -0.45034E-08   924   0.112E-03
 144 F= -.27201361E+03 E0= -.27201361E+03  d E =-.196907E-04  mag=     0.0000
       N       E                     dE             d eps       ncg     rms          rms(c)
DAV:   1    -0.258587600885E+03   -0.15390E-07   -0.28620E-08  1200   0.566E-04    0.489E-05
RMM:   2    -0.258587600886E+03   -0.11933E-08   -0.10226E-08   638   0.576E-04
 145 F= -.27201361E+03 E0= -.27201361E+03  d E =-.196999E-04  mag=     0.0000
       N       E                     dE             d eps       ncg     rms          rms(c)
DAV:   1    -0.258587600889E+03   -0.42073E-08   -0.69869E-09  1184   0.353E-04    0.144E-05
RMM:   2    -0.258587600889E+03   -0.18190E-11   -0.91208E-10   292   0.290E-04
 146 F= -.27201361E+03 E0= -.27201361E+03  d E =-.197023E-04  mag=     0.0000
       N       E                     dE             d eps       ncg     rms          rms(c)
DAV:   1    -0.258587600890E+03   -0.87311E-09   -0.27847E-09  1152   0.267E-04    0.132E-05
RMM:   2    -0.258587600890E+03    0.17280E-09   -0.11092E-10   244   0.169E-04
 147 F= -.27201361E+03 E0= -.27201361E+03  d E =-.197029E-04  mag=    -0.0000
       N       E                     dE             d eps       ncg     rms          rms(c)
DAV:   1    -0.258587600890E+03    0.11278E-09   -0.12905E-09  1152   0.163E-04    0.700E-06
RMM:   2    -0.258587600890E+03   -0.10004E-09    0.00000E+00   196   0.135E-04
 148 F= -.27201361E+03 E0= -.27201361E+03  d E =-.197030E-04  mag=     0.0000
       N       E                     dE             d eps       ncg     rms          rms(c)
DAV:   1    -0.258587600890E+03   -0.29468E-09   -0.69000E-10  1136   0.135E-04    0.503E-06
RMM:   2    -0.258587600890E+03    0.74579E-10    0.00000E+00   184   0.849E-05
 149 F= -.27201361E+03 E0= -.27201361E+03  d E =-.197031E-04  mag=     0.0000
       N       E                     dE             d eps       ncg     rms          rms(c)
DAV:   1    -0.258587600890E+03    0.30923E-09   -0.38547E-10  1152   0.849E-05    0.477E-06
RMM:   2    -0.258587600890E+03   -0.23101E-09    0.00000E+00   176   0.741E-05
 150 F= -.27201361E+03 E0= -.27201361E+03  d E =-.197031E-04  mag=    -0.0000
       N       E                     dE             d eps       ncg     rms          rms(c)
DAV:   1    -0.258587488998E+03    0.11189E-03   -0.28962E-02  2240   0.233E-01    0.188E-02
RMM:   2    -0.258587555017E+03   -0.66019E-04   -0.67790E-04  2886   0.659E-02    0.436E-03
RMM:   3    -0.258587572920E+03   -0.17903E-04   -0.17986E-04  2840   0.301E-02    0.549E-03
RMM:   4    -0.258587573961E+03   -0.10413E-05   -0.13235E-05  2038   0.108E-02    0.533E-03
RMM:   5    -0.258587573833E+03    0.12841E-06   -0.12337E-06  1430   0.471E-03
 151 F= -.27201359E+03 E0= -.27201359E+03  d E =-.480213E-07  mag=    -0.0000
