 vasp.6.4.1 05Apr23 (build Jun 07 2023 15:38:11) complex                        
  
 executed on             LinuxIFC date 2023.10.05  10:14:40
 running  128 mpi-ranks, with    1 threads/rank, on    1 nodes
 distrk:  each k-point on  128 cores,    1 groups
 distr:  one band on NCORE=  32 cores,    4 groups


--------------------------------------------------------------------------------------------------------


 INCAR:
   GGA = PE
   PREC = Accu
   EDIFF = 1.e-5
   EDIFFG = -1.e-2
   ENCUT = 520.
   NELM = 100
   NELMDL = -10
   LASPH = .TRUE.
   LREAL = Auto
   LMAXMIX = 4
   ISPIN = 2
   LDIAG = .TRUE.
   LPLANE = .TRUE.
   IVDW = 12
   SIGMA = 0.03
   ISMEAR = 0
   NSW = 1000    number of steps for IOM
   IBRION = 1    ionic relax: 0-MD 1-quasi-New 2-CG
   ISIF = 2    ionic relaxation + stress tensor calcn.
   LCHARG = .FALSE.
   LWAVE = .FALSE.
   ALGO = V
   KPAR = 1
   NPAR = 4

 POTCAR:    PAW_PBE Li_sv_GW 25Mar2010            
 POTCAR:    PAW_PBE P_GW 19Mar2012                
 POTCAR:    PAW_PBE S_GW 19Mar2012                
 POTCAR:    PAW_PBE Cl_GW 19Mar2012               
 -----------------------------------------------------------------------------
|                                                                             |
|           W    W    AA    RRRRR   N    N  II  N    N   GGGG   !!!           |
|           W    W   A  A   R    R  NN   N  II  NN   N  G    G  !!!           |
|           W    W  A    A  R    R  N N  N  II  N N  N  G       !!!           |
|           W WW W  AAAAAA  RRRRR   N  N N  II  N  N N  G  GGG   !            |
|           WW  WW  A    A  R   R   N   NN  II  N   NN  G    G                |
|           W    W  A    A  R    R  N    N  II  N    N   GGGG   !!!           |
|                                                                             |
|     You use a magnetic or noncollinear calculation, but did not specify     |
|     the initial magnetic moment with the MAGMOM tag. Note that a            |
|     default of 1 will be used for all atoms. This ferromagnetic setup       |
|     may break the symmetry of the crystal, in particular it may rule        |
|     out finding an antiferromagnetic solution. Thence, we recommend         |
|     setting the initial magnetic moment manually or verifying carefully     |
|     that this magnetic setup is desired.                                    |
|                                                                             |
 -----------------------------------------------------------------------------

 POTCAR:    PAW_PBE Li_sv_GW 25Mar2010            
   SHA256 =  24a6ace15a582615486b36ce4dc781b048409f4015b7684ed1273ae395fa2fdc Li_sv_GW/POTCAR       
   COPYR  = (c) Copyright 25Mar2010 Georg Kresse                                                    
   COPYR  = This file is part of the software VASP. Any use, copying, and all other rights are regul
   COPYR  = If you do not have a valid VASP license, you may not use, copy or distribute this file. 
   VRHFIN =Li: 1s2s                                                                                 
   LEXCH  = PE                                                                                      
   EATOM  =   200.9989 eV,   14.7730 Ry                                                             
                                                                                                    
   TITEL  = PAW_PBE Li_sv_GW 25Mar2010                                                              
   LULTRA =        F    use ultrasoft PP ?                                                          
   IUNSCR =        0    unscreen: 0-lin 1-nonlin 2-no                                               
   RPACOR =    0.000    partial core radius                                                         
   POMASS =    7.010; ZVAL   =    3.000    mass and valenz                                          
   RCORE  =    1.500    outmost cutoff radius                                                       
   RWIGS  =    1.600; RWIGS  =    0.847    wigner-seitz radius (au A)                               
   ENMAX  =  433.699; ENMIN  =  325.274 eV                                                          
   RCLOC  =    1.003    cutoff for local pot                                                        
   LCOR   =        T    correct aug charges                                                         
   LPAW   =        T    paw PP                                                                      
   EAUG   = 1041.699                                                                                
   RMAX   =    1.536    core radius for proj-oper                                                   
   RAUG   =    1.300    factor for augmentation sphere                                              
   RDEP   =    1.520    radius for radial grids                                                     
   RDEPT  =    1.300    core radius for aug-charge                                                  
                                                                                                    
   Atomic configuration                                                                             
    4 entries                                                                                       
     n  l   j            E        occ.                                                              
     1  0  0.50       -53.3604   2.0000                                                             
     1  0  0.50       -52.0001   0.0000                                                             
     2  1  0.50        -1.5636   1.0000                                                             
     3  2  1.50        -1.3606   0.0000                                                             
   Description                                                                                      
     l       E           TYP  RCUT    TYP  RCUT                                                     
     0    -53.3603633     23  1.200                                                                 
     0    -52.0001064     23  1.200                                                                 
     0    176.8757380     23  1.300                                                                 
     1     -1.5635925     23  1.500                                                                 
     1    108.8466080     23  1.500                                                                 
     2     81.6349560     23  1.500                                                                 
  local pseudopotential read in
  kinetic energy density of atom read in
  atomic valenz-charges read in
  non local Contribution for L=           0  read in
    real space projection operators read in
  non local Contribution for L=           0  read in
    real space projection operators read in
  non local Contribution for L=           0  read in
    real space projection operators read in
  non local Contribution for L=           1  read in
    real space projection operators read in
  non local Contribution for L=           1  read in
    real space projection operators read in
  non local Contribution for L=           2  read in
    real space projection operators read in
    PAW grid and wavefunctions read in
 
   number of l-projection  operators is LMAX  =           6
   number of lm-projection operators is LMMAX =          14
 
 POTCAR:    PAW_PBE P_GW 19Mar2012                
   SHA256 =  715c28f2291d37b61637ce89646c59f66f71c8b8d8bfba631e5feb9f7b42defe P_GW/POTCAR           
   COPYR  = (c) Copyright 19Mar2012 Georg Kresse                                                    
   COPYR  = This file is part of the software VASP. Any use, copying, and all other rights are regul
   COPYR  = If you do not have a valid VASP license, you may not use, copy or distribute this file. 
   VRHFIN =P : s2p3                                                                                 
   LEXCH  = PE                                                                                      
   EATOM  =   176.0430 eV,   12.9388 Ry                                                             
                                                                                                    
   TITEL  = PAW_PBE P_GW 19Mar2012                                                                  
   LULTRA =        F    use ultrasoft PP ?                                                          
   IUNSCR =        1    unscreen: 0-lin 1-nonlin 2-no                                               
   RPACOR =    1.400    partial core radius                                                         
   POMASS =   30.974; ZVAL   =    5.000    mass and valenz                                          
   RCORE  =    2.000    outmost cutoff radius                                                       
   RWIGS  =    1.900; RWIGS  =    1.005    wigner-seitz radius (au A)                               
   ENMAX  =  255.040; ENMIN  =  191.280 eV                                                          
   ICORE  =        3    local potential                                                             
   LCOR   =        T    correct aug charges                                                         
   LPAW   =        T    paw PP                                                                      
   EAUG   =  499.732                                                                                
   DEXC   =    0.000                                                                                
   RMAX   =    2.047    core radius for proj-oper                                                   
   RAUG   =    1.300    factor for augmentation sphere                                              
   RDEP   =    2.059    radius for radial grids                                                     
   RDEPT  =    1.900    core radius for aug-charge                                                  
                                                                                                    
   Atomic configuration                                                                             
    7 entries                                                                                       
     n  l   j            E        occ.                                                              
     1  0  0.50     -2084.0982   2.0000                                                             
     2  0  0.50      -173.9859   2.0000                                                             
     2  1  1.50      -124.4865   6.0000                                                             
     3  0  0.50       -13.9692   2.0000                                                             
     3  1  0.50        -5.5067   3.0000                                                             
     3  2  1.50        -6.8029   0.0000                                                             
     4  3  2.50        -1.3606   0.0000                                                             
   Description                                                                                      
     l       E           TYP  RCUT    TYP  RCUT                                                     
     0    -13.9691528     23  1.900                                                                 
     0    102.0436950     23  1.900                                                                 
     1     -5.5066939     23  1.900                                                                 
     1    102.0436950     23  1.900                                                                 
     2     -8.1634956     23  2.000                                                                 
     2     81.6349560     23  2.000                                                                 
     3     27.2116520     23  2.000                                                                 
  local pseudopotential read in
  partial core-charges read in
  partial kinetic energy density read in
  kinetic energy density of atom read in
  atomic valenz-charges read in
  non local Contribution for L=           0  read in
    real space projection operators read in
  non local Contribution for L=           0  read in
    real space projection operators read in
  non local Contribution for L=           1  read in
    real space projection operators read in
  non local Contribution for L=           1  read in
    real space projection operators read in
  non local Contribution for L=           2  read in
    real space projection operators read in
  non local Contribution for L=           2  read in
    real space projection operators read in
    PAW grid and wavefunctions read in
 
   number of l-projection  operators is LMAX  =           6
   number of lm-projection operators is LMMAX =          18
 
 POTCAR:    PAW_PBE S_GW 19Mar2012                
   SHA256 =  357db9cfb0783579b2eebe03197c2d807131fea8ea663b1fcfb6ce2fa75af011 S_GW/POTCAR           
   COPYR  = (c) Copyright 19Mar2012 Georg Kresse                                                    
   COPYR  = This file is part of the software VASP. Any use, copying, and all other rights are regul
   COPYR  = If you do not have a valid VASP license, you may not use, copy or distribute this file. 
   VRHFIN =S : s2p4                                                                                 
   LEXCH  = PE                                                                                      
   EATOM  =   276.8230 eV,   20.3459 Ry                                                             
                                                                                                    
   TITEL  = PAW_PBE S_GW 19Mar2012                                                                  
   LULTRA =        F    use ultrasoft PP ?                                                          
   IUNSCR =        1    unscreen: 0-lin 1-nonlin 2-no                                               
   RPACOR =    1.400    partial core radius                                                         
   POMASS =   32.066; ZVAL   =    6.000    mass and valenz                                          
   RCORE  =    1.900    outmost cutoff radius                                                       
   RWIGS  =    1.900; RWIGS  =    1.005    wigner-seitz radius (au A)                               
   ENMAX  =  258.689; ENMIN  =  194.016 eV                                                          
   ICORE  =        3    local potential                                                             
   LCOR   =        T    correct aug charges                                                         
   LPAW   =        T    paw PP                                                                      
   EAUG   =  488.319                                                                                
   DEXC   =    0.000                                                                                
   RMAX   =    1.942    core radius for proj-oper                                                   
   RAUG   =    1.300    factor for augmentation sphere                                              
   RDEP   =    1.954    radius for radial grids                                                     
   RDEPT  =    1.900    core radius for aug-charge                                                  
                                                                                                    
   Atomic configuration                                                                             
    7 entries                                                                                       
     n  l   j            E        occ.                                                              
     1  0  0.50     -2405.8406   2.0000                                                             
     2  0  0.50      -211.7007   2.0000                                                             
     2  1  1.50      -156.4958   6.0000                                                             
     3  0  0.50       -17.2562   2.0000                                                             
     3  1  0.50        -7.0085   4.0000                                                             
     3  2  1.50        -8.1635   0.0000                                                             
     4  3  2.50        -1.3606   0.0000                                                             
   Description                                                                                      
     l       E           TYP  RCUT    TYP  RCUT                                                     
     0    -17.2561639     23  1.700                                                                 
     0     88.4378690     23  1.900                                                                 
     1     -7.0085399     23  1.900                                                                 
     1     88.4378690     23  1.900                                                                 
     2    -10.8846608     23  1.900                                                                 
     2     54.4233040     23  1.900                                                                 
     3     27.2116520     23  1.800                                                                 
  local pseudopotential read in
  partial core-charges read in
  partial kinetic energy density read in
  kinetic energy density of atom read in
  atomic valenz-charges read in
  non local Contribution for L=           0  read in
    real space projection operators read in
  non local Contribution for L=           0  read in
    real space projection operators read in
  non local Contribution for L=           1  read in
    real space projection operators read in
  non local Contribution for L=           1  read in
    real space projection operators read in
  non local Contribution for L=           2  read in
    real space projection operators read in
  non local Contribution for L=           2  read in
    real space projection operators read in
    PAW grid and wavefunctions read in
 
   number of l-projection  operators is LMAX  =           6
   number of lm-projection operators is LMMAX =          18
 
 POTCAR:    PAW_PBE Cl_GW 19Mar2012               
   SHA256 =  3ef3b3169d6a9a89979f58b4cf17d927a58518fc660d8883d88cacaee8175441 Cl_GW/POTCAR          
   COPYR  = (c) Copyright 19Mar2012 Georg Kresse                                                    
   COPYR  = This file is part of the software VASP. Any use, copying, and all other rights are regul
   COPYR  = If you do not have a valid VASP license, you may not use, copy or distribute this file. 
   VRHFIN =Cl: s2p5                                                                                 
   LEXCH  = PE                                                                                      
   EATOM  =   409.7259 eV,   30.1140 Ry                                                             
                                                                                                    
   TITEL  = PAW_PBE Cl_GW 19Mar2012                                                                 
   LULTRA =        F    use ultrasoft PP ?                                                          
   IUNSCR =        1    unscreen: 0-lin 1-nonlin 2-no                                               
   RPACOR =    1.400    partial core radius                                                         
   POMASS =   35.453; ZVAL   =    7.000    mass and valenz                                          
   RCORE  =    1.900    outmost cutoff radius                                                       
   RWIGS  =    1.900; RWIGS  =    1.005    wigner-seitz radius (au A)                               
   ENMAX  =  262.472; ENMIN  =  196.854 eV                                                          
   ICORE  =        3    local potential                                                             
   LCOR   =        T    correct aug charges                                                         
   LPAW   =        T    paw PP                                                                      
   EAUG   =  456.703                                                                                
   DEXC   =    0.000                                                                                
   RMAX   =    1.945    core radius for proj-oper                                                   
   RAUG   =    1.300    factor for augmentation sphere                                              
   RDEP   =    2.020    radius for radial grids                                                     
   RDEPT  =    1.900    core radius for aug-charge                                                  
                                                                                                    
   Atomic configuration                                                                             
    7 entries                                                                                       
     n  l   j            E        occ.                                                              
     1  0  0.50     -2751.1850   2.0000                                                             
     2  0  0.50      -252.6861   2.0000                                                             
     2  1  1.50      -191.6157   6.0000                                                             
     3  0  0.50       -20.6916   2.0000                                                             
     3  1  0.50        -8.5949   5.0000                                                             
     3  2  1.50        -9.5241   0.0000                                                             
     4  3  2.50        -9.5241   0.0000                                                             
   Description                                                                                      
     l       E           TYP  RCUT    TYP  RCUT                                                     
     0    -20.6915657     23  1.700                                                                 
     0     95.2407820     23  1.800                                                                 
     1     -8.5948577     23  1.900                                                                 
     1     95.2407820     23  1.900                                                                 
     2    -10.8846608     23  1.900                                                                 
     2     54.4233040     23  1.900                                                                 
     3     27.2116520     23  1.900                                                                 
  local pseudopotential read in
  partial core-charges read in
  partial kinetic energy density read in
  kinetic energy density of atom read in
  atomic valenz-charges read in
  non local Contribution for L=           0  read in
    real space projection operators read in
  non local Contribution for L=           0  read in
    real space projection operators read in
  non local Contribution for L=           1  read in
    real space projection operators read in
  non local Contribution for L=           1  read in
    real space projection operators read in
  non local Contribution for L=           2  read in
    real space projection operators read in
  non local Contribution for L=           2  read in
    real space projection operators read in
    PAW grid and wavefunctions read in
 
   number of l-projection  operators is LMAX  =           6
   number of lm-projection operators is LMMAX =          18
 
 Optimization of the real space projectors (new method)

 maximal supplied QI-value         = 25.13
 optimisation between [QCUT,QGAM] = [ 11.56, 23.12] = [ 37.43,149.72] Ry 
 Optimized for a Real-space Cutoff    1.28 Angstroem

   l    n(q)    QCUT    max X(q) W(low)/X(q) W(high)/X(q)  e(spline) 
   0      9    11.561    87.733    0.11E-03    0.32E-04    0.56E-06
   0      9    11.561    82.800    0.11E-03    0.35E-04    0.56E-06
   0      9    11.561     2.509    0.22E-03    0.42E-04    0.79E-06
   1      8    11.561    12.580    0.94E-04    0.26E-03    0.21E-06
   1      8    11.561     1.319    0.33E-04    0.15E-03    0.19E-06
   2      8    11.561     1.993    0.36E-04    0.89E-04    0.26E-06
 Optimization of the real space projectors (new method)

 maximal supplied QI-value         = 18.90
 optimisation between [QCUT,QGAM] = [ 11.53, 23.24] = [ 37.21,151.29] Ry 
 Optimized for a Real-space Cutoff    1.21 Angstroem

   l    n(q)    QCUT    max X(q) W(low)/X(q) W(high)/X(q)  e(spline) 
   0      8    11.527     8.355    0.73E-04    0.70E-04    0.26E-07
   0      8    11.527     1.401    0.17E-03    0.17E-03    0.63E-07
   1      8    11.527     4.747    0.13E-03    0.17E-03    0.11E-06
   1      8    11.527     2.025    0.16E-03    0.18E-03    0.12E-06
   2      7    11.527     3.169    0.51E-04    0.25E-03    0.60E-07
   2      7    11.527     3.441    0.82E-04    0.22E-03    0.14E-06
 Optimization of the real space projectors (new method)

 maximal supplied QI-value         = 19.84
 optimisation between [QCUT,QGAM] = [ 11.51, 23.22] = [ 37.09,150.92] Ry 
 Optimized for a Real-space Cutoff    1.49 Angstroem

   l    n(q)    QCUT    max X(q) W(low)/X(q) W(high)/X(q)  e(spline) 
   0     10    11.508     7.541    0.34E-04    0.13E-04    0.69E-07
   0     10    11.508     1.809    0.49E-04    0.27E-04    0.14E-06
   1     10    11.508     4.107    0.27E-05    0.41E-05    0.14E-06
   1     10    11.508     2.196    0.26E-05    0.25E-05    0.22E-06
   2      9    11.508     4.265    0.18E-03    0.11E-03    0.81E-06
   2      9    11.508     1.925    0.97E-04    0.76E-04    0.47E-06
 Optimization of the real space projectors (new method)

 maximal supplied QI-value         = 19.84
 optimisation between [QCUT,QGAM] = [ 11.51, 23.22] = [ 37.09,150.92] Ry 
 Optimized for a Real-space Cutoff    1.21 Angstroem

   l    n(q)    QCUT    max X(q) W(low)/X(q) W(high)/X(q)  e(spline) 
   0      8    11.508     6.761    0.57E-04    0.57E-04    0.35E-07
   0      8    11.508     1.642    0.14E-03    0.14E-03    0.91E-07
   1      8    11.508     3.519    0.20E-04    0.72E-04    0.47E-07
   1      8    11.508     2.150    0.27E-04    0.11E-03    0.89E-07
   2      7    11.508     2.976    0.19E-03    0.33E-03    0.16E-06
   2      7    11.508     1.494    0.14E-03    0.29E-03    0.14E-06
  PAW_PBE Li_sv_GW 25Mar2010            :
 energy of atom  1       EATOM= -200.9989
 kinetic energy error for atom=    0.0127 (will be added to EATOM!!)
  PAW_PBE P_GW 19Mar2012                :
 energy of atom  2       EATOM= -176.0430
 kinetic energy error for atom=    0.0011 (will be added to EATOM!!)
  PAW_PBE S_GW 19Mar2012                :
 energy of atom  3       EATOM= -276.8230
 kinetic energy error for atom=    0.0024 (will be added to EATOM!!)
  PAW_PBE Cl_GW 19Mar2012               :
 energy of atom  4       EATOM= -409.7259
 kinetic energy error for atom=    0.0030 (will be added to EATOM!!)
 
 
 POSCAR: Li24 P4 S20 Cl4
  positions in direct lattice
  No initial velocities read in
 exchange correlation table for  LEXCH =        8
   RHO(1)=    0.500       N(1)  =     2000
   RHO(2)=  100.500       N(2)  =     4000

 VTST: version 4.1, (05/19/21)

 CHAIN: initializing optimizer
 
 OPT: Using VASP QUASI-newton optimizer
 CHAIN: Read ICHAIN            0
 
 POSCAR: Li24 P4 S20 Cl4
  positions in direct lattice
  No initial velocities read in
 


--------------------------------------------------------------------------------------------------------


 ion  position               nearest neighbor table
   1  0.977  0.251  0.251-
   2  0.977  0.749  0.749-
   3  0.023  0.250  0.750-
   4  0.023  0.751  0.249-
   5  0.251  0.251  0.977-
   6  0.249  0.751  0.023-
   7  0.750  0.250  0.023-
   8  0.749  0.749  0.977-
   9  0.249  0.977  0.249-
  10  0.250  0.023  0.750-
  11  0.751  0.976  0.751-
  12  0.750  0.023  0.250-
  13  0.250  0.751  0.477-
  14  0.250  0.250  0.523-
  15  0.750  0.750  0.523-
  16  0.749  0.249  0.477-
  17  0.250  0.477  0.750-
  18  0.250  0.523  0.250-
  19  0.750  0.477  0.250-
  20  0.750  0.523  0.750-
  21  0.477  0.249  0.749-
  22  0.477  0.751  0.250-
  23  0.523  0.250  0.250-
  24  0.523  0.750  0.750-
  25  0.500  0.500  0.500-  44 2.05  42 2.05  43 2.05  41 2.05
  26  0.500  0.000  0.000-  40 2.05  38 2.05  37 2.05  39 2.05
  27  0.000  0.500  0.000-  34 2.05  36 2.05  35 2.05  33 2.05
  28  0.000  0.000  0.500-  31 2.05  29 2.05  32 2.05  30 2.05
  29  0.118  0.882  0.619-  28 2.05
  30  0.118  0.118  0.382-  28 2.05
  31  0.882  0.882  0.382-  28 2.05
  32  0.882  0.118  0.618-  28 2.05
  33  0.882  0.618  0.118-  27 2.05
  34  0.882  0.382  0.882-  27 2.05
  35  0.118  0.618  0.882-  27 2.05
  36  0.118  0.382  0.118-  27 2.05
  37  0.618  0.118  0.882-  26 2.05
  38  0.619  0.882  0.118-  26 2.05
  39  0.382  0.118  0.118-  26 2.05
  40  0.382  0.882  0.882-  26 2.05
  41  0.618  0.618  0.382-  25 2.05
  42  0.618  0.382  0.618-  25 2.05
  43  0.382  0.618  0.618-  25 2.05
  44  0.382  0.382  0.382-  25 2.05
  45  0.750  0.750  0.750-
  46  0.750  0.250  0.250-
  47  0.250  0.750  0.250-
  48  0.250  0.250  0.750-
  49  1.000  1.000  1.000-
  50  0.999  0.500  0.500-
  51  0.500  0.000  0.500-
  52  0.500  0.500  0.999-
 
  LATTYP: Found a simple cubic cell.
 ALAT       =    10.0227252407
  
  Lattice vectors:
  
 A1 = (  10.0227252407,   0.0000000000,   0.0000000000)
 A2 = (   0.0000000000,  10.0227252407,   0.0000000000)
 A3 = (   0.0000000000,   0.0000000000,  10.0227252407)


Analysis of symmetry for initial positions (statically):
=====================================================================
 Subroutine PRICEL returns:
 Original cell was already a primitive cell.
 

 Routine SETGRP: Setting up the symmetry group for a 
 simple cubic supercell.


 Subroutine GETGRP returns: Found  2 space group operations
 (whereof  2 operations were pure point group operations)
 out of a pool of 48 trial point group operations.


The static configuration has the point symmetry C_1h.


Analysis of symmetry for dynamics (positions and initial velocities):
=====================================================================
 Subroutine PRICEL returns:
 Original cell was already a primitive cell.
 

 Routine SETGRP: Setting up the symmetry group for a 
 simple cubic supercell.


 Subroutine GETGRP returns: Found  2 space group operations
 (whereof  2 operations were pure point group operations)
 out of a pool of 48 trial point group operations.


The dynamic configuration has the point symmetry C_1h.


Analysis of structural, dynamic, and magnetic symmetry:
=====================================================================
 Subroutine PRICEL returns:
 Original cell was already a primitive cell.
 

 Routine SETGRP: Setting up the symmetry group for a 
 simple cubic supercell.


 Subroutine GETGRP returns: Found  2 space group operations
 (whereof  2 operations were pure point group operations)
 out of a pool of 48 trial point group operations.


The overall configuration has the point symmetry C_1h.


 Subroutine INISYM returns: Found  2 space group operations
 (whereof  2 operations are pure point group operations),
 and found     1 'primitive' translations


----------------------------------------------------------------------------------------

                                     Primitive cell                                     

  volume of cell :    1006.8331

  direct lattice vectors                    reciprocal lattice vectors
    10.022725241  0.000000000  0.000000000     0.099773263  0.000000000  0.000000000
     0.000000000 10.022725241  0.000000000     0.000000000  0.099773263  0.000000000
     0.000000000  0.000000000 10.022725241     0.000000000  0.000000000  0.099773263

  length of vectors
    10.022725241 10.022725241 10.022725241     0.099773263  0.099773263  0.099773263

  position of ions in fractional coordinates (direct lattice)
     0.976644164  0.250748371  0.250920505
     0.976691020  0.748583884  0.748995592
     0.023169693  0.249713255  0.750345944
     0.023051965  0.750711904  0.249483747
     0.250920505  0.250748371  0.976644164
     0.249483747  0.750711904  0.023051965
     0.750345944  0.249713255  0.023169693
     0.748995592  0.748583884  0.976691020
     0.249116958  0.976922488  0.249116958
     0.250083445  0.023111719  0.750260653
     0.751066831  0.976495747  0.751066831
     0.750260653  0.023111719  0.250083445
     0.250092088  0.750521553  0.476635438
     0.249878288  0.250175191  0.523131822
     0.749744870  0.750034650  0.523110443
     0.749306899  0.249354142  0.476708303
     0.250323997  0.476786100  0.750189061
     0.249910802  0.523401804  0.249910802
     0.750189061  0.476786100  0.250323997
     0.749930341  0.522903022  0.749930341
     0.476708303  0.249354142  0.749306899
     0.476635438  0.750521553  0.250092088
     0.523131822  0.250175191  0.249878288
     0.523110443  0.750034650  0.749744870
     0.499928882  0.500107379  0.499928882
     0.500396625  0.000114299  0.000177211
     0.000268609  0.499959260  0.000268609
     0.000177211  0.000114299  0.500396625
     0.118174556  0.881894417  0.618512609
     0.118181739  0.118190526  0.382030185
     0.882113070  0.882004658  0.382306889
     0.881825201  0.118236767  0.618294190
     0.882023675  0.618080956  0.118319451
     0.882141080  0.382002148  0.882141080
     0.118319451  0.618080956  0.882023675
     0.118309113  0.381671669  0.118309113
     0.618294190  0.118236767  0.881825201
     0.618512609  0.881894417  0.118174556
     0.382030185  0.118190526  0.118181739
     0.382306889  0.882004658  0.882113070
     0.617954461  0.618277457  0.381694598
     0.618009529  0.381883303  0.618009529
     0.381694598  0.618277457  0.617954461
     0.381854503  0.382088573  0.381854503
     0.749902168  0.749711452  0.749902168
     0.749887245  0.249962074  0.249932915
     0.249848590  0.750169399  0.249848590
     0.249932915  0.249962074  0.749887245
     0.999971235  0.999557276  0.999971235
     0.999251728  0.499975231  0.499934338
     0.499962733  0.000172170  0.499962733
     0.499934338  0.499975231  0.999251728

  ion indices of the primitive-cell ions
   primitive index   ion index
                 1           1
                 2           2
                 3           3
                 4           4
                 5           5
                 6           6
                 7           7
                 8           8
                 9           9
                10          10
                11          11
                12          12
                13          13
                14          14
                15          15
                16          16
                17          17
                18          18
                19          19
                20          20
                21          21
                22          22
                23          23
                24          24
                25          25
                26          26
                27          27
                28          28
                29          29
                30          30
                31          31
                32          32
                33          33
                34          34
                35          35
                36          36
                37          37
                38          38
                39          39
                40          40
                41          41
                42          42
                43          43
                44          44
                45          45
                46          46
                47          47
                48          48
                49          49
                50          50
                51          51
                52          52

----------------------------------------------------------------------------------------

 
 
 KPOINTS: Automatic mesh                          

Automatic generation of k-mesh.
 Grid dimensions read from file:
 generate k-points for:    2    2    2

 Generating k-lattice:

  Cartesian coordinates                     Fractional coordinates (reciprocal lattice)
     0.049886631  0.000000000  0.000000000     0.500000000  0.000000000  0.000000000
     0.000000000  0.049886631  0.000000000     0.000000000  0.500000000  0.000000000
     0.000000000  0.000000000  0.049886631     0.000000000  0.000000000  0.500000000

  Length of vectors
     0.049886631  0.049886631  0.049886631

  Shift w.r.t. Gamma in fractional coordinates (k-lattice)
     0.500000000  0.500000000  0.500000000

 
 Subroutine IBZKPT returns following result:
 ===========================================
 
 Found      3 irreducible k-points:
 
 Following reciprocal coordinates:
            Coordinates               Weight
  0.250000  0.250000  0.250000      2.000000
 -0.250000  0.250000  0.250000      4.000000
  0.250000 -0.250000  0.250000      2.000000
 
 Following cartesian coordinates:
            Coordinates               Weight
  0.024943  0.024943  0.024943      2.000000
 -0.024943  0.024943  0.024943      4.000000
  0.024943 -0.024943  0.024943      2.000000
 


--------------------------------------------------------------------------------------------------------




 Dimension of arrays:
   k-points           NKPTS =      3   k-points in BZ     NKDIM =      3   number of bands    NBANDS=    176
   number of dos      NEDOS =    301   number of ions     NIONS =     52
   non local maximal  LDIM  =      6   non local SUM 2l+1 LMDIM =     18
   total plane-waves  NPLWV = 512000
   max r-space proj   IRMAX =   7084   max aug-charges    IRDMAX=  21659
   dimension x,y,z NGX =    80 NGY =   80 NGZ =   80
   dimension x,y,z NGXF=   160 NGYF=  160 NGZF=  160
   support grid    NGXF=   160 NGYF=  160 NGZF=  160
   ions per type =              24   4  20   4
   NGX,Y,Z   is equivalent  to a cutoff of  13.27, 13.27, 13.27 a.u.
   NGXF,Y,Z  is equivalent  to a cutoff of  26.54, 26.54, 26.54 a.u.

 SYSTEM =  unknown system                          
 POSCAR =  Li24 P4 S20 Cl4                         

 Startparameter for this run:
   NWRITE =      2    write-flag & timer
   PREC   = accu      normal or accurate (medium, high low for compatibility)
   ISTART =      0    job   : 0-new  1-cont  2-samecut
   ICHARG =      2    charge: 1-file 2-atom 10-const
   ISPIN  =      2    spin polarized calculation?
   LNONCOLLINEAR =      F non collinear calculations
   LSORBIT =      F    spin-orbit coupling
   INIWAV =      1    electr: 0-lowe 1-rand  2-diag
   LASPH  =      T    aspherical Exc in radial PAW
 Electronic Relaxation 1
   ENCUT  =  520.0 eV  38.22 Ry    6.18 a.u.  18.64 18.64 18.64*2*pi/ulx,y,z
   ENINI  =  520.0     initial cutoff
   ENAUG  = 1041.7 eV  augmentation charge cutoff
   NELM   =    100;   NELMIN=  2; NELMDL=-10     # of ELM steps 
   EDIFF  = 0.1E-04   stopping-criterion for ELM
   LREAL  =      T    real-space projection
   NLSPLINE    = F    spline interpolate recip. space projectors
   LCOMPAT=      F    compatible to vasp.4.4
   GGA_COMPAT  = T    GGA compatible to vasp.4.4-vasp.4.6
   LMAXPAW     = -100 max onsite density
   LMAXMIX     =    4 max onsite mixed and CHGCAR
   VOSKOWN=      0    Vosko Wilk Nusair interpolation
   ROPT   =   -0.00025  -0.00025  -0.00025  -0.00025
 Ionic relaxation
   EDIFFG = -.1E-01   stopping-criterion for IOM
   NSW    =   1000    number of steps for IOM
   NBLOCK =      1;   KBLOCK =   1000    inner block; outer block 
   IBRION =      1    ionic relax: 0-MD 1-quasi-New 2-CG
   NFREE  =      0    steps in history (QN), initial steepest desc. (CG)
   ISIF   =      2    stress and relaxation
   IWAVPR =     11    prediction:  0-non 1-charg 2-wave 3-comb
   ISYM   =      2    0-nonsym 1-usesym 2-fastsym
   LCORR  =      T    Harris-Foulkes like correction to forces

   POTIM  = 0.5000    time-step for ionic-motion
   TEIN   =    0.0    initial temperature
   TEBEG  =    0.0;   TEEND  =   0.0 temperature during run
   SMASS  =  -3.00    Nose mass-parameter (am)
   estimated Nose-frequenzy (Omega)   =  0.10E-29 period in steps = 0.13E+47 mass=  -0.230E-26a.u.
   SCALEE = 1.0000    scale energy and forces
   NPACO  =    256;   APACO  = 10.0  distance and # of slots for P.C.
   PSTRESS=    0.0 pullay stress

  Mass of Ions in am
   POMASS =   7.01 30.97 32.07 35.45
  Ionic Valenz
   ZVAL   =   3.00  5.00  6.00  7.00
  Atomic Wigner-Seitz radii
   RWIGS  =  -1.00 -1.00 -1.00 -1.00
  virtual crystal weights 
   VCA    =   1.00  1.00  1.00  1.00
   NELECT =     240.0000    total number of electrons
   NUPDOWN=      -1.0000    fix difference up-down

 DOS related values:
   EMIN   =  10.00;   EMAX   =-10.00  energy-range for DOS
   EFERMI =   0.00;   METHOD = LEGACY      
   ISMEAR =     0;   SIGMA  =   0.03  broadening in eV -4-tet -1-fermi 0-gaus

 Electronic relaxation 2 (details)
   IALGO  =     48    algorithm
   LDIAG  =      T    sub-space diagonalisation (order eigenvalues)
   LSUBROT=      F    optimize rotation matrix (better conditioning)
   TURBO    =      0    0=normal 1=particle mesh
   IRESTART =      0    0=no restart 2=restart with 2 vectors
   NREBOOT  =      0    no. of reboots
   NMIN     =      0    reboot dimension
   EREF     =   0.00    reference energy to select bands
   IMIX   =      4    mixing-type and parameters
     AMIX     =   0.40;   BMIX     =  1.00
     AMIX_MAG =   1.60;   BMIX_MAG =  1.00
     AMIN     =   0.10
     WC   =   100.;   INIMIX=   1;  MIXPRE=   1;  MAXMIX= -45

 Intra band minimization:
   WEIMIN = 0.0010     energy-eigenvalue tresh-hold
   EBREAK =  0.14E-07  absolut break condition
   DEPER  =   0.30     relativ break condition  

   TIME   =   0.40     timestep for ELM

  volume/ion in A,a.u.               =      19.36       130.66
  Fermi-wavevector in a.u.,A,eV,Ry     =   1.015062  1.918190 14.018786  1.030352
  Thomas-Fermi vector in A             =   2.148326
 
 Write flags
   LWAVE        =      F    write WAVECAR
   LDOWNSAMPLE  =      F    k-point downsampling of WAVECAR
   LCHARG       =      F    write CHGCAR
   LVTOT        =      F    write LOCPOT, total local potential
   LVHAR        =      F    write LOCPOT, Hartree potential only
   LELF         =      F    write electronic localiz. function (ELF)
   LORBIT       =      0    0 simple, 1 ext, 2 COOP (PROOUT), +10 PAW based schemes


 Dipole corrections
   LMONO  =      F    monopole corrections only (constant potential shift)
   LDIPOL =      F    correct potential (dipole corrections)
   IDIPOL =      0    1-x, 2-y, 3-z, 4-all directions 
   EPSILON=  1.0000000 bulk dielectric constant

 Exchange correlation treatment:
   GGA     =    PE    GGA type
   LEXCH   =     8    internal setting for exchange type
   LIBXC   =     F    Libxc                    
   VOSKOWN =     0    Vosko Wilk Nusair interpolation
   LHFCALC =     F    Hartree Fock is set to
   LHFONE  =     F    Hartree Fock one center treatment
   AEXX    =    0.0000 exact exchange contribution

 Linear response parameters
   LEPSILON=     F    determine dielectric tensor
   LRPA    =     F    only Hartree local field effects (RPA)
   LNABLA  =     F    use nabla operator in PAW spheres
   LVEL    =     F    velocity operator in full k-point grid
   CSHIFT  =0.1000    complex shift for real part using Kramers Kronig
   OMEGAMAX=  -1.0    maximum frequency
   DEG_THRESHOLD= 0.2000000E-02 threshold for treating states as degnerate
   RTIME   =   -0.100 relaxation time in fs
  (WPLASMAI=    0.000 imaginary part of plasma frequency in eV, 0.658/RTIME)
   DFIELD  = 0.0000000 0.0000000 0.0000000 field for delta impulse in time
 
  Optional k-point grid parameters
   LKPOINTS_OPT  =     F    use optional k-point grid
   KPOINTS_OPT_MODE=     1    mode for optional k-point grid
 
 Orbital magnetization related:
   ORBITALMAG=     F  switch on orbital magnetization
   LCHIMAG   =     F  perturbation theory with respect to B field
   DQ        =  0.001000  dq finite difference perturbation B field
   LLRAUG    =     F  two centre corrections for induced B field
   LBONE     =     F  B-component reconstruction in AE one-centre
   LVGVCALC  =     T  calculate vGv susceptibility
   LVGVAPPL  =     F  apply vGv susceptibility instead of pGv for G=0

 Random number generation:
   RANDOM_GENERATOR = DEFAULT
   PCG_SEED         = not used


--------------------------------------------------------------------------------------------------------


 quasi-Newton-method for relaxation of ions
 charge density and potential will be updated during run
 spin polarized calculation
 RMM-DIIS sequential band-by-band
 perform sub-space diagonalisation
    before iterative eigenvector-optimisation
 modified Broyden-mixing scheme, WC =      100.0
 initial mixing is a Kerker type mixing with AMIX =  0.4000 and BMIX =      1.0000
 Hartree-type preconditioning will be used
 using additional bands           56
 real space projection scheme for non local part
 use partial core corrections
 calculate Harris-corrections to forces 
   (improved forces if not selfconsistent)
 use gradient corrections 
 use of overlap-Matrix (Vanderbilt PP)
 Gauss-broadening in eV      SIGMA  =   0.03


--------------------------------------------------------------------------------------------------------


  energy-cutoff  :      520.00
  volume of cell :     1006.83
      direct lattice vectors                 reciprocal lattice vectors
    10.022725241  0.000000000  0.000000000     0.099773263  0.000000000  0.000000000
     0.000000000 10.022725241  0.000000000     0.000000000  0.099773263  0.000000000
     0.000000000  0.000000000 10.022725241     0.000000000  0.000000000  0.099773263

  length of vectors
    10.022725241 10.022725241 10.022725241     0.099773263  0.099773263  0.099773263


 
 k-points in units of 2pi/SCALE and weight: Automatic mesh                          
   0.02494332  0.02494332  0.02494332       0.250
  -0.02494332  0.02494332  0.02494332       0.500
   0.02494332 -0.02494332  0.02494332       0.250
 
 k-points in reciprocal lattice and weights: Automatic mesh                          
   0.25000000  0.25000000  0.25000000       0.250
  -0.25000000  0.25000000  0.25000000       0.500
   0.25000000 -0.25000000  0.25000000       0.250
 
 position of ions in fractional coordinates (direct lattice) 
   0.97664416  0.25074837  0.25092051
   0.97669102  0.74858388  0.74899559
   0.02316969  0.24971326  0.75034594
   0.02305197  0.75071190  0.24948375
   0.25092051  0.25074837  0.97664416
   0.24948375  0.75071190  0.02305197
   0.75034594  0.24971326  0.02316969
   0.74899559  0.74858388  0.97669102
   0.24911696  0.97692249  0.24911696
   0.25008344  0.02311172  0.75026065
   0.75106683  0.97649575  0.75106683
   0.75026065  0.02311172  0.25008344
   0.25009209  0.75052155  0.47663544
   0.24987829  0.25017519  0.52313182
   0.74974487  0.75003465  0.52311044
   0.74930690  0.24935414  0.47670830
   0.25032400  0.47678610  0.75018906
   0.24991080  0.52340180  0.24991080
   0.75018906  0.47678610  0.25032400
   0.74993034  0.52290302  0.74993034
   0.47670830  0.24935414  0.74930690
   0.47663544  0.75052155  0.25009209
   0.52313182  0.25017519  0.24987829
   0.52311044  0.75003465  0.74974487
   0.49992888  0.50010738  0.49992888
   0.50039663  0.00011430  0.00017721
   0.00026861  0.49995926  0.00026861
   0.00017721  0.00011430  0.50039663
   0.11817456  0.88189442  0.61851261
   0.11818174  0.11819053  0.38203019
   0.88211307  0.88200466  0.38230689
   0.88182520  0.11823677  0.61829419
   0.88202367  0.61808096  0.11831945
   0.88214108  0.38200215  0.88214108
   0.11831945  0.61808096  0.88202367
   0.11830911  0.38167167  0.11830911
   0.61829419  0.11823677  0.88182520
   0.61851261  0.88189442  0.11817456
   0.38203019  0.11819053  0.11818174
   0.38230689  0.88200466  0.88211307
   0.61795446  0.61827746  0.38169460
   0.61800953  0.38188330  0.61800953
   0.38169460  0.61827746  0.61795446
   0.38185450  0.38208857  0.38185450
   0.74990217  0.74971145  0.74990217
   0.74988725  0.24996207  0.24993292
   0.24984859  0.75016940  0.24984859
   0.24993292  0.24996207  0.74988725
   0.99997123  0.99955728  0.99997123
   0.99925173  0.49997523  0.49993434
   0.49996273  0.00017217  0.49996273
   0.49993434  0.49997523  0.99925173
 
 position of ions in cartesian coordinates  (Angst):
   9.78863612  2.51318203  2.51490728
   9.78910574  7.50285059  7.50697703
   0.23222347  2.50280735  7.52051123
   0.23104352  7.52417914  2.50050704
   2.51490728  2.51318203  9.78863612
   2.50050704  7.52417914  0.23104352
   7.52051123  2.50280735  0.23222347
   7.50697703  7.50285059  9.78910574
   2.49683083  9.79142568  2.49683083
   2.50651766  0.23164241  7.51965639
   7.52773648  9.78714857  7.52773648
   7.51965639  0.23164241  2.50651766
   2.50660428  7.52227132  4.77718604
   2.50446142  2.50743720  5.24320652
   7.51448683  7.51739122  5.24299224
   7.51009717  2.49920805  4.77791635
   2.50892864  4.77869608  7.51893884
   2.50478730  5.24591247  2.50478730
   7.51893884  4.77869608  2.50892864
   7.51634575  5.24091332  7.51634575
   4.77791635  2.49920805  7.51009717
   4.77718604  7.52227132  2.50660428
   5.24320652  2.50743720  2.50446142
   5.24299224  7.51739122  7.51448683
   5.01064983  5.01243885  5.01064983
   5.01533789  0.00114559  0.00177614
   0.00269219  5.01095430  0.00269219
   0.00177614  0.00114559  5.01533789
   1.18443111  8.83898544  6.19918194
   1.18450310  1.18459117  3.82898358
   8.84117694  8.84009035  3.83175690
   8.83829170  1.18505463  6.19699278
   8.84028095  6.19485560  1.18588335
   8.84145767  3.82870257  8.84145767
   1.18588335  6.19485560  8.84028095
   1.18577973  3.82539027  1.18577973
   6.19699278  1.18505463  8.83829170
   6.19918194  8.83898544  1.18443111
   3.82898358  1.18459117  1.18450310
   3.83175690  8.84009035  8.84117694
   6.19358777  6.19682507  3.82562008
   6.19413971  3.82751142  6.19413971
   3.82562008  6.19682507  6.19358777
   3.82722276  3.82956879  3.82722276
   7.51606339  7.51415189  7.51606339
   7.51591382  2.50530119  2.50500894
   2.50416377  7.51874177  2.50416377
   2.50500894  2.50530119  7.51591382
  10.02243694 10.01828794 10.02243694
  10.01522552  5.01111436  5.01070451
   5.01098910  0.00172562  5.01098910
   5.01070451  5.01111436 10.01522552
 


--------------------------------------------------------------------------------------------------------


 k-point   1 :   0.2500 0.2500 0.2500  plane waves:   27124
 k-point   2 :  -0.2500 0.2500 0.2500  plane waves:   27124
 k-point   3 :   0.2500-0.2500 0.2500  plane waves:   27124

 maximum and minimum number of plane-waves per node :       867      830

 maximum number of plane-waves:     27124
 maximum index in each direction: 
   IXMAX=   18   IYMAX=   18   IZMAX=   18
   IXMIN=  -18   IYMIN=  -18   IZMIN=  -18


 real space projection operators:
  total allocation   :      34907.08 KBytes
  max/ min on nodes  :       1345.11        817.22


 parallel 3D FFT for wavefunctions:
    minimum data exchange during FFTs selected (reduces bandwidth)
 parallel 3D FFT for charge:
    minimum data exchange during FFTs selected (reduces bandwidth)


 total amount of memory used by VASP MPI-rank0    50413. kBytes
=======================================================================

   base      :      30000. kBytes
   nonlr-proj:       7918. kBytes
   fftplans  :       2173. kBytes
   grid      :       6510. kBytes
   one-center:         62. kBytes
   wavefun   :       3750. kBytes
 
     INWAV:  cpu time      0.0000: real time      0.0000
 Broyden mixing: mesh for mixing (old mesh)
   NGX = 37   NGY = 37   NGZ = 37
  (NGX  =160   NGY  =160   NGZ  =160)
  gives a total of  50653 points

 initial charge density was supplied:
 charge density of overlapping atoms calculated
 number of electron     240.0000000 magnetization      52.0000000
 keeping initial charge density in first step


--------------------------------------------------------------------------------------------------------


 Maximum index for non-local projection operator          459
 Maximum index for augmentation-charges          917 (set IRDMAX)


--------------------------------------------------------------------------------------------------------


 First call to EWALD:  gamma=   0.177
 Maximum number of real-space cells 3x 3x 3
 Maximum number of reciprocal cells 3x 3x 3

    FEWALD:  cpu time      0.0023: real time      0.0028


--------------------------------------- Ionic step        1  -------------------------------------------




--------------------------------------- Iteration      1(   1)  ---------------------------------------


    POTLOK:  cpu time      0.0726: real time      0.1102
    SETDIJ:  cpu time      0.4102: real time      0.4184
    EDDIAG:  cpu time      0.3196: real time      0.3323
  RMM-DIIS:  cpu time      0.6399: real time      0.6471
    ORTHCH:  cpu time      0.0543: real time      0.0584
       DOS:  cpu time      0.0028: real time      0.0041
    --------------------------------------------
      LOOP:  cpu time      1.4993: real time      1.5704

 eigenvalue-minimisations  :  1056
 total energy-change (2. order) : 0.2372200E+04  (-0.8817130E+04)
 number of electron     240.0000000 magnetization      52.0000000
 augmentation part      240.0000000 magnetization      52.0000000

 Free energy of the ion-electron system (eV)
  ---------------------------------------------------
  alpha Z        PSCENC =       269.61520223
  Ewald energy   TEWEN  =     -8279.40742190
  -Hartree energ DENC   =     -2403.93460604
  -exchange      EXHF   =         0.00000000
  -V(xc)+E(xc)   XCENC  =       529.58874843
  PAW double counting   =      8141.38806575    -8271.61346273
  entropy T*S    EENTRO =        -0.00638822
  eigenvalues    EBANDS =      -316.57002378
  atomic energy  EATOM  =     12703.13999606
  Solvation  Ediel_sol  =         0.00000000
  ---------------------------------------------------
  free energy    TOTEN  =      2372.20010979 eV

  energy without entropy =     2372.20649801  energy(sigma->0) =     2372.20330390


--------------------------------------------------------------------------------------------------------




--------------------------------------- Iteration      1(   2)  ---------------------------------------


    EDDIAG:  cpu time      0.2921: real time      0.2982
  RMM-DIIS:  cpu time      0.6457: real time      0.6529
    ORTHCH:  cpu time      0.0538: real time      0.0548
       DOS:  cpu time      0.0009: real time      0.0009
    --------------------------------------------
      LOOP:  cpu time      0.9924: real time      1.0068

 eigenvalue-minimisations  :  1056
 total energy-change (2. order) :-0.2128898E+04  (-0.2647637E+04)
 number of electron     240.0000000 magnetization      52.0000000
 augmentation part      240.0000000 magnetization      52.0000000

 Free energy of the ion-electron system (eV)
  ---------------------------------------------------
  alpha Z        PSCENC =       269.61520223
  Ewald energy   TEWEN  =     -8279.40742190
  -Hartree energ DENC   =     -2403.93460604
  -exchange      EXHF   =         0.00000000
  -V(xc)+E(xc)   XCENC  =       529.58874843
  PAW double counting   =      8141.38806575    -8271.61346273
  entropy T*S    EENTRO =        -0.00631721
  eigenvalues    EBANDS =     -2445.46784093
  atomic energy  EATOM  =     12703.13999606
  Solvation  Ediel_sol  =         0.00000000
  ---------------------------------------------------
  free energy    TOTEN  =       243.30236364 eV

  energy without entropy =      243.30868085  energy(sigma->0) =      243.30552225


--------------------------------------------------------------------------------------------------------




--------------------------------------- Iteration      1(   3)  ---------------------------------------


    EDDIAG:  cpu time      0.2901: real time      0.2945
  RMM-DIIS:  cpu time      0.6456: real time      0.6526
    ORTHCH:  cpu time      0.0545: real time      0.0563
       DOS:  cpu time      0.0010: real time      0.0010
    --------------------------------------------
      LOOP:  cpu time      0.9912: real time      1.0044

 eigenvalue-minimisations  :  1056
 total energy-change (2. order) :-0.1192002E+03  (-0.6184907E+03)
 number of electron     240.0000000 magnetization      52.0000000
 augmentation part      240.0000000 magnetization      52.0000000

 Free energy of the ion-electron system (eV)
  ---------------------------------------------------
  alpha Z        PSCENC =       269.61520223
  Ewald energy   TEWEN  =     -8279.40742190
  -Hartree energ DENC   =     -2403.93460604
  -exchange      EXHF   =         0.00000000
  -V(xc)+E(xc)   XCENC  =       529.58874843
  PAW double counting   =      8141.38806575    -8271.61346273
  entropy T*S    EENTRO =        -0.00710744
  eigenvalues    EBANDS =     -2564.66729329
  atomic energy  EATOM  =     12703.13999606
  Solvation  Ediel_sol  =         0.00000000
  ---------------------------------------------------
  free energy    TOTEN  =       124.10212106 eV

  energy without entropy =      124.10922850  energy(sigma->0) =      124.10567478


--------------------------------------------------------------------------------------------------------




--------------------------------------- Iteration      1(   4)  ---------------------------------------


    EDDIAG:  cpu time      0.2921: real time      0.2955
  RMM-DIIS:  cpu time      0.6385: real time      0.6455
    ORTHCH:  cpu time      0.0537: real time      0.0548
       DOS:  cpu time      0.0009: real time      0.0009
    --------------------------------------------
      LOOP:  cpu time      0.9852: real time      0.9966

 eigenvalue-minimisations  :  1056
 total energy-change (2. order) :-0.2065768E+03  (-0.1762964E+03)
 number of electron     240.0000000 magnetization      52.0000000
 augmentation part      240.0000000 magnetization      52.0000000

 Free energy of the ion-electron system (eV)
  ---------------------------------------------------
  alpha Z        PSCENC =       269.61520223
  Ewald energy   TEWEN  =     -8279.40742190
  -Hartree energ DENC   =     -2403.93460604
  -exchange      EXHF   =         0.00000000
  -V(xc)+E(xc)   XCENC  =       529.58874843
  PAW double counting   =      8141.38806575    -8271.61346273
  entropy T*S    EENTRO =        -0.00706104
  eigenvalues    EBANDS =     -2771.24413391
  atomic energy  EATOM  =     12703.13999606
  Solvation  Ediel_sol  =         0.00000000
  ---------------------------------------------------
  free energy    TOTEN  =       -82.47467316 eV

  energy without entropy =      -82.46761212  energy(sigma->0) =      -82.47114264


--------------------------------------------------------------------------------------------------------




--------------------------------------- Iteration      1(   5)  ---------------------------------------


    EDDIAG:  cpu time      0.2909: real time      0.2934
  RMM-DIIS:  cpu time      0.6368: real time      0.6497
    ORTHCH:  cpu time      0.0533: real time      0.0537
       DOS:  cpu time      0.0004: real time      0.0004
    --------------------------------------------
      LOOP:  cpu time      0.9814: real time      0.9972

 eigenvalue-minimisations  :  1056
 total energy-change (2. order) :-0.8018821E+02  (-0.7340074E+02)
 number of electron     240.0000000 magnetization      52.0000000
 augmentation part      240.0000000 magnetization      52.0000000

 Free energy of the ion-electron system (eV)
  ---------------------------------------------------
  alpha Z        PSCENC =       269.61520223
  Ewald energy   TEWEN  =     -8279.40742190
  -Hartree energ DENC   =     -2403.93460604
  -exchange      EXHF   =         0.00000000
  -V(xc)+E(xc)   XCENC  =       529.58874843
  PAW double counting   =      8141.38806575    -8271.61346273
  entropy T*S    EENTRO =        -0.00000000
  eigenvalues    EBANDS =     -2851.43940716
  atomic energy  EATOM  =     12703.13999606
  Solvation  Ediel_sol  =         0.00000000
  ---------------------------------------------------
  free energy    TOTEN  =      -162.66288537 eV

  energy without entropy =     -162.66288537  energy(sigma->0) =     -162.66288537


--------------------------------------------------------------------------------------------------------




--------------------------------------- Iteration      1(   6)  ---------------------------------------


    EDDIAG:  cpu time      0.2919: real time      0.2955
  RMM-DIIS:  cpu time      0.6742: real time      0.6813
    ORTHCH:  cpu time      0.0539: real time      0.0549
       DOS:  cpu time      0.0004: real time      0.0004
    --------------------------------------------
      LOOP:  cpu time      1.0204: real time      1.0321

 eigenvalue-minimisations  :  1056
 total energy-change (2. order) :-0.3717706E+02  (-0.3546074E+02)
 number of electron     240.0000000 magnetization      52.0000000
 augmentation part      240.0000000 magnetization      52.0000000

 Free energy of the ion-electron system (eV)
  ---------------------------------------------------
  alpha Z        PSCENC =       269.61520223
  Ewald energy   TEWEN  =     -8279.40742190
  -Hartree energ DENC   =     -2403.93460604
  -exchange      EXHF   =         0.00000000
  -V(xc)+E(xc)   XCENC  =       529.58874843
  PAW double counting   =      8141.38806575    -8271.61346273
  entropy T*S    EENTRO =        -0.00000000
  eigenvalues    EBANDS =     -2888.61646271
  atomic energy  EATOM  =     12703.13999606
  Solvation  Ediel_sol  =         0.00000000
  ---------------------------------------------------
  free energy    TOTEN  =      -199.83994092 eV

  energy without entropy =     -199.83994092  energy(sigma->0) =     -199.83994092


--------------------------------------------------------------------------------------------------------




--------------------------------------- Iteration      1(   7)  ---------------------------------------


    EDDIAG:  cpu time      0.2907: real time      0.2936
  RMM-DIIS:  cpu time      0.6352: real time      0.6417
    ORTHCH:  cpu time      0.0610: real time      0.0614
       DOS:  cpu time      0.0004: real time      0.0004
    --------------------------------------------
      LOOP:  cpu time      0.9873: real time      0.9971

 eigenvalue-minimisations  :  1056
 total energy-change (2. order) :-0.1867068E+02  (-0.1791644E+02)
 number of electron     240.0000000 magnetization      52.0000000
 augmentation part      240.0000000 magnetization      52.0000000

 Free energy of the ion-electron system (eV)
  ---------------------------------------------------
  alpha Z        PSCENC =       269.61520223
  Ewald energy   TEWEN  =     -8279.40742190
  -Hartree energ DENC   =     -2403.93460604
  -exchange      EXHF   =         0.00000000
  -V(xc)+E(xc)   XCENC  =       529.58874843
  PAW double counting   =      8141.38806575    -8271.61346273
  entropy T*S    EENTRO =        -0.00000000
  eigenvalues    EBANDS =     -2907.28713963
  atomic energy  EATOM  =     12703.13999606
  Solvation  Ediel_sol  =         0.00000000
  ---------------------------------------------------
  free energy    TOTEN  =      -218.51061784 eV

  energy without entropy =     -218.51061784  energy(sigma->0) =     -218.51061784


--------------------------------------------------------------------------------------------------------




--------------------------------------- Iteration      1(   8)  ---------------------------------------


    EDDIAG:  cpu time      0.2915: real time      0.2943
  RMM-DIIS:  cpu time      1.5222: real time      1.5673
    ORTHCH:  cpu time      0.0533: real time      0.0553
       DOS:  cpu time      0.0004: real time      0.0004
    --------------------------------------------
      LOOP:  cpu time      1.8674: real time      1.9173

 eigenvalue-minimisations  :  2681
 total energy-change (2. order) :-0.1898395E+02  (-0.1866579E+02)
 number of electron     240.0000000 magnetization      52.0000000
 augmentation part      240.0000000 magnetization      52.0000000

 Free energy of the ion-electron system (eV)
  ---------------------------------------------------
  alpha Z        PSCENC =       269.61520223
  Ewald energy   TEWEN  =     -8279.40742190
  -Hartree energ DENC   =     -2403.93460604
  -exchange      EXHF   =         0.00000000
  -V(xc)+E(xc)   XCENC  =       529.58874843
  PAW double counting   =      8141.38806575    -8271.61346273
  entropy T*S    EENTRO =        -0.00000000
  eigenvalues    EBANDS =     -2926.27108930
  atomic energy  EATOM  =     12703.13999606
  Solvation  Ediel_sol  =         0.00000000
  ---------------------------------------------------
  free energy    TOTEN  =      -237.49456751 eV

  energy without entropy =     -237.49456751  energy(sigma->0) =     -237.49456751


--------------------------------------------------------------------------------------------------------




--------------------------------------- Iteration      1(   9)  ---------------------------------------


    EDDIAG:  cpu time      0.2910: real time      0.2941
  RMM-DIIS:  cpu time      1.6783: real time      1.6974
    ORTHCH:  cpu time      0.0532: real time      0.0540
       DOS:  cpu time      0.0004: real time      0.0004
    --------------------------------------------
      LOOP:  cpu time      2.0229: real time      2.0460

 eigenvalue-minimisations  :  2981
 total energy-change (2. order) :-0.2455100E+01  (-0.2565745E+01)
 number of electron     240.0000000 magnetization      52.0000000
 augmentation part      240.0000000 magnetization      52.0000000

 Free energy of the ion-electron system (eV)
  ---------------------------------------------------
  alpha Z        PSCENC =       269.61520223
  Ewald energy   TEWEN  =     -8279.40742190
  -Hartree energ DENC   =     -2403.93460604
  -exchange      EXHF   =         0.00000000
  -V(xc)+E(xc)   XCENC  =       529.58874843
  PAW double counting   =      8141.38806575    -8271.61346273
  entropy T*S    EENTRO =        -0.00000000
  eigenvalues    EBANDS =     -2928.72618952
  atomic energy  EATOM  =     12703.13999606
  Solvation  Ediel_sol  =         0.00000000
  ---------------------------------------------------
  free energy    TOTEN  =      -239.94966773 eV

  energy without entropy =     -239.94966773  energy(sigma->0) =     -239.94966773


--------------------------------------------------------------------------------------------------------




--------------------------------------- Iteration      1(  10)  ---------------------------------------


    EDDIAG:  cpu time      0.2912: real time      0.2938
  RMM-DIIS:  cpu time      1.8980: real time      1.9192
    ORTHCH:  cpu time      0.0531: real time      0.0534
       DOS:  cpu time      0.0004: real time      0.0004
    CHARGE:  cpu time      0.2012: real time      0.2420
    MIXING:  cpu time      0.0021: real time      0.0038
    --------------------------------------------
      LOOP:  cpu time      2.4460: real time      2.5126

 eigenvalue-minimisations  :  3373
 total energy-change (2. order) :-0.2793210E+00  (-0.2477188E+00)
 number of electron     240.0000109 magnetization      28.5273808
 augmentation part        1.5609668 magnetization      28.9574005

 Broyden mixing:
  rms(total) = 0.65532E+01    rms(broyden)= 0.65529E+01
  rms(prec ) = 0.67952E+01
  weight for this iteration     100.00

 Free energy of the ion-electron system (eV)
  ---------------------------------------------------
  alpha Z        PSCENC =       269.61520223
  Ewald energy   TEWEN  =     -8279.40742190
  -Hartree energ DENC   =     -2403.93460604
  -exchange      EXHF   =         0.00000000
  -V(xc)+E(xc)   XCENC  =       529.58874843
  PAW double counting   =      8141.38806575    -8271.61346273
  entropy T*S    EENTRO =        -0.00000000
  eigenvalues    EBANDS =     -2929.00551055
  atomic energy  EATOM  =     12703.13999606
  Solvation  Ediel_sol  =         0.00000000
  ---------------------------------------------------
  free energy    TOTEN  =      -240.22898877 eV

  energy without entropy =     -240.22898877  energy(sigma->0) =     -240.22898877


--------------------------------------------------------------------------------------------------------




--------------------------------------- Iteration      1(  11)  ---------------------------------------


    POTLOK:  cpu time      0.0720: real time      0.0733
    SETDIJ:  cpu time      0.4171: real time      0.4199
    EDDIAG:  cpu time      0.2974: real time      0.2996
  RMM-DIIS:  cpu time      1.4782: real time      1.4939
    ORTHCH:  cpu time      0.0523: real time      0.0529
       DOS:  cpu time      0.0005: real time      0.0005
    CHARGE:  cpu time      0.1870: real time      0.2187
    MIXING:  cpu time      0.0013: real time      0.0187
    --------------------------------------------
      LOOP:  cpu time      2.5057: real time      2.5774

 eigenvalue-minimisations  :  2657
 total energy-change (2. order) : 0.1740567E+02  (-0.7286330E+01)
 number of electron     240.0000109 magnetization      17.5305962
 augmentation part        1.7197243 magnetization      17.8060803

 Broyden mixing:
  rms(total) = 0.33016E+01    rms(broyden)= 0.33015E+01
  rms(prec ) = 0.34231E+01
  weight for this iteration     100.00

 eigenvalues of (default mixing * dielectric matrix)
  average eigenvalue GAMMA=   0.7278
  0.7278

 Free energy of the ion-electron system (eV)
  ---------------------------------------------------
  alpha Z        PSCENC =       269.61520223
  Ewald energy   TEWEN  =     -8279.40742190
  -Hartree energ DENC   =     -2464.44428377
  -exchange      EXHF   =         0.00000000
  -V(xc)+E(xc)   XCENC  =       542.40570030
  PAW double counting   =      8977.32203401    -9114.11771751
  entropy T*S    EENTRO =        -0.00000000
  eigenvalues    EBANDS =     -2857.33682997
  atomic energy  EATOM  =     12703.13999606
  Solvation  Ediel_sol  =         0.00000000
  ---------------------------------------------------
  free energy    TOTEN  =      -222.82332057 eV

  energy without entropy =     -222.82332057  energy(sigma->0) =     -222.82332057


--------------------------------------------------------------------------------------------------------




--------------------------------------- Iteration      1(  12)  ---------------------------------------


    POTLOK:  cpu time      0.0693: real time      0.0704
    SETDIJ:  cpu time      0.4282: real time      0.4302
    EDDIAG:  cpu time      0.2917: real time      0.2937
  RMM-DIIS:  cpu time      1.4618: real time      1.4783
    ORTHCH:  cpu time      0.0538: real time      0.0545
       DOS:  cpu time      0.0004: real time      0.0004
    CHARGE:  cpu time      0.1816: real time      0.2222
    MIXING:  cpu time      0.0013: real time      0.0013
    --------------------------------------------
      LOOP:  cpu time      2.4881: real time      2.5510

 eigenvalue-minimisations  :  2578
 total energy-change (2. order) :-0.3098631E+02  (-0.4143964E+01)
 number of electron     240.0000109 magnetization       4.0808222
 augmentation part        1.9325415 magnetization       4.4304592

 Broyden mixing:
  rms(total) = 0.22438E+01    rms(broyden)= 0.22438E+01
  rms(prec ) = 0.22920E+01
  weight for this iteration     100.00

 eigenvalues of (default mixing * dielectric matrix)
  average eigenvalue GAMMA=   0.9512
  1.2545  0.6480

 Free energy of the ion-electron system (eV)
  ---------------------------------------------------
  alpha Z        PSCENC =       269.61520223
  Ewald energy   TEWEN  =     -8279.40742190
  -Hartree energ DENC   =     -2501.52511147
  -exchange      EXHF   =         0.00000000
  -V(xc)+E(xc)   XCENC  =       534.91887069
  PAW double counting   =      9372.81813707    -9513.55197560
  entropy T*S    EENTRO =        -0.00000000
  eigenvalues    EBANDS =     -2839.81733178
  atomic energy  EATOM  =     12703.13999606
  Solvation  Ediel_sol  =         0.00000000
  ---------------------------------------------------
  free energy    TOTEN  =      -253.80963472 eV

  energy without entropy =     -253.80963472  energy(sigma->0) =     -253.80963472


--------------------------------------------------------------------------------------------------------




--------------------------------------- Iteration      1(  13)  ---------------------------------------


    POTLOK:  cpu time      0.0701: real time      0.0792
    SETDIJ:  cpu time      0.4078: real time      0.4098
    EDDIAG:  cpu time      0.2922: real time      0.2946
  RMM-DIIS:  cpu time      1.2422: real time      1.2551
    ORTHCH:  cpu time      0.0516: real time      0.0522
       DOS:  cpu time      0.0004: real time      0.0004
    CHARGE:  cpu time      0.1652: real time      0.1967
    MIXING:  cpu time      0.0013: real time      0.0013
    --------------------------------------------
      LOOP:  cpu time      2.2308: real time      2.2892

 eigenvalue-minimisations  :  2214
 total energy-change (2. order) :-0.1974573E+01  (-0.6332961E+00)
 number of electron     240.0000109 magnetization      -1.9259905
 augmentation part        1.9833741 magnetization      -1.7877424

 Broyden mixing:
  rms(total) = 0.96127E+00    rms(broyden)= 0.96127E+00
  rms(prec ) = 0.98892E+00
  weight for this iteration     100.00

 eigenvalues of (default mixing * dielectric matrix)
  average eigenvalue GAMMA=   1.3308
  2.6188  0.7297  0.6439

 Free energy of the ion-electron system (eV)
  ---------------------------------------------------
  alpha Z        PSCENC =       269.61520223
  Ewald energy   TEWEN  =     -8279.40742190
  -Hartree energ DENC   =     -2525.36038250
  -exchange      EXHF   =         0.00000000
  -V(xc)+E(xc)   XCENC  =       535.08215594
  PAW double counting   =      9767.10362171    -9911.25674380
  entropy T*S    EENTRO =        -0.00000000
  eigenvalues    EBANDS =     -2814.70063576
  atomic energy  EATOM  =     12703.13999606
  Solvation  Ediel_sol  =         0.00000000
  ---------------------------------------------------
  free energy    TOTEN  =      -255.78420801 eV

  energy without entropy =     -255.78420801  energy(sigma->0) =     -255.78420801


--------------------------------------------------------------------------------------------------------




--------------------------------------- Iteration      1(  14)  ---------------------------------------


    POTLOK:  cpu time      0.0688: real time      0.0703
    SETDIJ:  cpu time      0.4070: real time      0.4089
    EDDIAG:  cpu time      0.2922: real time      0.2942
  RMM-DIIS:  cpu time      1.4259: real time      1.4417
    ORTHCH:  cpu time      0.0526: real time      0.0537
       DOS:  cpu time      0.0004: real time      0.0004
    CHARGE:  cpu time      0.1498: real time      0.1819
    MIXING:  cpu time      0.0013: real time      0.0013
    --------------------------------------------
      LOOP:  cpu time      2.3980: real time      2.4523

 eigenvalue-minimisations  :  2561
 total energy-change (2. order) :-0.3167463E+00  (-0.2429861E+00)
 number of electron     240.0000109 magnetization      -1.1465560
 augmentation part        1.9558558 magnetization      -1.1173608

 Broyden mixing:
  rms(total) = 0.32469E+00    rms(broyden)= 0.32469E+00
  rms(prec ) = 0.35328E+00
  weight for this iteration     100.00

 eigenvalues of (default mixing * dielectric matrix)
  average eigenvalue GAMMA=   1.2805
  2.7133  1.1070  0.6947  0.6069

 Free energy of the ion-electron system (eV)
  ---------------------------------------------------
  alpha Z        PSCENC =       269.61520223
  Ewald energy   TEWEN  =     -8279.40742190
  -Hartree energ DENC   =     -2534.53952638
  -exchange      EXHF   =         0.00000000
  -V(xc)+E(xc)   XCENC  =       536.31252631
  PAW double counting   =      9935.11322034   -10080.78926969
  entropy T*S    EENTRO =        -0.00000000
  eigenvalues    EBANDS =     -2805.54568124
  atomic energy  EATOM  =     12703.13999606
  Solvation  Ediel_sol  =         0.00000000
  ---------------------------------------------------
  free energy    TOTEN  =      -256.10095428 eV

  energy without entropy =     -256.10095428  energy(sigma->0) =     -256.10095428


--------------------------------------------------------------------------------------------------------




--------------------------------------- Iteration      1(  15)  ---------------------------------------


    POTLOK:  cpu time      0.0725: real time      0.0744
    SETDIJ:  cpu time      0.4106: real time      0.4122
    EDDIAG:  cpu time      0.2916: real time      0.2939
  RMM-DIIS:  cpu time      1.4226: real time      1.4388
    ORTHCH:  cpu time      0.0534: real time      0.0541
       DOS:  cpu time      0.0005: real time      0.0005
    CHARGE:  cpu time      0.1507: real time      0.1904
    MIXING:  cpu time      0.0015: real time      0.0015
    --------------------------------------------
      LOOP:  cpu time      2.4034: real time      2.4658

 eigenvalue-minimisations  :  2554
 total energy-change (2. order) : 0.7162881E-03  (-0.4665674E-01)
 number of electron     240.0000109 magnetization      -0.2956182
 augmentation part        1.8979885 magnetization      -0.2732014

 Broyden mixing:
  rms(total) = 0.71913E-01    rms(broyden)= 0.71911E-01
  rms(prec ) = 0.86717E-01
  weight for this iteration     100.00

 eigenvalues of (default mixing * dielectric matrix)
  average eigenvalue GAMMA=   1.2956
  2.5749  1.6888  0.9056  0.6904  0.6185

 Free energy of the ion-electron system (eV)
  ---------------------------------------------------
  alpha Z        PSCENC =       269.61520223
  Ewald energy   TEWEN  =     -8279.40742190
  -Hartree energ DENC   =     -2530.27376489
  -exchange      EXHF   =         0.00000000
  -V(xc)+E(xc)   XCENC  =       535.90300166
  PAW double counting   =      9896.03857823   -10041.35983700
  entropy T*S    EENTRO =        -0.00000000
  eigenvalues    EBANDS =     -2809.75599238
  atomic energy  EATOM  =     12703.13999606
  Solvation  Ediel_sol  =         0.00000000
  ---------------------------------------------------
  free energy    TOTEN  =      -256.10023800 eV

  energy without entropy =     -256.10023800  energy(sigma->0) =     -256.10023800


--------------------------------------------------------------------------------------------------------




--------------------------------------- Iteration      1(  16)  ---------------------------------------


    POTLOK:  cpu time      0.0683: real time      0.0695
    SETDIJ:  cpu time      0.4085: real time      0.4097
    EDDIAG:  cpu time      0.2927: real time      0.2951
  RMM-DIIS:  cpu time      1.3916: real time      1.4077
    ORTHCH:  cpu time      0.0530: real time      0.0537
       DOS:  cpu time      0.0004: real time      0.0004
    CHARGE:  cpu time      0.1600: real time      0.1833
    MIXING:  cpu time      0.0015: real time      0.0015
    --------------------------------------------
      LOOP:  cpu time      2.3761: real time      2.4210

 eigenvalue-minimisations  :  2492
 total energy-change (2. order) :-0.2343458E-01  (-0.1310167E-01)
 number of electron     240.0000109 magnetization      -0.0741412
 augmentation part        1.8615231 magnetization      -0.0678911

 Broyden mixing:
[...]
 -0.000   0.000   0.000   0.003  -0.002  -0.000   0.000  -0.000  -0.000   0.000   0.000   0.000  -0.000   0.000
 -0.000   0.000   0.000  -0.002   0.003   0.000  -0.000   0.000   0.000  -0.000   0.000  -0.000   0.000  -0.000
 -0.002   0.002   0.000  -0.000   0.000   0.007  -0.000   0.000   0.000  -0.000  -0.000   0.000  -0.000  -0.000
 -0.000   0.000   0.000   0.006  -0.007  -0.000   0.000  -0.000  -0.000   0.000   0.000   0.000  -0.000   0.000
 -0.034   0.034   0.000   0.000   0.000  -0.006   0.000   0.000  -0.000   0.000   0.000  -0.000   0.000   0.000
 -0.019   0.019   0.000   0.000  -0.000   0.006   0.000  -0.000   0.000   0.000  -0.000   0.000  -0.000  -0.000
  0.000  -0.000  -0.000  -0.007   0.006  -0.000  -0.000   0.000  -0.000  -0.000   0.000  -0.000   0.000   0.000
  0.033  -0.033  -0.000   0.000  -0.000  -0.011   0.000  -0.000  -0.000   0.000   0.000  -0.000   0.000   0.000
 total augmentation occupancy for first ion, spin component:           2
 -0.000   0.000  -0.000  -0.000   0.000  -0.000  -0.000  -0.000  -0.000   0.000   0.000   0.000   0.000  -0.000
  0.000  -0.000   0.000   0.000  -0.000   0.000   0.000  -0.000  -0.000  -0.000  -0.000  -0.000  -0.000   0.000
 -0.000   0.000   0.000   0.000  -0.000   0.000   0.000  -0.000   0.000   0.000   0.000   0.000  -0.000  -0.000
 -0.000   0.000   0.000   0.000  -0.000  -0.000  -0.000  -0.000  -0.000   0.000   0.000   0.000  -0.000   0.000
  0.000  -0.000  -0.000  -0.000  -0.000  -0.000   0.000  -0.000  -0.000   0.000   0.000   0.000  -0.000  -0.000
 -0.000   0.000   0.000  -0.000  -0.000  -0.000   0.000   0.000  -0.000   0.000   0.000  -0.000  -0.000  -0.000
 -0.000   0.000   0.000  -0.000   0.000   0.000  -0.000   0.000   0.000  -0.000  -0.000   0.000   0.000   0.000
 -0.000  -0.000  -0.000  -0.000  -0.000   0.000   0.000  -0.000   0.000   0.000  -0.000  -0.000  -0.000   0.000
 -0.000  -0.000   0.000  -0.000  -0.000  -0.000   0.000   0.000  -0.000   0.000  -0.000  -0.000  -0.000   0.000
  0.000  -0.000   0.000   0.000   0.000   0.000  -0.000   0.000   0.000  -0.000   0.000   0.000   0.000   0.000
  0.000  -0.000   0.000   0.000   0.000   0.000  -0.000  -0.000  -0.000   0.000   0.000   0.000  -0.000   0.000
  0.000  -0.000   0.000   0.000   0.000  -0.000   0.000  -0.000  -0.000   0.000   0.000  -0.000  -0.000   0.000
  0.000  -0.000  -0.000  -0.000  -0.000  -0.000   0.000  -0.000  -0.000   0.000  -0.000  -0.000  -0.000   0.000
 -0.000   0.000  -0.000   0.000  -0.000  -0.000   0.000   0.000   0.000   0.000   0.000   0.000   0.000  -0.000


------------------------ aborting loop because EDIFF is reached ----------------------------------------


    CHARGE:  cpu time      0.1394: real time      0.1423
    FORLOC:  cpu time      0.0050: real time      0.0050
    FORNL :  cpu time      0.3606: real time      0.3639
    STRESS:  cpu time      1.0799: real time      1.0894
    FORCOR:  cpu time      0.0653: real time      0.0662
    FORHAR:  cpu time      0.0110: real time      0.0111
    MIXING:  cpu time      0.0012: real time      0.0012
    OFIELD:  cpu time      0.0000: real time      0.0000

 ---------------------------------------------------------------------------------------------

         DFTD3 V3.0 Rev 1        
 Edisp (eV)  -12.09924

 E6    (eV) :    -7.4505
 E8    (eV) :    -4.6487
 % E8        : 38.42
    FORVDW:  cpu time      0.2859: real time      0.2885

  FORCE on cell =-STRESS in cart. coord.  units (eV):
  Direction    XX          YY          ZZ          XY          YZ          ZX
  --------------------------------------------------------------------------------------
  Alpha Z   269.61520   269.61520   269.61520
  Ewald   -2759.74424 -2759.88852 -2759.74424     0.97555     0.97555     0.55018
  Hartree   843.86715   843.78860   843.86715     0.57093     0.57093     0.30357
  E(xc)    -946.89894  -946.89910  -946.89894     0.00002     0.00002     0.00031
  Local   -1759.86518 -1759.63080 -1759.86518    -1.55371    -1.55371    -0.85209
  n-local  1481.14810  1481.13960  1481.14998     0.33052    -0.25481     0.02011
  augment  -356.06691  -356.06452  -356.06691    -0.00722    -0.00722    -0.00328
  Kinetic  3240.63431  3240.60805  3240.63625     0.57771    -0.46826     0.02289
  Fock        0.00000     0.00000     0.00000     0.00000     0.00000     0.00000
  vdW       -12.85197   -12.85200   -12.85197    -0.00031    -0.00031    -0.00015
  -------------------------------------------------------------------------------------
  Total      -0.16057    -0.18348    -0.16057     0.07783     0.07783     0.04154
  in kB      -0.25551    -0.29198    -0.25551     0.12386     0.12386     0.06610
  external pressure =       -0.27 kB  Pullay stress =        0.00 kB


 VOLUME and BASIS-vectors are now :
 -----------------------------------------------------------------------------
  energy-cutoff  :      520.00
  volume of cell :     1006.83
      direct lattice vectors                 reciprocal lattice vectors
    10.022725241  0.000000000  0.000000000     0.099773263  0.000000000  0.000000000
     0.000000000 10.022725241  0.000000000     0.000000000  0.099773263  0.000000000
     0.000000000  0.000000000 10.022725241     0.000000000  0.000000000  0.099773263

  length of vectors
    10.022725241 10.022725241 10.022725241     0.099773263  0.099773263  0.099773263


 FORCES acting on ions
    electron-ion (+dipol)            ewald-force                    non-local-force                 convergence-correction
 -----------------------------------------------------------------------------------------------
   -.684E+01 -.184E+00 -.154E+00   0.615E+01 0.170E+00 0.143E+00   0.692E+00 0.266E-01 0.257E-01   -.748E-03 -.805E-02 -.102E-01
   -.683E+01 0.322E+00 0.369E+00   0.613E+01 -.301E+00 -.344E+00   0.693E+00 -.374E-01 -.414E-01   0.268E-05 0.118E-01 0.111E-01
   0.670E+01 0.633E-01 -.134E+00   -.601E+01 -.558E-01 0.126E+00   -.687E+00 -.734E-02 0.119E-01   -.793E-04 -.712E-03 -.319E-02
   0.679E+01 -.107E+00 0.926E-01   -.609E+01 0.959E-01 -.824E-01   -.687E+00 0.198E-01 -.171E-01   -.547E-03 -.749E-02 0.428E-02
   -.154E+00 -.184E+00 -.684E+01   0.143E+00 0.170E+00 0.615E+01   0.257E-01 0.266E-01 0.692E+00   -.102E-01 -.805E-02 -.748E-03
   0.926E-01 -.107E+00 0.679E+01   -.824E-01 0.959E-01 -.609E+01   -.171E-01 0.198E-01 -.687E+00   0.428E-02 -.749E-02 -.547E-03
   -.134E+00 0.633E-01 0.670E+01   0.126E+00 -.558E-01 -.601E+01   0.119E-01 -.734E-02 -.687E+00   -.319E-02 -.712E-03 -.793E-04
   0.369E+00 0.322E+00 -.683E+01   -.344E+00 -.301E+00 0.613E+01   -.414E-01 -.374E-01 0.693E+00   0.111E-01 0.118E-01 0.268E-05
   0.209E+00 -.690E+01 0.209E+00   -.193E+00 0.621E+01 -.193E+00   -.285E-01 0.693E+00 -.285E-01   0.938E-02 -.699E-03 0.938E-02
   0.545E-01 0.675E+01 -.489E-01   -.567E-01 -.606E+01 0.483E-01   0.676E-03 -.686E+00 0.599E-02   0.421E-04 -.158E-02 -.529E-02
   -.327E+00 -.670E+01 -.327E+00   0.312E+00 0.601E+01 0.312E+00   0.337E-01 0.689E+00 0.337E-01   -.121E-01 -.108E-02 -.121E-01
   -.489E-01 0.675E+01 0.545E-01   0.483E-01 -.606E+01 -.567E-01   0.599E-02 -.686E+00 0.676E-03   -.529E-02 -.158E-02 0.421E-04
   -.632E-01 -.210E-01 -.674E+01   0.596E-01 0.232E-01 0.604E+01   0.883E-02 0.862E-02 0.688E+00   -.407E-02 -.805E-02 -.108E-02
   0.770E-01 -.124E+00 0.679E+01   -.725E-01 0.114E+00 -.609E+01   0.602E-03 0.962E-02 -.689E+00   -.432E-02 0.295E-03 -.835E-03
   0.117E+00 -.192E+00 0.680E+01   -.114E+00 0.185E+00 -.610E+01   -.435E-02 0.735E-02 -.692E+00   0.300E-03 -.358E-03 -.837E-03
   0.184E+00 0.280E+00 -.683E+01   -.177E+00 -.265E+00 0.614E+01   -.176E-01 -.248E-01 0.692E+00   0.781E-02 0.708E-02 -.124E-02
   0.275E-01 -.677E+01 0.580E-01   -.230E-01 0.608E+01 -.524E-01   0.873E-02 0.688E+00 0.726E-02   -.944E-02 0.206E-03 -.934E-02
   -.678E-01 0.668E+01 -.678E-01   0.635E-01 -.599E+01 0.635E-01   0.337E-02 -.685E+00 0.337E-02   0.299E-03 0.316E-03 0.299E-03
   0.580E-01 -.677E+01 0.275E-01   -.524E-01 0.608E+01 -.230E-01   0.726E-02 0.688E+00 0.873E-02   -.934E-02 0.206E-03 -.944E-02
   -.376E-01 0.689E+01 -.376E-01   0.323E-01 -.619E+01 0.323E-01   0.541E-02 -.694E+00 0.541E-02   -.590E-03 -.118E-02 -.590E-03
   -.683E+01 0.280E+00 0.184E+00   0.614E+01 -.265E+00 -.177E+00   0.692E+00 -.248E-01 -.176E-01   -.124E-02 0.708E-02 0.781E-02
   -.674E+01 -.210E-01 -.632E-01   0.604E+01 0.232E-01 0.596E-01   0.688E+00 0.862E-02 0.883E-02   -.108E-02 -.805E-02 -.407E-02
   0.679E+01 -.124E+00 0.770E-01   -.609E+01 0.114E+00 -.725E-01   -.689E+00 0.962E-02 0.602E-03   -.835E-03 0.295E-03 -.432E-02
   0.680E+01 -.192E+00 0.117E+00   -.610E+01 0.185E+00 -.114E+00   -.692E+00 0.735E-02 -.435E-02   -.837E-03 -.358E-03 0.300E-03
   0.453E-01 -.644E-01 0.453E-01   -.459E-01 0.622E-01 -.459E-01   0.616E-02 -.162E-02 0.616E-02   -.440E-02 0.291E-02 -.440E-02
   -.757E-01 -.398E-01 -.108E+00   0.805E-01 0.383E-01 0.101E+00   -.981E-02 0.202E-03 0.390E-02   0.540E-03 0.331E-03 0.260E-04
   -.720E-01 0.503E-01 -.720E-01   0.701E-01 -.528E-01 0.701E-01   -.651E-03 0.191E-02 -.651E-03   0.782E-03 0.397E-03 0.782E-03
   -.108E+00 -.398E-01 -.757E-01   0.101E+00 0.383E-01 0.805E-01   0.390E-02 0.202E-03 -.981E-02   0.260E-04 0.331E-03 0.540E-03
   -.450E+02 0.450E+02 -.452E+02   0.483E+02 -.483E+02 0.485E+02   -.329E+01 0.329E+01 -.330E+01   0.663E-02 0.426E-02 0.685E-02
   -.451E+02 -.449E+02 0.451E+02   0.484E+02 0.482E+02 -.484E+02   -.330E+01 -.329E+01 0.330E+01   0.695E-02 0.605E-02 0.116E-01
   0.451E+02 0.451E+02 0.449E+02   -.484E+02 -.484E+02 -.482E+02   0.330E+01 0.330E+01 0.329E+01   0.413E-02 0.198E-02 0.769E-02
   0.452E+02 -.451E+02 -.449E+02   -.485E+02 0.484E+02 0.482E+02   0.330E+01 -.329E+01 -.328E+01   0.753E-02 0.429E-02 0.713E-02
   0.450E+02 -.451E+02 -.451E+02   -.483E+02 0.483E+02 0.484E+02   0.329E+01 -.330E+01 -.330E+01   0.779E-02 0.441E-02 0.362E-02
   0.450E+02 0.451E+02 0.450E+02   -.483E+02 -.483E+02 -.483E+02   0.330E+01 0.329E+01 0.330E+01   0.687E-02 -.589E-02 0.687E-02
   -.451E+02 -.451E+02 0.450E+02   0.484E+02 0.483E+02 -.483E+02   -.330E+01 -.330E+01 0.329E+01   0.362E-02 0.441E-02 0.779E-02
   -.449E+02 0.454E+02 -.449E+02   0.482E+02 -.487E+02 0.482E+02   -.329E+01 0.330E+01 -.329E+01   0.668E-02 0.404E-02 0.668E-02
   -.449E+02 -.451E+02 0.452E+02   0.482E+02 0.484E+02 -.485E+02   -.328E+01 -.329E+01 0.330E+01   0.713E-02 0.429E-02 0.753E-02
   -.452E+02 0.450E+02 -.450E+02   0.485E+02 -.483E+02 0.483E+02   -.330E+01 0.329E+01 -.329E+01   0.685E-02 0.426E-02 0.663E-02
   0.451E+02 -.449E+02 -.451E+02   -.484E+02 0.482E+02 0.484E+02   0.330E+01 -.329E+01 -.330E+01   0.116E-01 0.605E-02 0.695E-02
   0.449E+02 0.451E+02 0.451E+02   -.482E+02 -.484E+02 -.484E+02   0.329E+01 0.330E+01 0.330E+01   0.769E-02 0.198E-02 0.413E-02
   -.448E+02 -.450E+02 0.453E+02   0.481E+02 0.483E+02 -.486E+02   -.329E+01 -.329E+01 0.330E+01   -.394E-02 0.222E-02 -.178E-02
   -.450E+02 0.450E+02 -.450E+02   0.483E+02 -.483E+02 0.483E+02   -.330E+01 0.330E+01 -.330E+01   0.323E-02 0.467E-02 0.323E-02
   0.453E+02 -.450E+02 -.448E+02   -.486E+02 0.483E+02 0.481E+02   0.330E+01 -.329E+01 -.329E+01   -.178E-02 0.222E-02 -.394E-02
   0.451E+02 0.449E+02 0.451E+02   -.484E+02 -.482E+02 -.484E+02   0.329E+01 0.329E+01 0.329E+01   -.259E-02 0.680E-02 -.259E-02
   -.284E-01 -.396E+00 -.284E-01   0.318E-01 0.399E+00 0.318E-01   0.185E-03 -.930E-02 0.185E-03   -.241E-02 0.721E-02 -.241E-02
   0.482E-01 0.263E-01 0.271E+00   -.413E-01 -.246E-01 -.262E+00   0.243E-02 0.122E-02 0.602E-02   -.786E-02 -.224E-02 -.137E-01
   -.257E+00 0.344E+00 -.257E+00   0.260E+00 -.337E+00 0.260E+00   -.421E-02 0.926E-02 -.421E-02   0.223E-02 -.147E-01 0.223E-02
   0.271E+00 0.263E-01 0.482E-01   -.262E+00 -.246E-01 -.413E-01   0.602E-02 0.122E-02 0.243E-02   -.137E-01 -.224E-02 -.786E-02
   0.112E+00 -.443E+00 0.112E+00   -.595E-01 0.419E+00 -.595E-01   -.728E-02 0.467E-02 -.728E-02   -.442E-01 0.193E-01 -.442E-01
   -.785E+00 -.115E-02 -.292E-01   0.703E+00 0.698E-02 0.321E-01   0.192E-01 -.372E-03 0.196E-02   0.625E-01 -.525E-02 -.393E-02
   0.376E-01 0.236E+00 0.376E-01   -.305E-01 -.204E+00 -.305E-01   0.164E-03 -.530E-02 0.164E-03   -.670E-02 -.258E-01 -.670E-02
   -.292E-01 -.115E-02 -.785E+00   0.321E-01 0.698E-02 0.703E+00   0.196E-02 -.372E-03 0.192E-01   -.393E-02 -.525E-02 0.625E-01
 -----------------------------------------------------------------------------------------------
   -.108E+00 -.561E-01 -.108E+00   -.623E-13 -.497E-13 -.188E-12   0.631E-01 0.337E-01 0.631E-01   0.307E-01 0.146E-01 0.307E-01
 
 
 POSITION                                       TOTAL-FORCE (eV/Angst)
 -----------------------------------------------------------------------------------
      9.78911      2.51348      2.51535         0.002847      0.005031      0.005216
      9.78942      7.50256      7.50673         0.001674     -0.004331     -0.005056
      0.23256      2.50308      7.52087         0.001850     -0.000372      0.000954
      0.23142      7.52458      2.50059         0.001728      0.001396     -0.002125
      2.51535      2.51348      9.78911         0.005216      0.005031      0.002847
      2.50059      7.52458      0.23142        -0.002125      0.001396      0.001728
      7.52087      2.50308      0.23256         0.000954     -0.000372      0.001850
      7.50673      7.50256      9.78942        -0.005056     -0.004331      0.001674
      2.49673      9.79182      2.49673        -0.003048      0.001373     -0.003048
      2.50682      0.23205      7.51999        -0.001274      0.002079      0.000441
      7.52826      9.78743      7.52826         0.005864      0.001145      0.005864
      7.51999      0.23205      2.50682         0.000441      0.002079     -0.001274
      2.50670      7.52252      4.77743         0.001365      0.002826      0.001535
      2.50490      2.50767      5.24351         0.001061     -0.000234      0.001361
      7.51472      7.51755      5.24332        -0.000722     -0.000007      0.001855
      7.51024      2.49922      4.77832        -0.002128     -0.002472      0.002695
      2.50920      4.77870      7.51920         0.003989     -0.000050      0.003652
      2.50504      5.24604      2.50504        -0.000386      0.000223     -0.000386
      7.51920      4.77870      2.50920         0.003652     -0.000050      0.003989
      7.51663      5.24105      7.51663        -0.000244      0.001691     -0.000244
      4.77832      2.49922      7.51024         0.002695     -0.002472     -0.002128
      4.77743      7.52252      2.50670         0.001535      0.002826      0.001365
      5.24351      2.50767      2.50490         0.001361     -0.000234      0.001061
      5.24332      7.51755      7.51472         0.001855     -0.000007     -0.000722
      5.01055      5.01245      5.01055         0.001570     -0.000815      0.001570
      5.01404      0.00064      0.00075        -0.004180     -0.000839     -0.001851
      0.00166      5.01099      0.00166        -0.001482     -0.000037     -0.001482
      0.00075      0.00064      5.01404        -0.001851     -0.000839     -0.004180
      1.18400      8.83957      6.19869        -0.001615     -0.000703     -0.001680
      1.18426      1.18413      3.82939        -0.001816     -0.001689     -0.000796
      8.84005      8.83907      3.83067        -0.002403     -0.001409     -0.002323
      8.83869      1.18467      6.19678        -0.001256     -0.001043     -0.001305
      8.84054      6.19456      1.18570        -0.001606     -0.000956     -0.001702
      8.84043      3.82786      8.84043        -0.002801     -0.001241     -0.002801
      1.18570      6.19456      8.84054        -0.001702     -0.000956     -0.001606
      1.18521      3.82602      1.18521        -0.002445      0.000211     -0.002445
      6.19678      1.18467      8.83869        -0.001305     -0.001043     -0.001256
      6.19869      8.83957      1.18400        -0.001680     -0.000703     -0.001615
      3.82939      1.18413      1.18426        -0.000796     -0.001689     -0.001816
      3.83067      8.83907      8.84005        -0.002323     -0.001409     -0.002403
      6.19346      6.19651      3.82593        -0.000859     -0.000661     -0.000906
      6.19398      3.82790      6.19398        -0.001703      0.001052     -0.001703
      3.82593      6.19651      6.19346        -0.000906     -0.000661     -0.000859
      3.82660      3.82898      3.82660        -0.001969     -0.001561     -0.001969
      7.51630      7.51430      7.51630         0.001421      0.000780      0.001421
      7.51624      2.50537      2.50530         0.001751      0.000784      0.001701
      2.50440      7.51878      2.50440         0.001257      0.000970      0.001257
      2.50530      2.50537      7.51624         0.001701      0.000784      0.001751
     10.02270     10.01834     10.02270         0.001288      0.000169      0.001288
     10.01537      5.01121      5.01092         0.000759      0.000337      0.001081
      5.01117      0.00184      5.01117         0.000762      0.000665      0.000762
      5.01092      5.01121     10.01537         0.001081      0.000337      0.000759
 -----------------------------------------------------------------------------------
    total drift:                               -0.014447     -0.007720     -0.014447


--------------------------------------------------------------------------------------------------------



  FREE ENERGIE OF THE ION-ELECTRON SYSTEM (eV)
  ---------------------------------------------------
  free  energy   TOTEN  =      -268.23222429 eV

  energy  without entropy=     -268.23222429  energy(sigma->0) =     -268.23222429
 
 d Force =-0.1889170E-03[-0.114E-03,-0.264E-03]  d Energy =-0.1288390E-03-0.601E-04
 d Force =-0.4274225E-02[-0.425E-02,-0.429E-02]  d Ewald  =-0.4274198E-02-0.271E-07


--------------------------------------------------------------------------------------------------------


    POTLOK:  cpu time      0.4748: real time      0.4770


--------------------------------------------------------------------------------------------------------


 stress matrix after NEB project (eV)
     -0.16057      0.07783      0.04154
      0.07783     -0.18348      0.07783
      0.04154      0.07783     -0.16057
  FORCES: max atom, RMS     0.008371    0.003641
  FORCE total and by dimension    0.026259    0.005864
  Stress total and by dimension    0.336028    0.183484
 Quasi-Newton relaxation of ions (Broydens 2nd method)
  g(Force)  = 0.333E-04   g(Stress)= 0.000E+00

 retain information from N=  2 steps
 eigenvalues of (default step * inverse Hessian matrix)
  average eigenvalue of G=   5.1741
 eigenvalue spectrum of G is  5.1741  5.1741


--------------------------------------------------------------------------------------------------------


  
 reached required accuracy - stopping structural energy minimisation
     LOOP+:  cpu time     17.3601: real time     17.5806
    4ORBIT:  cpu time      0.0000: real time      0.0000

 total amount of memory used by VASP MPI-rank0    50413. kBytes
=======================================================================

   base      :      30000. kBytes
   nonlr-proj:       7918. kBytes
   fftplans  :       2173. kBytes
   grid      :       6510. kBytes
   one-center:         62. kBytes
   wavefun   :       3750. kBytes
 
  
  
 General timing and accounting informations for this job:
 ========================================================
  
                  Total CPU time used (sec):      163.525
                            User time (sec):      161.446
                          System time (sec):        2.079
                         Elapsed time (sec):      169.167
  
                   Maximum memory used (kb):      441288.
                   Average memory used (kb):          N/A
  
                          Minor page faults:        85748
                          Major page faults:          144
                 Voluntary context switches:         8360
