unknown system                          
           1
     9.694409    0.000000    0.000000
     0.000000    9.694409    0.000000
     0.000000    0.000000    9.694409
   Li   P    S    Cl
    24     4    20     4
Direct configuration=     1
   0.99048290  0.29046553  0.31511774
   0.96706930  0.69566223  0.69406781
   0.03858588  0.33538141  0.68945650
   0.01421986  0.80079334  0.20086613
   0.31511774  0.29046553  0.99048290
   0.20086613  0.80079334  0.01421986
   0.68945650  0.33538141  0.03858588
   0.69406781  0.69566223  0.96706930
   0.33559950  0.95069500  0.33559950
   0.16659663  0.04219354  0.82083394
   0.82547182  0.97035027  0.82547182
   0.82083394  0.04219354  0.16659663
   0.17896162  0.67963721  0.46702972
   0.27542089  0.23166904  0.52944503
   0.69529940  0.81623578  0.50968966
   0.71586770  0.16822602  0.47850124
   0.33044529  0.48521116  0.80381997
   0.22635326  0.51927211  0.22635326
   0.80381997  0.48521116  0.33044529
   0.72952918  0.52677502  0.72952918
   0.47850124  0.16822602  0.71586770
   0.46702972  0.67963721  0.17896162
   0.52944503  0.23166904  0.27542089
   0.50968966  0.81623578  0.69529940
   0.49266197  0.50120122  0.49266197
   0.50467591  0.99872865  0.00972217
   0.99361747  0.49230723  0.99361747
   0.00972217  0.99872865  0.50467591
   0.12747907  0.87030194  0.62376579
   0.13769078  0.10815937  0.37698424
   0.87644674  0.89419847  0.37699214
   0.90109440  0.12579036  0.63488251
   0.87316943  0.61149586  0.12078026
   0.86661691  0.38068025  0.86661691
   0.12078026  0.61149586  0.87316943
   0.10717387  0.35410754  0.10717387
   0.63488251  0.12579036  0.90109440
   0.62376579  0.87030194  0.12747907
   0.37698424  0.10815937  0.13769078
   0.37699214  0.89419847  0.87644674
   0.61367239  0.62651831  0.37354232
   0.60778589  0.36554465  0.60778589
   0.37354232  0.62651831  0.61367239
   0.36744224  0.38448309  0.36744224
   0.74002690  0.75985126  0.74002690
   0.76023222  0.25701057  0.25878549
   0.24431947  0.74818124  0.24431947
   0.25878549  0.25701057  0.76023222
   0.00314489  0.96595678  0.00314489
   0.99990219  0.49798748  0.49476256
   0.51389880  0.00926184  0.51389880
   0.49476256  0.49798748  0.99990219
Direct configuration=     2
   0.99048324  0.29047072  0.31512375
   0.96706935  0.69566157  0.69406223
   0.03859204  0.33538373  0.68945627
   0.01421594  0.80079365  0.20086879
   0.31512375  0.29047072  0.99048324
   0.20086879  0.80079365  0.01421594
   0.68945627  0.33538373  0.03859204
   0.69406223  0.69566157  0.96706935
   0.33559845  0.95068853  0.33559845
   0.16659783  0.04219912  0.82083578
   0.82547308  0.97035008  0.82547308
   0.82083578  0.04219912  0.16659783
   0.17896385  0.67963852  0.46702810
   0.27542756  0.23165611  0.52944307
   0.69529851  0.81623488  0.50968895
   0.71587268  0.16822587  0.47850185
   0.33044487  0.48521219  0.80381686
   0.22635082  0.51926943  0.22635082
   0.80381686  0.48521219  0.33044487
   0.72952744  0.52677753  0.72952744
   0.47850185  0.16822587  0.71587268
   0.46702810  0.67963852  0.17896385
   0.52944307  0.23165611  0.27542756
   0.50968895  0.81623488  0.69529851
   0.49265804  0.50119383  0.49265804
   0.50467194  0.99872195  0.00972201
   0.99362039  0.49231952  0.99362039
   0.00972201  0.99872195  0.50467194
   0.12750824  0.87027142  0.62379115
   0.13771961  0.10818121  0.37695516
   0.87642485  0.89417580  0.37696676
   0.90107237  0.12582407  0.63491332
   0.87314334  0.61151781  0.12080698
   0.86658167  0.38064591  0.86658167
   0.12080698  0.61151781  0.87314334
   0.10719404  0.35407423  0.10719404
   0.63491332  0.12582407  0.90107237
   0.62379115  0.87027142  0.12750824
   0.37695516  0.10818121  0.13771961
   0.37696676  0.89417580  0.87642485
   0.61369549  0.62654716  0.37351308
   0.60781151  0.36551295  0.60781151
   0.37351308  0.62654716  0.61369549
   0.36741580  0.38446140  0.36741580
   0.74002655  0.75985488  0.74002655
   0.76023253  0.25701213  0.25878760
   0.24431892  0.74818363  0.24431892
   0.25878760  0.25701213  0.76023253
   0.00314783  0.96596294  0.00314783
   0.99989995  0.49799161  0.49476414
   0.51389543  0.00926610  0.51389543
   0.49476414  0.49799161  0.99989995
Direct configuration=     3
   0.99048375  0.29047832  0.31513255
   0.96706944  0.69566060  0.69405404
   0.03860105  0.33538713  0.68945594
   0.01421019  0.80079409  0.20087269
   0.31513255  0.29047832  0.99048375
   0.20087269  0.80079409  0.01421019
   0.68945594  0.33538713  0.03860105
   0.69405404  0.69566060  0.96706944
   0.33559689  0.95067906  0.33559689
   0.16659957  0.04220730  0.82083849
   0.82547492  0.97034980  0.82547492
   0.82083849  0.04220730  0.16659957
   0.17896713  0.67964045  0.46702572
   0.27543734  0.23163717  0.52944018
   0.69529721  0.81623355  0.50968791
   0.71587997  0.16822566  0.47850274
   0.33044425  0.48521369  0.80381230
   0.22634724  0.51926552  0.22634724
   0.80381230  0.48521369  0.33044425
   0.72952490  0.52678122  0.72952490
   0.47850274  0.16822566  0.71587997
   0.46702572  0.67964045  0.17896713
   0.52944018  0.23163717  0.27543734
   0.50968791  0.81623355  0.69529721
   0.49265228  0.50118299  0.49265228
   0.50466613  0.99871213  0.00972178
   0.99362468  0.49233754  0.99362468
   0.00972178  0.99871213  0.50466613
   0.12755096  0.87022671  0.62382832
   0.13776184  0.10821322  0.37691256
   0.87639279  0.89414259  0.37692959
   0.90104011  0.12587347  0.63495845
   0.87310510  0.61154996  0.12084612
   0.86653004  0.38059559  0.86653004
   0.12084612  0.61154996  0.87310510
   0.10722360  0.35402542  0.10722360
   0.63495845  0.12587347  0.90104011
   0.62382832  0.87022671  0.12755096
   0.37691256  0.10821322  0.13776184
   0.37692959  0.89414259  0.87639279
   0.61372933  0.62658941  0.37347023
   0.60784904  0.36546650  0.60784904
   0.37347023  0.62658941  0.61372933
   0.36737706  0.38442964  0.36737706
   0.74002604  0.75986019  0.74002604
   0.76023299  0.25701442  0.25879069
   0.24431813  0.74818714  0.24431813
   0.25879069  0.25701442  0.76023299
   0.00315213  0.96597197  0.00315213
   0.99989667  0.49799768  0.49476645
   0.51389051  0.00927234  0.51389051
   0.49476645  0.49799768  0.99989667
Direct configuration=     4
   0.99048377  0.29047861  0.31513289
   0.96706944  0.69566056  0.69405373
   0.03860140  0.33538727  0.68945592
   0.01420997  0.80079410  0.20087284
   0.31513289  0.29047861  0.99048377
   0.20087284  0.80079410  0.01420997
   0.68945592  0.33538727  0.03860140
   0.69405373  0.69566056  0.96706944
   0.33559683  0.95067870  0.33559683
   0.16659964  0.04220761  0.82083859
   0.82547499  0.97034979  0.82547499
   0.82083859  0.04220761  0.16659964
   0.17896725  0.67964052  0.46702563
   0.27543772  0.23163644  0.52944007
   0.69529716  0.81623350  0.50968787
   0.71588025  0.16822565  0.47850277
   0.33044423  0.48521375  0.80381212
   0.22634710  0.51926537  0.22634710
   0.80381212  0.48521375  0.33044423
   0.72952480  0.52678136  0.72952480
   0.47850277  0.16822565  0.71588025
   0.46702563  0.67964052  0.17896725
   0.52944007  0.23163644  0.27543772
   0.50968787  0.81623350  0.69529716
   0.49265206  0.50118257  0.49265206
   0.50466591  0.99871175  0.00972177
   0.99362484  0.49233823  0.99362484
   0.00972177  0.99871175  0.50466591
   0.12755261  0.87022499  0.62382975
   0.13776346  0.10821445  0.37691092
   0.87639155  0.89414131  0.37692815
   0.90103886  0.12587537  0.63496019
   0.87310362  0.61155120  0.12084763
   0.86652805  0.38059365  0.86652805
   0.12084763  0.61155120  0.87310362
   0.10722474  0.35402354  0.10722474
   0.63496019  0.12587537  0.90103886
   0.62382975  0.87022499  0.12755261
   0.37691092  0.10821445  0.13776346
   0.37692815  0.89414131  0.87639155
   0.61373063  0.62659104  0.37346857
   0.60785049  0.36546471  0.60785049
   0.37346857  0.62659104  0.61373063
   0.36737557  0.38442841  0.36737557
   0.74002602  0.75986039  0.74002602
   0.76023301  0.25701451  0.25879081
   0.24431810  0.74818728  0.24431810
   0.25879081  0.25701451  0.76023301
   0.00315229  0.96597232  0.00315229
   0.99989654  0.49799791  0.49476654
   0.51389032  0.00927258  0.51389032
   0.49476654  0.49799791  0.99989654
Direct configuration=     5
   0.99048339  0.29048613  0.31514254
   0.96706830  0.69565856  0.69404563
   0.03860858  0.33539144  0.68945521
   0.01420787  0.80079526  0.20087361
   0.31514254  0.29048613  0.99048339
   0.20087361  0.80079526  0.01420787
   0.68945521  0.33539144  0.03860858
   0.69404563  0.69565856  0.96706830
   0.33559676  0.95067115  0.33559676
   0.16659954  0.04221464  0.82084153
   0.82547728  0.97035069  0.82547728
   0.82084153  0.04221464  0.16659954
   0.17896871  0.67964095  0.46702281
   0.27544778  0.23161959  0.52943978
   0.69529433  0.81623329  0.50968881
   0.71588592  0.16822492  0.47850381
   0.33044557  0.48521369  0.80380913
   0.22634255  0.51926458  0.22634255
   0.80380913  0.48521369  0.33044557
   0.72952202  0.52678564  0.72952202
   0.47850381  0.16822492  0.71588592
   0.46702281  0.67964095  0.17896871
   0.52943978  0.23161959  0.27544778
   0.50968881  0.81623329  0.69529433
   0.49265274  0.50118537  0.49265274
   0.50467238  0.99871733  0.00972768
   0.99361404  0.49232228  0.99361404
   0.00972768  0.99871733  0.50467238
   0.12755671  0.87022422  0.62382962
   0.13776304  0.10820954  0.37690761
   0.87639068  0.89413630  0.37692307
   0.90104454  0.12587713  0.63496020
   0.87309733  0.61155323  0.12085157
   0.86653057  0.38059514  0.86653057
   0.12085157  0.61155323  0.87309733
   0.10722004  0.35401808  0.10722004
   0.63496020  0.12587713  0.90104454
   0.62382962  0.87022422  0.12755671
   0.37690761  0.10820954  0.13776304
   0.37692307  0.89413630  0.87639068
   0.61372415  0.62659164  0.37346668
   0.60785140  0.36545977  0.60785140
   0.37346668  0.62659164  0.61372415
   0.36737050  0.38442511  0.36737050
   0.74002566  0.75986455  0.74002566
   0.76023245  0.25701666  0.25879447
   0.24431582  0.74818739  0.24431582
   0.25879447  0.25701666  0.76023245
   0.00315610  0.96597712  0.00315610
   0.99989403  0.49800279  0.49476842
   0.51388703  0.00927850  0.51388703
   0.49476842  0.49800279  0.99989403
Direct configuration=     6
   0.99048312  0.29049154  0.31514948
   0.96706747  0.69565712  0.69403980
   0.03861375  0.33539444  0.68945469
   0.01420636  0.80079609  0.20087417
   0.31514948  0.29049154  0.99048312
   0.20087417  0.80079609  0.01420636
   0.68945469  0.33539444  0.03861375
   0.69403980  0.69565712  0.96706747
   0.33559671  0.95066571  0.33559671
   0.16659948  0.04221971  0.82084365
   0.82547893  0.97035135  0.82547893
   0.82084365  0.04221971  0.16659948
   0.17896975  0.67964126  0.46702077
   0.27545503  0.23160745  0.52943957
   0.69529230  0.81623314  0.50968949
   0.71589000  0.16822440  0.47850456
   0.33044654  0.48521364  0.80380697
   0.22633927  0.51926401  0.22633927
   0.80380697  0.48521364  0.33044654
   0.72952001  0.52678872  0.72952001
   0.47850456  0.16822440  0.71589000
   0.46702077  0.67964126  0.17896975
   0.52943957  0.23160745  0.27545503
   0.50968949  0.81623314  0.69529230
   0.49265324  0.50118739  0.49265324
   0.50467704  0.99872134  0.00973194
   0.99360627  0.49231078  0.99360627
   0.00973194  0.99872134  0.50467704
   0.12755966  0.87022367  0.62382953
   0.13776273  0.10820600  0.37690524
   0.87639004  0.89413269  0.37691941
   0.90104864  0.12587839  0.63496021
   0.87309279  0.61155469  0.12085442
   0.86653239  0.38059622  0.86653239
   0.12085442  0.61155469  0.87309279
   0.10721665  0.35401415  0.10721665
   0.63496021  0.12587839  0.90104864
   0.62382953  0.87022367  0.12755966
   0.37690524  0.10820600  0.13776273
   0.37691941  0.89413269  0.87639004
   0.61371949  0.62659207  0.37346531
   0.60785206  0.36545621  0.60785206
   0.37346531  0.62659207  0.61371949
   0.36736685  0.38442273  0.36736685
   0.74002540  0.75986754  0.74002540
   0.76023204  0.25701821  0.25879711
   0.24431418  0.74818748  0.24431418
   0.25879711  0.25701821  0.76023204
   0.00315885  0.96598059  0.00315885
   0.99989222  0.49800630  0.49476978
   0.51388467  0.00928277  0.51388467
   0.49476978  0.49800630  0.99989222
Direct configuration=     7
   0.99048257  0.29050236  0.31516337
   0.96706583  0.69565423  0.69402814
   0.03862409  0.33540045  0.68945366
   0.01420334  0.80079775  0.20087528
   0.31516337  0.29050236  0.99048257
   0.20087528  0.80079775  0.01420334
   0.68945366  0.33540045  0.03862409
   0.69402814  0.69565423  0.96706583
   0.33559661  0.95065484  0.33559661
   0.16659934  0.04222984  0.82084789
   0.82548224  0.97035265  0.82548224
   0.82084789  0.04222984  0.16659934
   0.17897185  0.67964188  0.46701670
   0.27546952  0.23158318  0.52943914
   0.69528823  0.81623285  0.50969084
   0.71589816  0.16822335  0.47850606
   0.33044848  0.48521355  0.80380266
   0.22633271  0.51926287  0.22633271
   0.80380266  0.48521355  0.33044848
   0.72951601  0.52679488  0.72951601
   0.47850606  0.16822335  0.71589816
   0.46701670  0.67964188  0.17897185
   0.52943914  0.23158318  0.27546952
   0.50969084  0.81623285  0.69528823
   0.49265422  0.50119142  0.49265422
   0.50468636  0.99872937  0.00974045
   0.99359071  0.49228780  0.99359071
   0.00974045  0.99872937  0.50468636
   0.12756557  0.87022257  0.62382934
   0.13776211  0.10819892  0.37690048
   0.87638878  0.89412547  0.37691209
   0.90105682  0.12588093  0.63496022
   0.87308372  0.61155762  0.12086010
   0.86653601  0.38059838  0.86653601
   0.12086010  0.61155762  0.87308372
   0.10720987  0.35400630  0.10720987
   0.63496022  0.12588093  0.90105682
   0.62382934  0.87022257  0.12756557
   0.37690048  0.10819892  0.13776211
   0.37691209  0.89412547  0.87638878
   0.61371015  0.62659294  0.37346258
   0.60785337  0.36544910  0.60785337
   0.37346258  0.62659294  0.61371015
   0.36735955  0.38441797  0.36735955
   0.74002488  0.75987352  0.74002488
   0.76023124  0.25702131  0.25880238
   0.24431089  0.74818764  0.24431089
   0.25880238  0.25702131  0.76023124
   0.00316434  0.96598751  0.00316434
   0.99988861  0.49801333  0.49477249
   0.51387994  0.00929130  0.51387994
   0.49477249  0.49801333  0.99988861
Direct configuration=     8
   0.99048267  0.29050890  0.31517177
   0.96706522  0.69565260  0.69402115
   0.03863078  0.33540444  0.68945275
   0.01420188  0.80079833  0.20087541
   0.31517177  0.29050890  0.99048267
   0.20087541  0.80079833  0.01420188
   0.68945275  0.33540444  0.03863078
   0.69402115  0.69565260  0.96706522
   0.33559655  0.95064831  0.33559655
   0.16659959  0.04223545  0.82085079
   0.82548437  0.97035321  0.82548437
   0.82085079  0.04223545  0.16659959
   0.17897269  0.67964230  0.46701405
   0.27547896  0.23156835  0.52943844
   0.69528661  0.81623287  0.50969074
   0.71590309  0.16822257  0.47850684
   0.33044931  0.48521414  0.80380004
   0.22632840  0.51926221  0.22632840
   0.80380004  0.48521414  0.33044931
   0.72951359  0.52679821  0.72951359
   0.47850684  0.16822257  0.71590309
   0.46701405  0.67964230  0.17897269
   0.52943844  0.23156835  0.27547896
   0.50969074  0.81623287  0.69528661
   0.49265224  0.50118854  0.49265224
   0.50468553  0.99872745  0.00974181
   0.99358956  0.49228882  0.99358956
   0.00974181  0.99872745  0.50468553
   0.12756842  0.87022309  0.62382922
   0.13776176  0.10819567  0.37689785
   0.87639146  0.89412521  0.37691320
   0.90106117  0.12588332  0.63496131
   0.87308195  0.61155476  0.12085826
   0.86653242  0.38059502  0.86653242
   0.12085826  0.61155476  0.87308195
   0.10720549  0.35400174  0.10720549
   0.63496131  0.12588332  0.90106117
   0.62382922  0.87022309  0.12756842
   0.37689785  0.10819567  0.13776176
   0.37691320  0.89412521  0.87639146
   0.61370574  0.62659342  0.37346130
   0.60785278  0.36544744  0.60785278
   0.37346130  0.62659342  0.61370574
   0.36735834  0.38441691  0.36735834
   0.74002461  0.75987689  0.74002461
   0.76023065  0.25702306  0.25880562
   0.24430891  0.74818723  0.24430891
   0.25880562  0.25702306  0.76023065
   0.00316726  0.96599205  0.00316726
   0.99988616  0.49801751  0.49477425
   0.51387705  0.00929659  0.51387705
   0.49477425  0.49801751  0.99988616
Direct configuration=     9
   0.99048299  0.29052849  0.31519695
   0.96706342  0.69564768  0.69400019
   0.03865084  0.33541643  0.68945002
   0.01419749  0.80080005  0.20087580
   0.31519695  0.29052849  0.99048299
   0.20087580  0.80080005  0.01419749
   0.68945002  0.33541643  0.03865084
   0.69400019  0.69564768  0.96706342
   0.33559636  0.95062873  0.33559636
   0.16660036  0.04225227  0.82085950
   0.82549076  0.97035489  0.82549076
   0.82085950  0.04225227  0.16660036
   0.17897520  0.67964354  0.46700609
   0.27550726  0.23152384  0.52943635
   0.69528174  0.81623295  0.50969044
   0.71591785  0.16822025  0.47850915
   0.33045183  0.48521589  0.80379219
   0.22631550  0.51926023  0.22631550
   0.80379219  0.48521589  0.33045183
   0.72950632  0.52680821  0.72950632
   0.47850915  0.16822025  0.71591785
   0.46700609  0.67964354  0.17897520
   0.52943635  0.23152384  0.27550726
   0.50969044  0.81623295  0.69528174
   0.49264629  0.50117988  0.49264629
   0.50468303  0.99872167  0.00974590
   0.99358612  0.49229187  0.99358612
   0.00974590  0.99872167  0.50468303
   0.12757698  0.87022464  0.62382883
   0.13776072  0.10818591  0.37688994
   0.87639948  0.89412444  0.37691654
   0.90107422  0.12589048  0.63496456
   0.87307664  0.61154619  0.12085274
   0.86652165  0.38058494  0.86652165
   0.12085274  0.61154619  0.87307664
   0.10719233  0.35398807  0.10719233
   0.63496456  0.12589048  0.90107422
   0.62382883  0.87022464  0.12757698
   0.37688994  0.10818591  0.13776072
   0.37691654  0.89412444  0.87639948
   0.61369250  0.62659487  0.37345745
   0.60785100  0.36544245  0.60785100
   0.37345745  0.62659487  0.61369250
   0.36735471  0.38441376  0.36735471
   0.74002380  0.75988698  0.74002380
   0.76022887  0.25702833  0.25881533
   0.24430296  0.74818597  0.24430296
   0.25881533  0.25702833  0.76022887
   0.00317600  0.96600566  0.00317600
   0.99987884  0.49803002  0.49477954
   0.51386841  0.00931244  0.51386841
   0.49477954  0.49803002  0.99987884
Direct configuration=    10
   0.99048362  0.29056768  0.31524732
   0.96705982  0.69563786  0.69395826
   0.03869095  0.33544039  0.68944456
   0.01418871  0.80080350  0.20087658
   0.31524732  0.29056768  0.99048362
   0.20087658  0.80080350  0.01418871
   0.68944456  0.33544039  0.03869095
   0.69395826  0.69563786  0.96705982
   0.33559599  0.95058958  0.33559599
   0.16660189  0.04228591  0.82087692
   0.82550353  0.97035823  0.82550353
   0.82087692  0.04228591  0.16660189
   0.17898022  0.67964604  0.46699017
   0.27556388  0.23143481  0.52943216
   0.69527200  0.81623311  0.50968983
   0.71594739  0.16821561  0.47851379
   0.33045686  0.48521940  0.80377647
   0.22628969  0.51925627  0.22628969
   0.80377647  0.48521940  0.33045686
   0.72949179  0.52682819  0.72949179
   0.47851379  0.16821561  0.71594739
   0.46699017  0.67964604  0.17898022
   0.52943216  0.23143481  0.27556388
   0.50968983  0.81623311  0.69527200
   0.49263439  0.50116256  0.49263439
   0.50467804  0.99871011  0.00975407
   0.99357923  0.49229798  0.99357923
   0.00975407  0.99871011  0.50467804
   0.12759409  0.87022774  0.62382807
   0.13775865  0.10816640  0.37687413
   0.87641554  0.89412289  0.37692322
   0.90110033  0.12590482  0.63497107
   0.87306602  0.61152906  0.12084169
   0.86650011  0.38056479  0.86650011
   0.12084169  0.61152906  0.87306602
   0.10716601  0.35396073  0.10716601
   0.63497107  0.12590482  0.90110033
   0.62382807  0.87022774  0.12759409
   0.37687413  0.10816640  0.13775865
   0.37692322  0.89412289  0.87641554
   0.61366603  0.62659778  0.37344977
   0.60784745  0.36543247  0.60784745
   0.37344977  0.62659778  0.61366603
   0.36734746  0.38440745  0.36734746
   0.74002218  0.75990717  0.74002218
   0.76022533  0.25703886  0.25883474
   0.24429107  0.74818347  0.24429107
   0.25883474  0.25703886  0.76022533
   0.00319349  0.96603289  0.00319349
   0.99986419  0.49805506  0.49479012
   0.51385111  0.00934416  0.51385111
   0.49479012  0.49805506  0.99986419
Direct configuration=    11
   0.99048489  0.29064605  0.31534806
   0.96705261  0.69561821  0.69387442
   0.03877118  0.33548832  0.68943364
   0.01417114  0.80081041  0.20087814
   0.31534806  0.29064605  0.99048489
   0.20087814  0.80081041  0.01417114
   0.68943364  0.33548832  0.03877118
   0.69387442  0.69561821  0.96705261
   0.33559524  0.95051126  0.33559524
   0.16660495  0.04235320  0.82091176
   0.82552908  0.97036493  0.82552908
   0.82091176  0.04235320  0.16660495
   0.17899026  0.67965102  0.46695833
   0.27567710  0.23125677  0.52942379
   0.69525253  0.81623342  0.50968862
   0.71600645  0.16820633  0.47852306
   0.33046692  0.48522642  0.80374504
   0.22623807  0.51924836  0.22623807
   0.80374504  0.48522642  0.33046692
   0.72946273  0.52686816  0.72946273
   0.47852306  0.16820633  0.71600645
   0.46695833  0.67965102  0.17899026
   0.52942379  0.23125677  0.27567710
   0.50968862  0.81623342  0.69525253
   0.49261060  0.50112794  0.49261060
   0.50466805  0.99868700  0.00977041
   0.99356545  0.49231020  0.99356545
   0.00977041  0.99868700  0.50466805
   0.12762831  0.87023393  0.62382655
   0.13775449  0.10812738  0.37684252
   0.87644765  0.89411979  0.37693658
   0.90115254  0.12593349  0.63498410
   0.87304477  0.61149478  0.12081959
   0.86645703  0.38052448  0.86645703
   0.12081959  0.61149478  0.87304477
   0.10711338  0.35390604  0.10711338
   0.63498410  0.12593349  0.90115254
   0.62382655  0.87023393  0.12762831
   0.37684252  0.10812738  0.13775449
   0.37693658  0.89411979  0.87644765
   0.61361308  0.62660360  0.37343440
   0.60784035  0.36541252  0.60784035
   0.37343440  0.62660360  0.61361308
   0.36733294  0.38439482  0.36733294
   0.74001895  0.75994754  0.74001895
   0.76021825  0.25705993  0.25887357
   0.24426729  0.74817846  0.24426729
   0.25887357  0.25705993  0.76021825
   0.00322847  0.96608735  0.00322847
   0.99983489  0.49810513  0.49481128
   0.51381653  0.00940759  0.51381653
   0.49481128  0.49810513  0.99983489
Direct configuration=    12
   0.99048818  0.29066172  0.31536970
   0.96705153  0.69561384  0.69385601
   0.03878697  0.33549967  0.68943208
   0.01416736  0.80081096  0.20087567
   0.31536970  0.29066172  0.99048818
   0.20087567  0.80081096  0.01416736
   0.68943208  0.33549967  0.03878697
   0.69385601  0.69561384  0.96705153
   0.33559470  0.95049703  0.33559470
   0.16660519  0.04236702  0.82092000
   0.82553525  0.97036904  0.82553525
   0.82092000  0.04236702  0.16660519
   0.17899140  0.67965235  0.46695150
   0.27570604  0.23121522  0.52942086
   0.69525061  0.81623343  0.50968499
   0.71601964  0.16820524  0.47852771
   0.33046958  0.48523059  0.80373568
   0.22622675  0.51924356  0.22622675
   0.80373568  0.48523059  0.33046958
   0.72945698  0.52687325  0.72945698
   0.47852771  0.16820524  0.71601964
   0.46695150  0.67965235  0.17899140
   0.52942086  0.23121522  0.27570604
   0.50968499  0.81623343  0.69525061
   0.49260591  0.50111929  0.49260591
   0.50467323  0.99869071  0.00977276
   0.99355542  0.49229603  0.99355542
   0.00977276  0.99869071  0.50467323
   0.12763528  0.87023389  0.62382778
   0.13775522  0.10812411  0.37683345
   0.87644476  0.89411609  0.37694100
   0.90116808  0.12593357  0.63498274
   0.87303872  0.61149189  0.12081484
   0.86645314  0.38052771  0.86645314
   0.12081484  0.61149189  0.87303872
   0.10710535  0.35389645  0.10710535
   0.63498274  0.12593357  0.90116808
   0.62382778  0.87023389  0.12763528
   0.37683345  0.10812411  0.13775522
   0.37694100  0.89411609  0.87644476
   0.61360706  0.62660429  0.37343132
   0.60783568  0.36541558  0.60783568
   0.37343132  0.62660429  0.61360706
   0.36732748  0.38438620  0.36732748
   0.74001863  0.75995560  0.74001863
   0.76021642  0.25706381  0.25888400
   0.24426056  0.74817294  0.24426056
   0.25888400  0.25706381  0.76021642
   0.00323520  0.96609828  0.00323520
   0.99982814  0.49811616  0.49481447
   0.51380894  0.00941997  0.51380894
   0.49481447  0.49811616  0.99982814
Direct configuration=    13
   0.99049808  0.29070871  0.31543461
   0.96704828  0.69560072  0.69380079
   0.03883434  0.33553373  0.68942739
   0.01415601  0.80081263  0.20086824
   0.31543461  0.29070871  0.99049808
   0.20086824  0.80081263  0.01415601
   0.68942739  0.33553373  0.03883434
   0.69380079  0.69560072  0.96704828
   0.33559307  0.95045432  0.33559307
   0.16660590  0.04240847  0.82094474
   0.82555375  0.97038137  0.82555375
   0.82094474  0.04240847  0.16660590
   0.17899481  0.67965632  0.46693102
   0.27579286  0.23109057  0.52941206
   0.69524488  0.81623346  0.50967412
   0.71605921  0.16820194  0.47854165
   0.33047755  0.48524312  0.80370761
   0.22619278  0.51922915  0.22619278
   0.80370761  0.48524312  0.33047755
   0.72943970  0.52688849  0.72943970
   0.47854165  0.16820194  0.71605921
   0.46693102  0.67965632  0.17899481
   0.52941206  0.23109057  0.27579286
   0.50967412  0.81623346  0.69524488
   0.49259186  0.50109337  0.49259186
   0.50468876  0.99870184  0.00977981
   0.99352535  0.49225353  0.99352535
   0.00977981  0.99870184  0.50468876
   0.12765620  0.87023376  0.62383148
   0.13775742  0.10811428  0.37680627
   0.87643612  0.89410500  0.37695429
   0.90121468  0.12593381  0.63497869
   0.87302060  0.61148322  0.12080057
   0.86644150  0.38053741  0.86644150
   0.12080057  0.61148322  0.87302060
   0.10708126  0.35386769  0.10708126
   0.63497869  0.12593381  0.90121468
   0.62383148  0.87023376  0.12765620
   0.37680627  0.10811428  0.13775742
   0.37695429  0.89410500  0.87643612
   0.61358902  0.62660636  0.37342209
   0.60782166  0.36542475  0.60782166
   0.37342209  0.62660636  0.61358902
   0.36731112  0.38436033  0.36731112
   0.74001769  0.75997979  0.74001769
   0.76021092  0.25707542  0.25891530
   0.24424039  0.74815637  0.24424039
   0.25891530  0.25707542  0.76021092
   0.00325538  0.96613110  0.00325538
   0.99980790  0.49814925  0.49482404
   0.51378617  0.00945714  0.51378617
   0.49482404  0.49814925  0.99980790
Direct configuration=    14
   0.99051788  0.29080268  0.31556444
   0.96704179  0.69557449  0.69369036
   0.03892908  0.33560185  0.68941801
   0.01413331  0.80081596  0.20085337
   0.31556444  0.29080268  0.99051788
   0.20085337  0.80081596  0.01413331
   0.68941801  0.33560185  0.03892908
   0.69369036  0.69557449  0.96704179
   0.33558981  0.95036891  0.33558981
   0.16660734  0.04249136  0.82099420
   0.82559076  0.97040601  0.82559076
   0.82099420  0.04249136  0.16660734
   0.17900162  0.67966427  0.46689007
   0.27596650  0.23084126  0.52939448
   0.69523340  0.81623353  0.50965237
   0.71613835  0.16819534  0.47856955
   0.33049348  0.48526818  0.80365146
   0.22612485  0.51920033  0.22612485
   0.80365146  0.48526818  0.33049348
   0.72940515  0.52691898  0.72940515
   0.47856955  0.16819534  0.71613835
   0.46689007  0.67966427  0.17900162
   0.52939448  0.23084126  0.27596650
   0.50965237  0.81623353  0.69523340
   0.49256376  0.50104151  0.49256376
   0.50471981  0.99872411  0.00979392
   0.99346520  0.49216853  0.99346520
   0.00979392  0.99872411  0.50471981
   0.12769803  0.87023350  0.62383888
   0.13776183  0.10809463  0.37675191
   0.87641882  0.89408280  0.37698085
   0.90130789  0.12593429  0.63497057
   0.87298434  0.61146587  0.12077203
   0.86641820  0.38055681  0.86641820
   0.12077203  0.61146587  0.87298434
   0.10703309  0.35381017  0.10703309
   0.63497057  0.12593429  0.90130789
   0.62383888  0.87023350  0.12769803
   0.37675191  0.10809463  0.13776183
   0.37698085  0.89408280  0.87641882
   0.61355293  0.62661050  0.37340363
   0.60779363  0.36544310  0.60779363
   0.37340363  0.62661050  0.61355293
   0.36727840  0.38430858  0.36727840
   0.74001580  0.76002816  0.74001580
   0.76019993  0.25709866  0.25897789
   0.24420006  0.74812324  0.24420006
   0.25897789  0.25709866  0.76019993
   0.00329575  0.96619673  0.00329575
   0.99976741  0.49821543  0.49484317
   0.51374064  0.00953148  0.51374064
   0.49484317  0.49821543  0.99976741
Direct configuration=    15
   0.99050885  0.29075983  0.31550524
   0.96704475  0.69558645  0.69374071
   0.03888588  0.33557079  0.68942229
   0.01414366  0.80081444  0.20086015
   0.31550524  0.29075983  0.99050885
   0.20086015  0.80081444  0.01414366
   0.68942229  0.33557079  0.03888588
   0.69374071  0.69558645  0.96704475
   0.33559130  0.95040785  0.33559130
   0.16660668  0.04245357  0.82097165
   0.82557389  0.97039478  0.82557389
   0.82097165  0.04245357  0.16660668
   0.17899851  0.67966065  0.46690874
   0.27588733  0.23095493  0.52940250
   0.69523863  0.81623350  0.50966228
   0.71610227  0.16819835  0.47855683
   0.33048622  0.48525676  0.80367706
   0.22615582  0.51921347  0.22615582
   0.80367706  0.48525676  0.33048622
   0.72942090  0.52690508  0.72942090
   0.47855683  0.16819835  0.71610227
   0.46690874  0.67966065  0.17899851
   0.52940250  0.23095493  0.27588733
   0.50966228  0.81623350  0.69523863
   0.49257657  0.50106515  0.49257657
   0.50470565  0.99871396  0.00978749
   0.99349263  0.49220729  0.99349263
   0.00978749  0.99871396  0.50470565
   0.12767896  0.87023362  0.62383551
   0.13775982  0.10810359  0.37677670
   0.87642671  0.89409292  0.37696874
   0.90126539  0.12593407  0.63497427
   0.87300087  0.61147378  0.12078504
   0.86642882  0.38054796  0.86642882
   0.12078504  0.61147378  0.87300087
   0.10705505  0.35383640  0.10705505
   0.63497427  0.12593407  0.90126539
   0.62383551  0.87023362  0.12767896
   0.37677670  0.10810359  0.13775982
   0.37696874  0.89409292  0.87642671
   0.61356938  0.62660861  0.37341205
   0.60780641  0.36543473  0.60780641
   0.37341205  0.62660861  0.61356938
   0.36729332  0.38433218  0.36729332