  52  52   0  16
  0.1729209E+02  0.9651992E-09  0.9651992E-09  0.9651992E-09  0.2000000E-15
  1.000000000000000E-004
  CAR 
 unknown system                          
     12.62997472    -45.30238106  301      2.05731979      1.00000000
    -45.302  0.0000E+00  0.0000E+00  0.0000E+00  0.0000E+00
    -45.109  0.0000E+00  0.0000E+00  0.0000E+00  0.0000E+00
    -44.916  0.0000E+00  0.0000E+00  0.0000E+00  0.0000E+00
    -44.723  0.0000E+00  0.0000E+00  0.0000E+00  0.0000E+00
    -44.530  0.0000E+00  0.0000E+00  0.0000E+00  0.0000E+00
    -44.337  0.0000E+00  0.0000E+00  0.0000E+00  0.0000E+00
    -44.144  0.0000E+00  0.0000E+00  0.0000E+00  0.0000E+00
    -43.951  0.0000E+00  0.0000E+00  0.0000E+00  0.0000E+00
    -43.758  0.0000E+00  0.0000E+00  0.0000E+00  0.0000E+00
    -43.564  0.0000E+00  0.0000E+00  0.0000E+00  0.0000E+00
    -43.371  0.0000E+00  0.0000E+00  0.0000E+00  0.0000E+00
    -43.178  0.0000E+00  0.0000E+00  0.0000E+00  0.0000E+00
    -42.985  0.0000E+00  0.0000E+00  0.0000E+00  0.0000E+00
    -42.792  0.1791E-10  0.1791E-10  0.3458E-11  0.3458E-11
    -42.599  0.5180E-02  0.5180E-02  0.1000E-02  0.1000E-02
    -42.406  0.2142E-01  0.2142E-01  0.5137E-02  0.5137E-02
    -42.213  0.9563E-01  0.9563E-01  0.2360E-01  0.2360E-01
    -42.020  0.1990E-02  0.1990E-02  0.2400E-01  0.2400E-01
    -41.826  0.0000E+00  0.0000E+00  0.2400E-01  0.2400E-01
    -41.633  0.0000E+00  0.0000E+00  0.2400E-01  0.2400E-01
    -41.440  0.0000E+00  0.0000E+00  0.2400E-01  0.2400E-01
    -41.247  0.0000E+00  0.0000E+00  0.2400E-01  0.2400E-01
    -41.054  0.0000E+00  0.0000E+00  0.2400E-01  0.2400E-01
    -40.861  0.0000E+00  0.0000E+00  0.2400E-01  0.2400E-01
    -40.668  0.0000E+00  0.0000E+00  0.2400E-01  0.2400E-01
    -40.475  0.0000E+00  0.0000E+00  0.2400E-01  0.2400E-01
    -40.282  0.0000E+00  0.0000E+00  0.2400E-01  0.2400E-01
    -40.088  0.0000E+00  0.0000E+00  0.2400E-01  0.2400E-01
    -39.895  0.0000E+00  0.0000E+00  0.2400E-01  0.2400E-01
    -39.702  0.0000E+00  0.0000E+00  0.2400E-01  0.2400E-01
    -39.509  0.0000E+00  0.0000E+00  0.2400E-01  0.2400E-01
    -39.316  0.0000E+00  0.0000E+00  0.2400E-01  0.2400E-01
    -39.123  0.0000E+00  0.0000E+00  0.2400E-01  0.2400E-01
    -38.930  0.0000E+00  0.0000E+00  0.2400E-01  0.2400E-01
    -38.737  0.0000E+00  0.0000E+00  0.2400E-01  0.2400E-01
    -38.544  0.0000E+00  0.0000E+00  0.2400E-01  0.2400E-01
    -38.350  0.0000E+00  0.0000E+00  0.2400E-01  0.2400E-01
    -38.157  0.0000E+00  0.0000E+00  0.2400E-01  0.2400E-01
    -37.964  0.0000E+00  0.0000E+00  0.2400E-01  0.2400E-01
    -37.771  0.0000E+00  0.0000E+00  0.2400E-01  0.2400E-01
    -37.578  0.0000E+00  0.0000E+00  0.2400E-01  0.2400E-01
    -37.385  0.0000E+00  0.0000E+00  0.2400E-01  0.2400E-01
    -37.192  0.0000E+00  0.0000E+00  0.2400E-01  0.2400E-01
    -36.999  0.0000E+00  0.0000E+00  0.2400E-01  0.2400E-01
    -36.806  0.0000E+00  0.0000E+00  0.2400E-01  0.2400E-01
    -36.613  0.0000E+00  0.0000E+00  0.2400E-01  0.2400E-01
    -36.419  0.0000E+00  0.0000E+00  0.2400E-01  0.2400E-01
    -36.226  0.0000E+00  0.0000E+00  0.2400E-01  0.2400E-01
    -36.033  0.0000E+00  0.0000E+00  0.2400E-01  0.2400E-01
    -35.840  0.0000E+00  0.0000E+00  0.2400E-01  0.2400E-01
    -35.647  0.0000E+00  0.0000E+00  0.2400E-01  0.2400E-01
    -35.454  0.0000E+00  0.0000E+00  0.2400E-01  0.2400E-01
    -35.261  0.0000E+00  0.0000E+00  0.2400E-01  0.2400E-01
    -35.068  0.0000E+00  0.0000E+00  0.2400E-01  0.2400E-01
    -34.875  0.0000E+00  0.0000E+00  0.2400E-01  0.2400E-01
    -34.681  0.0000E+00  0.0000E+00  0.2400E-01  0.2400E-01
    -34.488  0.0000E+00  0.0000E+00  0.2400E-01  0.2400E-01
    -34.295  0.0000E+00  0.0000E+00  0.2400E-01  0.2400E-01
    -34.102  0.0000E+00  0.0000E+00  0.2400E-01  0.2400E-01
    -33.909  0.0000E+00  0.0000E+00  0.2400E-01  0.2400E-01
    -33.716  0.0000E+00  0.0000E+00  0.2400E-01  0.2400E-01
    -33.523  0.0000E+00  0.0000E+00  0.2400E-01  0.2400E-01
    -33.330  0.0000E+00  0.0000E+00  0.2400E-01  0.2400E-01
    -33.137  0.0000E+00  0.0000E+00  0.2400E-01  0.2400E-01
    -32.943  0.0000E+00  0.0000E+00  0.2400E-01  0.2400E-01
    -32.750  0.0000E+00  0.0000E+00  0.2400E-01  0.2400E-01
    -32.557  0.0000E+00  0.0000E+00  0.2400E-01  0.2400E-01
    -32.364  0.0000E+00  0.0000E+00  0.2400E-01  0.2400E-01
    -32.171  0.0000E+00  0.0000E+00  0.2400E-01  0.2400E-01
    -31.978  0.0000E+00  0.0000E+00  0.2400E-01  0.2400E-01
    -31.785  0.0000E+00  0.0000E+00  0.2400E-01  0.2400E-01
    -31.592  0.0000E+00  0.0000E+00  0.2400E-01  0.2400E-01
    -31.399  0.0000E+00  0.0000E+00  0.2400E-01  0.2400E-01
    -31.206  0.0000E+00  0.0000E+00  0.2400E-01  0.2400E-01
    -31.012  0.0000E+00  0.0000E+00  0.2400E-01  0.2400E-01
    -30.819  0.0000E+00  0.0000E+00  0.2400E-01  0.2400E-01
    -30.626  0.0000E+00  0.0000E+00  0.2400E-01  0.2400E-01
    -30.433  0.0000E+00  0.0000E+00  0.2400E-01  0.2400E-01
    -30.240  0.0000E+00  0.0000E+00  0.2400E-01  0.2400E-01
    -30.047  0.0000E+00  0.0000E+00  0.2400E-01  0.2400E-01
    -29.854  0.0000E+00  0.0000E+00  0.2400E-01  0.2400E-01
    -29.661  0.0000E+00  0.0000E+00  0.2400E-01  0.2400E-01
    -29.468  0.0000E+00  0.0000E+00  0.2400E-01  0.2400E-01
    -29.274  0.0000E+00  0.0000E+00  0.2400E-01  0.2400E-01
    -29.081  0.0000E+00  0.0000E+00  0.2400E-01  0.2400E-01
    -28.888  0.0000E+00  0.0000E+00  0.2400E-01  0.2400E-01
    -28.695  0.0000E+00  0.0000E+00  0.2400E-01  0.2400E-01
    -28.502  0.0000E+00  0.0000E+00  0.2400E-01  0.2400E-01
    -28.309  0.0000E+00  0.0000E+00  0.2400E-01  0.2400E-01
    -28.116  0.0000E+00  0.0000E+00  0.2400E-01  0.2400E-01
    -27.923  0.0000E+00  0.0000E+00  0.2400E-01  0.2400E-01
    -27.730  0.0000E+00  0.0000E+00  0.2400E-01  0.2400E-01
    -27.536  0.0000E+00  0.0000E+00  0.2400E-01  0.2400E-01
    -27.343  0.0000E+00  0.0000E+00  0.2400E-01  0.2400E-01
    -27.150  0.0000E+00  0.0000E+00  0.2400E-01  0.2400E-01
    -26.957  0.0000E+00  0.0000E+00  0.2400E-01  0.2400E-01
    -26.764  0.0000E+00  0.0000E+00  0.2400E-01  0.2400E-01
    -26.571  0.0000E+00  0.0000E+00  0.2400E-01  0.2400E-01
    -26.378  0.0000E+00  0.0000E+00  0.2400E-01  0.2400E-01
    -26.185  0.0000E+00  0.0000E+00  0.2400E-01  0.2400E-01
    -25.992  0.0000E+00  0.0000E+00  0.2400E-01  0.2400E-01
    -25.798  0.0000E+00  0.0000E+00  0.2400E-01  0.2400E-01
    -25.605  0.0000E+00  0.0000E+00  0.2400E-01  0.2400E-01
    -25.412  0.0000E+00  0.0000E+00  0.2400E-01  0.2400E-01
    -25.219  0.0000E+00  0.0000E+00  0.2400E-01  0.2400E-01
    -25.026  0.0000E+00  0.0000E+00  0.2400E-01  0.2400E-01
    -24.833  0.0000E+00  0.0000E+00  0.2400E-01  0.2400E-01
    -24.640  0.0000E+00  0.0000E+00  0.2400E-01  0.2400E-01
    -24.447  0.0000E+00  0.0000E+00  0.2400E-01  0.2400E-01
    -24.254  0.0000E+00  0.0000E+00  0.2400E-01  0.2400E-01
    -24.061  0.0000E+00  0.0000E+00  0.2400E-01  0.2400E-01
    -23.867  0.0000E+00  0.0000E+00  0.2400E-01  0.2400E-01
    -23.674  0.0000E+00  0.0000E+00  0.2400E-01  0.2400E-01
    -23.481  0.0000E+00  0.0000E+00  0.2400E-01  0.2400E-01
    -23.288  0.0000E+00  0.0000E+00  0.2400E-01  0.2400E-01
    -23.095  0.0000E+00  0.0000E+00  0.2400E-01  0.2400E-01
    -22.902  0.0000E+00  0.0000E+00  0.2400E-01  0.2400E-01
    -22.709  0.0000E+00  0.0000E+00  0.2400E-01  0.2400E-01
    -22.516  0.0000E+00  0.0000E+00  0.2400E-01  0.2400E-01
    -22.323  0.0000E+00  0.0000E+00  0.2400E-01  0.2400E-01
    -22.129  0.0000E+00  0.0000E+00  0.2400E-01  0.2400E-01
    -21.936  0.0000E+00  0.0000E+00  0.2400E-01  0.2400E-01
    -21.743  0.0000E+00  0.0000E+00  0.2400E-01  0.2400E-01
    -21.550  0.0000E+00  0.0000E+00  0.2400E-01  0.2400E-01
    -21.357  0.0000E+00  0.0000E+00  0.2400E-01  0.2400E-01
    -21.164  0.0000E+00  0.0000E+00  0.2400E-01  0.2400E-01
    -20.971  0.0000E+00  0.0000E+00  0.2400E-01  0.2400E-01
    -20.778  0.0000E+00  0.0000E+00  0.2400E-01  0.2400E-01
    -20.585  0.0000E+00  0.0000E+00  0.2400E-01  0.2400E-01
    -20.391  0.0000E+00  0.0000E+00  0.2400E-01  0.2400E-01
    -20.198  0.0000E+00  0.0000E+00  0.2400E-01  0.2400E-01
    -20.005  0.0000E+00  0.0000E+00  0.2400E-01  0.2400E-01
    -19.812  0.0000E+00  0.0000E+00  0.2400E-01  0.2400E-01
    -19.619  0.0000E+00  0.0000E+00  0.2400E-01  0.2400E-01
    -19.426  0.0000E+00  0.0000E+00  0.2400E-01  0.2400E-01
    -19.233  0.0000E+00  0.0000E+00  0.2400E-01  0.2400E-01
    -19.040  0.0000E+00  0.0000E+00  0.2400E-01  0.2400E-01
    -18.847  0.0000E+00  0.0000E+00  0.2400E-01  0.2400E-01
    -18.653  0.0000E+00  0.0000E+00  0.2400E-01  0.2400E-01
    -18.460  0.0000E+00  0.0000E+00  0.2400E-01  0.2400E-01
    -18.267  0.0000E+00  0.0000E+00  0.2400E-01  0.2400E-01
    -18.074  0.0000E+00  0.0000E+00  0.2400E-01  0.2400E-01
    -17.881  0.0000E+00  0.0000E+00  0.2400E-01  0.2400E-01
    -17.688  0.0000E+00  0.0000E+00  0.2400E-01  0.2400E-01
    -17.495  0.0000E+00  0.0000E+00  0.2400E-01  0.2400E-01
    -17.302  0.0000E+00  0.0000E+00  0.2400E-01  0.2400E-01
    -17.109  0.0000E+00  0.0000E+00  0.2400E-01  0.2400E-01
    -16.916  0.0000E+00  0.0000E+00  0.2400E-01  0.2400E-01
    -16.722  0.0000E+00  0.0000E+00  0.2400E-01  0.2400E-01
    -16.529  0.0000E+00  0.0000E+00  0.2400E-01  0.2400E-01
    -16.336  0.0000E+00  0.0000E+00  0.2400E-01  0.2400E-01
    -16.143  0.0000E+00  0.0000E+00  0.2400E-01  0.2400E-01
    -15.950  0.0000E+00  0.0000E+00  0.2400E-01  0.2400E-01
    -15.757  0.0000E+00  0.0000E+00  0.2400E-01  0.2400E-01
    -15.564  0.0000E+00  0.0000E+00  0.2400E-01  0.2400E-01
    -15.371  0.0000E+00  0.0000E+00  0.2400E-01  0.2400E-01
    -15.178  0.0000E+00  0.0000E+00  0.2400E-01  0.2400E-01
    -14.984  0.0000E+00  0.0000E+00  0.2400E-01  0.2400E-01
    -14.791  0.0000E+00  0.0000E+00  0.2400E-01  0.2400E-01
    -14.598  0.0000E+00  0.0000E+00  0.2400E-01  0.2400E-01
    -14.405  0.0000E+00  0.0000E+00  0.2400E-01  0.2400E-01
    -14.212  0.0000E+00  0.0000E+00  0.2400E-01  0.2400E-01
    -14.019  0.0000E+00  0.0000E+00  0.2400E-01  0.2400E-01
    -13.826  0.0000E+00  0.0000E+00  0.2400E-01  0.2400E-01
    -13.633  0.0000E+00  0.0000E+00  0.2400E-01  0.2400E-01
    -13.440  0.0000E+00  0.0000E+00  0.2400E-01  0.2400E-01
    -13.246  0.0000E+00  0.0000E+00  0.2400E-01  0.2400E-01
    -13.053  0.6143E-03  0.6143E-03  0.2412E-01  0.2412E-01
    -12.860  0.2009E-01  0.2009E-01  0.2800E-01  0.2800E-01
    -12.667  0.3000E-02  0.3000E-02  0.2858E-01  0.2858E-01
    -12.474  0.1567E-01  0.1567E-01  0.3161E-01  0.3161E-01
    -12.281  0.2043E-02  0.2043E-02  0.3200E-01  0.3200E-01
    -12.088  0.0000E+00  0.0000E+00  0.3200E-01  0.3200E-01
    -11.895  0.0000E+00  0.0000E+00  0.3200E-01  0.3200E-01
    -11.702  0.0000E+00  0.0000E+00  0.3200E-01  0.3200E-01
    -11.509  0.0000E+00  0.0000E+00  0.3200E-01  0.3200E-01
    -11.315  0.0000E+00  0.0000E+00  0.3200E-01  0.3200E-01
    -11.122  0.0000E+00  0.0000E+00  0.3200E-01  0.3200E-01
    -10.929  0.0000E+00  0.0000E+00  0.3200E-01  0.3200E-01
    -10.736  0.0000E+00  0.0000E+00  0.3200E-01  0.3200E-01
    -10.543  0.0000E+00  0.0000E+00  0.3200E-01  0.3200E-01
    -10.350  0.4984E-08  0.4983E-08  0.3200E-01  0.3200E-01
    -10.157  0.1550E-01  0.1550E-01  0.3499E-01  0.3499E-01
     -9.964  0.2132E-01  0.2132E-01  0.3912E-01  0.3912E-01
     -9.771  0.2501E-01  0.2501E-01  0.4395E-01  0.4395E-01
     -9.577  0.2391E-03  0.2391E-03  0.4400E-01  0.4400E-01
     -9.384  0.0000E+00  0.0000E+00  0.4400E-01  0.4400E-01
     -9.191  0.0000E+00  0.0000E+00  0.4400E-01  0.4400E-01
     -8.998  0.0000E+00  0.0000E+00  0.4400E-01  0.4400E-01
     -8.805  0.0000E+00  0.0000E+00  0.4400E-01  0.4400E-01
     -8.612  0.0000E+00  0.0000E+00  0.4400E-01  0.4400E-01
     -8.419  0.1027E-09  0.1027E-09  0.4400E-01  0.4400E-01
     -8.226  0.2060E-01  0.2060E-01  0.4798E-01  0.4798E-01
     -8.033  0.1860E-04  0.1860E-04  0.4800E-01  0.4800E-01
     -7.839  0.0000E+00  0.0000E+00  0.4800E-01  0.4800E-01
     -7.646  0.0000E+00  0.0000E+00  0.4800E-01  0.4800E-01
     -7.453  0.0000E+00  0.0000E+00  0.4800E-01  0.4800E-01
     -7.260  0.0000E+00  0.0000E+00  0.4800E-01  0.4800E-01
     -7.067  0.0000E+00  0.0000E+00  0.4800E-01  0.4800E-01
     -6.874  0.0000E+00  0.0000E+00  0.4800E-01  0.4800E-01
     -6.681  0.0000E+00  0.0000E+00  0.4800E-01  0.4800E-01
     -6.488  0.0000E+00  0.0000E+00  0.4800E-01  0.4800E-01
     -6.295  0.0000E+00  0.0000E+00  0.4800E-01  0.4800E-01
     -6.101  0.2137E-02  0.2137E-02  0.4841E-01  0.4841E-01
     -5.908  0.3042E-02  0.3042E-02  0.4900E-01  0.4900E-01
     -5.715  0.6792E-03  0.6792E-03  0.4913E-01  0.4913E-01
     -5.522  0.1459E-01  0.1459E-01  0.5195E-01  0.5195E-01
     -5.329  0.2458E-03  0.2458E-03  0.5200E-01  0.5200E-01
     -5.136  0.0000E+00  0.0000E+00  0.5200E-01  0.5200E-01
     -4.943  0.0000E+00  0.0000E+00  0.5200E-01  0.5200E-01
     -4.750  0.0000E+00  0.0000E+00  0.5200E-01  0.5200E-01
     -4.557  0.0000E+00  0.0000E+00  0.5200E-01  0.5200E-01
     -4.364  0.0000E+00  0.0000E+00  0.5200E-01  0.5200E-01
     -4.170  0.0000E+00  0.0000E+00  0.5200E-01  0.5200E-01
     -3.977  0.0000E+00  0.0000E+00  0.5200E-01  0.5200E-01
     -3.784  0.0000E+00  0.0000E+00  0.5200E-01  0.5200E-01
     -3.591  0.0000E+00  0.0000E+00  0.5200E-01  0.5200E-01
     -3.398  0.0000E+00  0.0000E+00  0.5200E-01  0.5200E-01
     -3.205  0.2728E-02  0.2728E-02  0.5253E-01  0.5253E-01
     -3.012  0.1281E-01  0.1281E-01  0.5500E-01  0.5500E-01
     -2.819  0.3268E-02  0.3268E-02  0.5563E-01  0.5563E-01
     -2.626  0.1176E-01  0.1176E-01  0.5790E-01  0.5790E-01
     -2.432  0.1291E-01  0.1291E-01  0.6040E-01  0.6040E-01
     -2.239  0.1371E-01  0.1371E-01  0.6305E-01  0.6305E-01
     -2.046  0.4934E-02  0.4934E-02  0.6400E-01  0.6400E-01
     -1.853  0.0000E+00  0.0000E+00  0.6400E-01  0.6400E-01
     -1.660  0.0000E+00  0.0000E+00  0.6400E-01  0.6400E-01
     -1.467  0.3619E-02  0.3619E-02  0.6470E-01  0.6470E-01
     -1.274  0.3331E-01  0.3331E-01  0.7113E-01  0.7113E-01
     -1.081  0.1997E-01  0.1997E-01  0.7499E-01  0.7499E-01
     -0.888  0.5208E-02  0.5208E-02  0.7600E-01  0.7600E-01
     -0.694  0.6196E-12  0.6196E-12  0.7600E-01  0.7600E-01
     -0.501  0.6882E-02  0.6882E-02  0.7733E-01  0.7733E-01
     -0.308  0.1261E-01  0.1261E-01  0.7977E-01  0.7977E-01
     -0.115  0.1220E-01  0.1220E-01  0.8212E-01  0.8212E-01
      0.078  0.2712E-01  0.2712E-01  0.8736E-01  0.8736E-01
      0.271  0.2522E-01  0.2522E-01  0.9224E-01  0.9224E-01
      0.464  0.1866E-01  0.1866E-01  0.9584E-01  0.9584E-01
      0.657  0.7981E-03  0.7981E-03  0.9600E-01  0.9600E-01
      0.850  0.9830E-02  0.9830E-02  0.9790E-01  0.9790E-01
      1.044  0.2118E-01  0.2118E-01  0.1020E+00  0.1020E+00
      1.237  0.2104E-01  0.2104E-01  0.1061E+00  0.1061E+00
      1.430  0.2613E-01  0.2613E-01  0.1111E+00  0.1111E+00
      1.623  0.3048E-01  0.3048E-01  0.1170E+00  0.1170E+00
      1.816  0.1502E-01  0.1502E-01  0.1199E+00  0.1199E+00
      2.009  0.5279E-03  0.5279E-03  0.1200E+00  0.1200E+00
      2.202  0.0000E+00  0.0000E+00  0.1200E+00  0.1200E+00
      2.395  0.0000E+00  0.0000E+00  0.1200E+00  0.1200E+00
      2.588  0.0000E+00  0.0000E+00  0.1200E+00  0.1200E+00
      2.781  0.0000E+00  0.0000E+00  0.1200E+00  0.1200E+00
      2.975  0.0000E+00  0.0000E+00  0.1200E+00  0.1200E+00
      3.168  0.0000E+00  0.0000E+00  0.1200E+00  0.1200E+00
      3.361  0.0000E+00  0.0000E+00  0.1200E+00  0.1200E+00
      3.554  0.0000E+00  0.0000E+00  0.1200E+00  0.1200E+00
      3.747  0.0000E+00  0.0000E+00  0.1200E+00  0.1200E+00
      3.940  0.0000E+00  0.0000E+00  0.1200E+00  0.1200E+00
      4.133  0.0000E+00  0.0000E+00  0.1200E+00  0.1200E+00
      4.326  0.9910E-13  0.9910E-13  0.1200E+00  0.1200E+00
      4.519  0.5063E-02  0.5063E-02  0.1210E+00  0.1210E+00
      4.713  0.9288E-04  0.9288E-04  0.1210E+00  0.1210E+00
      4.906  0.0000E+00  0.0000E+00  0.1210E+00  0.1210E+00
      5.099  0.3176E-13  0.3176E-13  0.1210E+00  0.1210E+00
      5.292  0.5270E-02  0.5270E-02  0.1220E+00  0.1220E+00
      5.485  0.1025E-01  0.1025E-01  0.1240E+00  0.1240E+00
      5.678  0.0000E+00  0.0000E+00  0.1240E+00  0.1240E+00
      5.871  0.2634E-03  0.2634E-03  0.1241E+00  0.1241E+00
      6.064  0.1249E-01  0.1249E-01  0.1265E+00  0.1265E+00
      6.257  0.1396E-01  0.1396E-01  0.1292E+00  0.1292E+00
      6.451  0.4478E-02  0.4478E-02  0.1300E+00  0.1300E+00
      6.644  0.1076E-01  0.1076E-01  0.1321E+00  0.1321E+00
      6.837  0.7325E-02  0.7325E-02  0.1335E+00  0.1335E+00
      7.030  0.1286E-01  0.1286E-01  0.1360E+00  0.1360E+00
      7.223  0.5105E-02  0.5105E-02  0.1370E+00  0.1370E+00
      7.416  0.3883E-02  0.3883E-02  0.1377E+00  0.1377E+00
      7.609  0.9498E-02  0.9498E-02  0.1396E+00  0.1396E+00
      7.802  0.1212E-01  0.1212E-01  0.1419E+00  0.1419E+00
      7.995  0.1038E-01  0.1038E-01  0.1439E+00  0.1439E+00
      8.188  0.1297E-01  0.1297E-01  0.1464E+00  0.1464E+00
      8.382  0.1482E-01  0.1482E-01  0.1493E+00  0.1493E+00
      8.575  0.1691E-01  0.1691E-01  0.1526E+00  0.1526E+00
      8.768  0.1547E-01  0.1547E-01  0.1555E+00  0.1555E+00
      8.961  0.1534E-01  0.1534E-01  0.1585E+00  0.1585E+00
      9.154  0.1596E-01  0.1596E-01  0.1616E+00  0.1616E+00
      9.347  0.1739E-01  0.1739E-01  0.1650E+00  0.1650E+00
      9.540  0.1951E-01  0.1951E-01  0.1687E+00  0.1687E+00
      9.733  0.1720E-01  0.1726E-01  0.1720E+00  0.1721E+00
      9.926  0.1674E-01  0.1705E-01  0.1753E+00  0.1753E+00
     10.120  0.3750E-02  0.3365E-02  0.1760E+00  0.1760E+00
     10.313  0.0000E+00  0.0000E+00  0.1760E+00  0.1760E+00
     10.506  0.0000E+00  0.0000E+00  0.1760E+00  0.1760E+00
     10.699  0.0000E+00  0.0000E+00  0.1760E+00  0.1760E+00
     10.892  0.0000E+00  0.0000E+00  0.1760E+00  0.1760E+00
     11.085  0.0000E+00  0.0000E+00  0.1760E+00  0.1760E+00
     11.278  0.0000E+00  0.0000E+00  0.1760E+00  0.1760E+00
     11.471  0.0000E+00  0.0000E+00  0.1760E+00  0.1760E+00
     11.664  0.0000E+00  0.0000E+00  0.1760E+00  0.1760E+00
     11.858  0.0000E+00  0.0000E+00  0.1760E+00  0.1760E+00
     12.051  0.0000E+00  0.0000E+00  0.1760E+00  0.1760E+00
     12.244  0.0000E+00  0.0000E+00  0.1760E+00  0.1760E+00
     12.437  0.0000E+00  0.0000E+00  0.1760E+00  0.1760E+00
     12.630  0.0000E+00  0.0000E+00  0.1760E+00  0.1760E+00
