       N       E                     dE             d eps       ncg     rms          rms(c)
DAV:   1     0.159209151660E+04    0.15921E+04   -0.11378E+05  3080   0.126E+03
DAV:   2    -0.559589948612E+02   -0.16481E+04   -0.15494E+04  3840   0.362E+02
DAV:   3    -0.228058545363E+03   -0.17210E+03   -0.17003E+03  3736   0.117E+02
DAV:   4    -0.241960471321E+03   -0.13902E+02   -0.13877E+02  4776   0.336E+01
DAV:   5    -0.242179626233E+03   -0.21915E+00   -0.21905E+00  4408   0.448E+00
DAV:   6    -0.242192774985E+03   -0.13149E-01   -0.13147E-01  4688   0.115E+00
DAV:   7    -0.242193153069E+03   -0.37808E-03   -0.37806E-03  4560   0.211E-01
DAV:   8    -0.242193174617E+03   -0.21548E-04   -0.21548E-04  4608   0.610E-02
DAV:   9    -0.242193175993E+03   -0.13754E-05   -0.13752E-05  4400   0.133E-02
DAV:  10    -0.242193176053E+03   -0.60645E-07   -0.60761E-07  2632   0.427E-03    0.642E+01
RMM:  11    -0.236722768915E+03    0.54704E+01   -0.46780E+01  2816   0.193E+01    0.330E+01
RMM:  12    -0.256156809351E+03   -0.19434E+02   -0.21180E+01  2953   0.134E+01    0.202E+01
RMM:  13    -0.258638765594E+03   -0.24820E+01   -0.90663E+00  2911   0.539E+00    0.666E+00
RMM:  14    -0.258837577972E+03   -0.19881E+00   -0.19700E+00  3759   0.339E+00    0.324E+00
RMM:  15    -0.258808999078E+03    0.28579E-01   -0.33268E-01  3072   0.164E+00    0.701E-01
RMM:  16    -0.258828277112E+03   -0.19278E-01   -0.10333E-01  3074   0.882E-01    0.313E-01
RMM:  17    -0.258834290627E+03   -0.60135E-02   -0.25533E-02  3463   0.456E-01    0.171E-01
RMM:  18    -0.258835457612E+03   -0.11670E-02   -0.66490E-03  3396   0.208E-01    0.889E-02
RMM:  19    -0.258835926712E+03   -0.46910E-03   -0.19115E-03  3890   0.111E-01    0.429E-02
RMM:  20    -0.258836018847E+03   -0.92135E-04   -0.48939E-04  3846   0.484E-02    0.248E-02
RMM:  21    -0.258836035264E+03   -0.16418E-04   -0.14292E-04  3459   0.270E-02    0.102E-02
RMM:  22    -0.258836041110E+03   -0.58458E-05   -0.47045E-05  3823   0.150E-02    0.593E-03
RMM:  23    -0.258836040932E+03    0.17816E-06   -0.13608E-05  2932   0.804E-03    0.274E-03
RMM:  24    -0.258836040287E+03    0.64482E-06   -0.48958E-06  2194   0.606E-03
   1 F= -.27244723E+03 E0= -.27244723E+03  d E =-.272447E+03  mag=    -0.0004
       N       E                     dE             d eps       ncg     rms          rms(c)
DAV:   1    -0.258836042742E+03   -0.18103E-05   -0.42721E-05  3192   0.136E-02    0.174E-03
RMM:   2    -0.258836043012E+03   -0.26972E-06   -0.17691E-06  1934   0.494E-03
   2 F= -.27244723E+03 E0= -.27244723E+03  d E =-.125304E-05  mag=    -0.0001
       N       E                     dE             d eps       ncg     rms          rms(c)
DAV:   1    -0.258836044181E+03   -0.14382E-05   -0.14766E-05  3072   0.826E-03    0.798E-04
RMM:   2    -0.258836044243E+03   -0.61931E-07   -0.77312E-07  1845   0.346E-03
   3 F= -.27244723E+03 E0= -.27244723E+03  d E =-.165824E-05  mag=    -0.0000
       N       E                     dE             d eps       ncg     rms          rms(c)
DAV:   1    -0.258836046135E+03   -0.19540E-05   -0.51531E-05  3384   0.143E-02    0.111E-03
RMM:   2    -0.258836046331E+03   -0.19635E-06   -0.19793E-06  1892   0.555E-03
   4 F= -.27244723E+03 E0= -.27244723E+03  d E =-.209941E-05  mag=    -0.0000
       N       E                     dE             d eps       ncg     rms          rms(c)
DAV:   1    -0.258836048906E+03   -0.27718E-05   -0.89787E-05  3392   0.176E-02    0.114E-03
RMM:   2    -0.258836049149E+03   -0.24234E-06   -0.27291E-06  1863   0.626E-03
   5 F= -.27244723E+03 E0= -.27244723E+03  d E =-.922838E-06  mag=    -0.0000
       N       E                     dE             d eps       ncg     rms          rms(c)
DAV:   1    -0.258836051885E+03   -0.29788E-05   -0.11573E-04  3440   0.199E-02    0.126E-03
RMM:   2    -0.258836052203E+03   -0.31766E-06   -0.34871E-06  1905   0.715E-03
   6 F= -.27244723E+03 E0= -.27244723E+03  d E =-.183605E-05  mag=    -0.0000
