 vasp.6.4.1 05Apr23 (build Jun 07 2023 15:38:11) complex                        
  
 executed on             LinuxIFC date 2023.10.16  22:43:59
 running  128 mpi-ranks, with    1 threads/rank, on    1 nodes
 distrk:  each k-point on  128 cores,    1 groups
 distr:  one band on NCORE=  32 cores,    4 groups


--------------------------------------------------------------------------------------------------------


 INCAR:
   GGA = PE
   PREC = Accu
   EDIFF = 1.e-6
   EDIFFG = -1.e-3
   ENCUT = 520.
   NELM = 100
   NELMDL = -10
   LASPH = .TRUE.
   LREAL = Auto
   LMAXMIX = 4
   ISPIN = 2
   LDIAG = .TRUE.
   LPLANE = .TRUE.
   IVDW = 12
   SIGMA = 0.03
   ISMEAR = 0
   NSW = 1000    number of steps for IOM
   IBRION = 2    ionic relax: 0-MD 1-quasi-New 2-CG
   ISIF = 2    ionic relaxation + stress tensor calcn.
   LCHARG = .FALSE.
   LWAVE = .FALSE.
   ALGO = F
   KPAR = 1
   NPAR = 4
   POTIM = 0.2

 POTCAR:    PAW_PBE Li_sv_GW 25Mar2010            
 POTCAR:    PAW_PBE P_GW 19Mar2012                
 POTCAR:    PAW_PBE S_GW 19Mar2012                
 POTCAR:    PAW_PBE Cl_GW 19Mar2012               
 -----------------------------------------------------------------------------
|                                                                             |
|           W    W    AA    RRRRR   N    N  II  N    N   GGGG   !!!           |
|           W    W   A  A   R    R  NN   N  II  NN   N  G    G  !!!           |
|           W    W  A    A  R    R  N N  N  II  N N  N  G       !!!           |
|           W WW W  AAAAAA  RRRRR   N  N N  II  N  N N  G  GGG   !            |
|           WW  WW  A    A  R   R   N   NN  II  N   NN  G    G                |
|           W    W  A    A  R    R  N    N  II  N    N   GGGG   !!!           |
|                                                                             |
|     You use a magnetic or noncollinear calculation, but did not specify     |
|     the initial magnetic moment with the MAGMOM tag. Note that a            |
|     default of 1 will be used for all atoms. This ferromagnetic setup       |
|     may break the symmetry of the crystal, in particular it may rule        |
|     out finding an antiferromagnetic solution. Thence, we recommend         |
|     setting the initial magnetic moment manually or verifying carefully     |
|     that this magnetic setup is desired.                                    |
|                                                                             |
 -----------------------------------------------------------------------------

 POTCAR:    PAW_PBE Li_sv_GW 25Mar2010            
   SHA256 =  24a6ace15a582615486b36ce4dc781b048409f4015b7684ed1273ae395fa2fdc Li_sv_GW/POTCAR       
   COPYR  = (c) Copyright 25Mar2010 Georg Kresse                                                    
   COPYR  = This file is part of the software VASP. Any use, copying, and all other rights are regul
   COPYR  = If you do not have a valid VASP license, you may not use, copy or distribute this file. 
   VRHFIN =Li: 1s2s                                                                                 
   LEXCH  = PE                                                                                      
   EATOM  =   200.9989 eV,   14.7730 Ry                                                             
                                                                                                    
   TITEL  = PAW_PBE Li_sv_GW 25Mar2010                                                              
   LULTRA =        F    use ultrasoft PP ?                                                          
   IUNSCR =        0    unscreen: 0-lin 1-nonlin 2-no                                               
   RPACOR =    0.000    partial core radius                                                         
   POMASS =    7.010; ZVAL   =    3.000    mass and valenz                                          
   RCORE  =    1.500    outmost cutoff radius                                                       
   RWIGS  =    1.600; RWIGS  =    0.847    wigner-seitz radius (au A)                               
   ENMAX  =  433.699; ENMIN  =  325.274 eV                                                          
   RCLOC  =    1.003    cutoff for local pot                                                        
   LCOR   =        T    correct aug charges                                                         
   LPAW   =        T    paw PP                                                                      
   EAUG   = 1041.699                                                                                
   RMAX   =    1.536    core radius for proj-oper                                                   
   RAUG   =    1.300    factor for augmentation sphere                                              
   RDEP   =    1.520    radius for radial grids                                                     
   RDEPT  =    1.300    core radius for aug-charge                                                  
                                                                                                    
   Atomic configuration                                                                             
    4 entries                                                                                       
     n  l   j            E        occ.                                                              
     1  0  0.50       -53.3604   2.0000                                                             
     1  0  0.50       -52.0001   0.0000                                                             
     2  1  0.50        -1.5636   1.0000                                                             
     3  2  1.50        -1.3606   0.0000                                                             
   Description                                                                                      
     l       E           TYP  RCUT    TYP  RCUT                                                     
     0    -53.3603633     23  1.200                                                                 
     0    -52.0001064     23  1.200                                                                 
     0    176.8757380     23  1.300                                                                 
     1     -1.5635925     23  1.500                                                                 
     1    108.8466080     23  1.500                                                                 
     2     81.6349560     23  1.500                                                                 
  local pseudopotential read in
  kinetic energy density of atom read in
  atomic valenz-charges read in
  non local Contribution for L=           0  read in
    real space projection operators read in
  non local Contribution for L=           0  read in
    real space projection operators read in
  non local Contribution for L=           0  read in
    real space projection operators read in
  non local Contribution for L=           1  read in
    real space projection operators read in
  non local Contribution for L=           1  read in
    real space projection operators read in
  non local Contribution for L=           2  read in
    real space projection operators read in
    PAW grid and wavefunctions read in
 
   number of l-projection  operators is LMAX  =           6
   number of lm-projection operators is LMMAX =          14
 
 POTCAR:    PAW_PBE P_GW 19Mar2012                
   SHA256 =  715c28f2291d37b61637ce89646c59f66f71c8b8d8bfba631e5feb9f7b42defe P_GW/POTCAR           
   COPYR  = (c) Copyright 19Mar2012 Georg Kresse                                                    
   COPYR  = This file is part of the software VASP. Any use, copying, and all other rights are regul
   COPYR  = If you do not have a valid VASP license, you may not use, copy or distribute this file. 
   VRHFIN =P : s2p3                                                                                 
   LEXCH  = PE                                                                                      
   EATOM  =   176.0430 eV,   12.9388 Ry                                                             
                                                                                                    
   TITEL  = PAW_PBE P_GW 19Mar2012                                                                  
   LULTRA =        F    use ultrasoft PP ?                                                          
   IUNSCR =        1    unscreen: 0-lin 1-nonlin 2-no                                               
   RPACOR =    1.400    partial core radius                                                         
   POMASS =   30.974; ZVAL   =    5.000    mass and valenz                                          
   RCORE  =    2.000    outmost cutoff radius                                                       
   RWIGS  =    1.900; RWIGS  =    1.005    wigner-seitz radius (au A)                               
   ENMAX  =  255.040; ENMIN  =  191.280 eV                                                          
   ICORE  =        3    local potential                                                             
   LCOR   =        T    correct aug charges                                                         
   LPAW   =        T    paw PP                                                                      
   EAUG   =  499.732                                                                                
   DEXC   =    0.000                                                                                
   RMAX   =    2.047    core radius for proj-oper                                                   
   RAUG   =    1.300    factor for augmentation sphere                                              
   RDEP   =    2.059    radius for radial grids                                                     
   RDEPT  =    1.900    core radius for aug-charge                                                  
                                                                                                    
   Atomic configuration                                                                             
    7 entries                                                                                       
     n  l   j            E        occ.                                                              
     1  0  0.50     -2084.0982   2.0000                                                             
     2  0  0.50      -173.9859   2.0000                                                             
     2  1  1.50      -124.4865   6.0000                                                             
     3  0  0.50       -13.9692   2.0000                                                             
     3  1  0.50        -5.5067   3.0000                                                             
     3  2  1.50        -6.8029   0.0000                                                             
     4  3  2.50        -1.3606   0.0000                                                             
   Description                                                                                      
     l       E           TYP  RCUT    TYP  RCUT                                                     
     0    -13.9691528     23  1.900                                                                 
     0    102.0436950     23  1.900                                                                 
     1     -5.5066939     23  1.900                                                                 
     1    102.0436950     23  1.900                                                                 
     2     -8.1634956     23  2.000                                                                 
     2     81.6349560     23  2.000                                                                 
     3     27.2116520     23  2.000                                                                 
  local pseudopotential read in
  partial core-charges read in
  partial kinetic energy density read in
  kinetic energy density of atom read in
  atomic valenz-charges read in
  non local Contribution for L=           0  read in
    real space projection operators read in
  non local Contribution for L=           0  read in
    real space projection operators read in
  non local Contribution for L=           1  read in
    real space projection operators read in
  non local Contribution for L=           1  read in
    real space projection operators read in
  non local Contribution for L=           2  read in
    real space projection operators read in
  non local Contribution for L=           2  read in
    real space projection operators read in
    PAW grid and wavefunctions read in
 
   number of l-projection  operators is LMAX  =           6
   number of lm-projection operators is LMMAX =          18
 
 POTCAR:    PAW_PBE S_GW 19Mar2012                
   SHA256 =  357db9cfb0783579b2eebe03197c2d807131fea8ea663b1fcfb6ce2fa75af011 S_GW/POTCAR           
   COPYR  = (c) Copyright 19Mar2012 Georg Kresse                                                    
   COPYR  = This file is part of the software VASP. Any use, copying, and all other rights are regul
   COPYR  = If you do not have a valid VASP license, you may not use, copy or distribute this file. 
   VRHFIN =S : s2p4                                                                                 
   LEXCH  = PE                                                                                      
   EATOM  =   276.8230 eV,   20.3459 Ry                                                             
                                                                                                    
   TITEL  = PAW_PBE S_GW 19Mar2012                                                                  
   LULTRA =        F    use ultrasoft PP ?                                                          
   IUNSCR =        1    unscreen: 0-lin 1-nonlin 2-no                                               
   RPACOR =    1.400    partial core radius                                                         
   POMASS =   32.066; ZVAL   =    6.000    mass and valenz                                          
   RCORE  =    1.900    outmost cutoff radius                                                       
   RWIGS  =    1.900; RWIGS  =    1.005    wigner-seitz radius (au A)                               
   ENMAX  =  258.689; ENMIN  =  194.016 eV                                                          
   ICORE  =        3    local potential                                                             
   LCOR   =        T    correct aug charges                                                         
   LPAW   =        T    paw PP                                                                      
   EAUG   =  488.319                                                                                
   DEXC   =    0.000                                                                                
   RMAX   =    1.942    core radius for proj-oper                                                   
   RAUG   =    1.300    factor for augmentation sphere                                              
   RDEP   =    1.954    radius for radial grids                                                     
   RDEPT  =    1.900    core radius for aug-charge                                                  
                                                                                                    
   Atomic configuration                                                                             
    7 entries                                                                                       
     n  l   j            E        occ.                                                              
     1  0  0.50     -2405.8406   2.0000                                                             
     2  0  0.50      -211.7007   2.0000                                                             
     2  1  1.50      -156.4958   6.0000                                                             
     3  0  0.50       -17.2562   2.0000                                                             
     3  1  0.50        -7.0085   4.0000                                                             
     3  2  1.50        -8.1635   0.0000                                                             
     4  3  2.50        -1.3606   0.0000                                                             
   Description                                                                                      
     l       E           TYP  RCUT    TYP  RCUT                                                     
     0    -17.2561639     23  1.700                                                                 
     0     88.4378690     23  1.900                                                                 
     1     -7.0085399     23  1.900                                                                 
     1     88.4378690     23  1.900                                                                 
     2    -10.8846608     23  1.900                                                                 
     2     54.4233040     23  1.900                                                                 
     3     27.2116520     23  1.800                                                                 
  local pseudopotential read in
  partial core-charges read in
  partial kinetic energy density read in
  kinetic energy density of atom read in
  atomic valenz-charges read in
  non local Contribution for L=           0  read in
    real space projection operators read in
  non local Contribution for L=           0  read in
    real space projection operators read in
  non local Contribution for L=           1  read in
    real space projection operators read in
  non local Contribution for L=           1  read in
    real space projection operators read in
  non local Contribution for L=           2  read in
    real space projection operators read in
  non local Contribution for L=           2  read in
    real space projection operators read in
    PAW grid and wavefunctions read in
 
   number of l-projection  operators is LMAX  =           6
   number of lm-projection operators is LMMAX =          18
 
 POTCAR:    PAW_PBE Cl_GW 19Mar2012               
   SHA256 =  3ef3b3169d6a9a89979f58b4cf17d927a58518fc660d8883d88cacaee8175441 Cl_GW/POTCAR          
   COPYR  = (c) Copyright 19Mar2012 Georg Kresse                                                    
   COPYR  = This file is part of the software VASP. Any use, copying, and all other rights are regul
   COPYR  = If you do not have a valid VASP license, you may not use, copy or distribute this file. 
   VRHFIN =Cl: s2p5                                                                                 
   LEXCH  = PE                                                                                      
   EATOM  =   409.7259 eV,   30.1140 Ry                                                             
                                                                                                    
   TITEL  = PAW_PBE Cl_GW 19Mar2012                                                                 
   LULTRA =        F    use ultrasoft PP ?                                                          
   IUNSCR =        1    unscreen: 0-lin 1-nonlin 2-no                                               
   RPACOR =    1.400    partial core radius                                                         
   POMASS =   35.453; ZVAL   =    7.000    mass and valenz                                          
   RCORE  =    1.900    outmost cutoff radius                                                       
   RWIGS  =    1.900; RWIGS  =    1.005    wigner-seitz radius (au A)                               
   ENMAX  =  262.472; ENMIN  =  196.854 eV                                                          
   ICORE  =        3    local potential                                                             
   LCOR   =        T    correct aug charges                                                         
   LPAW   =        T    paw PP                                                                      
   EAUG   =  456.703                                                                                
   DEXC   =    0.000                                                                                
   RMAX   =    1.945    core radius for proj-oper                                                   
   RAUG   =    1.300    factor for augmentation sphere                                              
   RDEP   =    2.020    radius for radial grids                                                     
   RDEPT  =    1.900    core radius for aug-charge                                                  
                                                                                                    
   Atomic configuration                                                                             
    7 entries                                                                                       
     n  l   j            E        occ.                                                              
     1  0  0.50     -2751.1850   2.0000                                                             
     2  0  0.50      -252.6861   2.0000                                                             
     2  1  1.50      -191.6157   6.0000                                                             
     3  0  0.50       -20.6916   2.0000                                                             
     3  1  0.50        -8.5949   5.0000                                                             
     3  2  1.50        -9.5241   0.0000                                                             
     4  3  2.50        -9.5241   0.0000                                                             
   Description                                                                                      
     l       E           TYP  RCUT    TYP  RCUT                                                     
     0    -20.6915657     23  1.700                                                                 
     0     95.2407820     23  1.800                                                                 
     1     -8.5948577     23  1.900                                                                 
     1     95.2407820     23  1.900                                                                 
     2    -10.8846608     23  1.900                                                                 
     2     54.4233040     23  1.900                                                                 
     3     27.2116520     23  1.900                                                                 
  local pseudopotential read in
  partial core-charges read in
  partial kinetic energy density read in
  kinetic energy density of atom read in
  atomic valenz-charges read in
  non local Contribution for L=           0  read in
    real space projection operators read in
  non local Contribution for L=           0  read in
    real space projection operators read in
  non local Contribution for L=           1  read in
    real space projection operators read in
  non local Contribution for L=           1  read in
    real space projection operators read in
  non local Contribution for L=           2  read in
    real space projection operators read in
  non local Contribution for L=           2  read in
    real space projection operators read in
    PAW grid and wavefunctions read in
 
   number of l-projection  operators is LMAX  =           6
   number of lm-projection operators is LMMAX =          18
 
 Optimization of the real space projectors (new method)

 maximal supplied QI-value         = 25.13
 optimisation between [QCUT,QGAM] = [ 11.56, 23.12] = [ 37.43,149.72] Ry 
 Optimized for a Real-space Cutoff    1.28 Angstroem

   l    n(q)    QCUT    max X(q) W(low)/X(q) W(high)/X(q)  e(spline) 
   0      9    11.561    87.733    0.11E-03    0.32E-04    0.56E-06
   0      9    11.561    82.800    0.11E-03    0.35E-04    0.56E-06
   0      9    11.561     2.509    0.22E-03    0.42E-04    0.79E-06
   1      8    11.561    12.580    0.94E-04    0.26E-03    0.21E-06
   1      8    11.561     1.319    0.33E-04    0.15E-03    0.19E-06
   2      8    11.561     1.993    0.36E-04    0.89E-04    0.26E-06
 Optimization of the real space projectors (new method)

 maximal supplied QI-value         = 18.90
 optimisation between [QCUT,QGAM] = [ 11.53, 23.24] = [ 37.21,151.29] Ry 
 Optimized for a Real-space Cutoff    1.21 Angstroem

   l    n(q)    QCUT    max X(q) W(low)/X(q) W(high)/X(q)  e(spline) 
   0      8    11.527     8.355    0.73E-04    0.70E-04    0.26E-07
   0      8    11.527     1.401    0.17E-03    0.17E-03    0.63E-07
   1      8    11.527     4.747    0.13E-03    0.17E-03    0.11E-06
   1      8    11.527     2.025    0.16E-03    0.18E-03    0.12E-06
   2      7    11.527     3.169    0.51E-04    0.25E-03    0.60E-07
   2      7    11.527     3.441    0.82E-04    0.22E-03    0.14E-06
 Optimization of the real space projectors (new method)

 maximal supplied QI-value         = 19.84
 optimisation between [QCUT,QGAM] = [ 11.51, 23.22] = [ 37.09,150.92] Ry 
 Optimized for a Real-space Cutoff    1.49 Angstroem

   l    n(q)    QCUT    max X(q) W(low)/X(q) W(high)/X(q)  e(spline) 
   0     10    11.508     7.541    0.34E-04    0.13E-04    0.69E-07
   0     10    11.508     1.809    0.49E-04    0.27E-04    0.14E-06
   1     10    11.508     4.107    0.27E-05    0.41E-05    0.14E-06
   1     10    11.508     2.196    0.26E-05    0.25E-05    0.22E-06
   2      9    11.508     4.265    0.18E-03    0.11E-03    0.81E-06
   2      9    11.508     1.925    0.97E-04    0.76E-04    0.47E-06
 Optimization of the real space projectors (new method)

 maximal supplied QI-value         = 19.84
 optimisation between [QCUT,QGAM] = [ 11.51, 23.22] = [ 37.09,150.92] Ry 
 Optimized for a Real-space Cutoff    1.21 Angstroem

   l    n(q)    QCUT    max X(q) W(low)/X(q) W(high)/X(q)  e(spline) 
   0      8    11.508     6.761    0.57E-04    0.57E-04    0.35E-07
   0      8    11.508     1.642    0.14E-03    0.14E-03    0.91E-07
   1      8    11.508     3.519    0.20E-04    0.72E-04    0.47E-07
   1      8    11.508     2.150    0.27E-04    0.11E-03    0.89E-07
   2      7    11.508     2.976    0.19E-03    0.33E-03    0.16E-06
   2      7    11.508     1.494    0.14E-03    0.29E-03    0.14E-06
  PAW_PBE Li_sv_GW 25Mar2010            :
 energy of atom  1       EATOM= -200.9989
 kinetic energy error for atom=    0.0127 (will be added to EATOM!!)
  PAW_PBE P_GW 19Mar2012                :
 energy of atom  2       EATOM= -176.0430
 kinetic energy error for atom=    0.0011 (will be added to EATOM!!)
  PAW_PBE S_GW 19Mar2012                :
 energy of atom  3       EATOM= -276.8230
 kinetic energy error for atom=    0.0024 (will be added to EATOM!!)
  PAW_PBE Cl_GW 19Mar2012               :
 energy of atom  4       EATOM= -409.7259
 kinetic energy error for atom=    0.0030 (will be added to EATOM!!)
 
 
 POSCAR: Li24 P4 S20 Cl4
  positions in direct lattice
  velocities in cartesian coordinates
 exchange correlation table for  LEXCH =        8
   RHO(1)=    0.500       N(1)  =     2000
   RHO(2)=  100.500       N(2)  =     4000

 VTST: version 4.1, (05/19/21)

 CHAIN: initializing optimizer
 
 OPT: Using VASP Conjugate-Gradient optimizer
 CHAIN: Read ICHAIN            0
 
 POSCAR: Li24 P4 S20 Cl4
  positions in direct lattice
  velocities in cartesian coordinates
 


--------------------------------------------------------------------------------------------------------


 ion  position               nearest neighbor table
   1  0.988  0.296  0.291-
   2  0.985  0.821  0.782-
   3  0.045  0.187  0.857-
   4  0.018  0.781  0.217-
   5  0.337  0.284  0.976-
   6  0.210  0.828  0.017-
   7  0.692  0.359  0.037-
   8  0.792  0.790  0.973-
   9  0.320  0.947  0.337-
  10  0.312  0.015  0.686-
  11  0.716  0.992  0.731-
  12  0.827  0.047  0.177-
  13  0.184  0.660  0.459-
  14  0.177  0.305  0.537-
  15  0.670  0.812  0.516-
  16  0.732  0.205  0.484-
  17  0.290  0.478  0.782-
  18  0.286  0.507  0.192-
  19  0.800  0.487  0.328-
  20  0.851  0.542  0.670-
  21  0.491  0.226  0.696-
  22  0.478  0.700  0.159-
  23  0.525  0.196  0.292-
  24  0.546  0.665  0.806-
  25  0.501  0.506  0.491-  41 2.05  43 2.05  44 2.05  42 2.06
  26  0.506  0.003  0.003-  38 2.05  39 2.05  40 2.05  37 2.06
  27  0.999  0.497  0.988-  34 2.04  35 2.05  33 2.06  36 2.07
  28  0.008  0.998  0.498-  31 2.05  30 2.05  29 2.06  32 2.06
  29  0.138  0.864  0.599-  28 2.06
  30  0.133  0.117  0.373-  28 2.05
  31  0.869  0.892  0.378-  28 2.05
  32  0.906  0.123  0.638-  28 2.06
  33  0.872  0.608  0.119-  27 2.06
  34  0.876  0.380  0.862-  27 2.04
  35  0.120  0.629  0.873-  27 2.05
  36  0.121  0.358  0.095-  27 2.07
  37  0.621  0.147  0.896-  26 2.06
  38  0.633  0.890  0.130-  26 2.05
  39  0.364  0.098  0.129-  26 2.05
  40  0.404  0.871  0.870-  26 2.05
  41  0.610  0.632  0.359-  25 2.05
  42  0.640  0.401  0.614-  25 2.06
  43  0.382  0.631  0.615-  25 2.05
  44  0.375  0.372  0.384-  25 2.05
  45  0.758  0.758  0.738-
  46  0.753  0.261  0.253-
  47  0.251  0.738  0.239-
  48  0.261  0.242  0.753-
  49  0.993  0.962  0.997-
  50  0.006  0.484  0.475-
  51  0.525  0.033  0.519-
  52  0.476  0.499  0.996-
 
  LATTYP: Found a simple cubic cell.
 ALAT       =     9.6519922897
  
  Lattice vectors:
  
 A1 = (   9.6519922897,   0.0000000000,   0.0000000000)
 A2 = (   0.0000000000,   9.6519922897,   0.0000000000)
 A3 = (   0.0000000000,   0.0000000000,   9.6519922897)


Analysis of symmetry for initial positions (statically):
=====================================================================
 Subroutine PRICEL returns:
 Original cell was already a primitive cell.
 

 Routine SETGRP: Setting up the symmetry group for a 
 simple cubic supercell.


 Subroutine GETGRP returns: Found  1 space group operations
 (whereof  1 operations were pure point group operations)
 out of a pool of 48 trial point group operations.


The static configuration has the point symmetry C_1 .


Analysis of symmetry for dynamics (positions and initial velocities):
=====================================================================
 Subroutine PRICEL returns:
 Original cell was already a primitive cell.
 

 Routine SETGRP: Setting up the symmetry group for a 
 simple cubic supercell.


 Subroutine GETGRP returns: Found  1 space group operations
 (whereof  1 operations were pure point group operations)
 out of a pool of 48 trial point group operations.


The dynamic configuration has the point symmetry C_1 .


Analysis of structural, dynamic, and magnetic symmetry:
=====================================================================
 Subroutine PRICEL returns:
 Original cell was already a primitive cell.
 

 Routine SETGRP: Setting up the symmetry group for a 
 simple cubic supercell.


 Subroutine GETGRP returns: Found  1 space group operations
 (whereof  1 operations were pure point group operations)
 out of a pool of 48 trial point group operations.


The overall configuration has the point symmetry C_1 .


 Subroutine INISYM returns: Found  1 space group operations
 (whereof  1 operations are pure point group operations),
 and found     1 'primitive' translations


----------------------------------------------------------------------------------------

                                     Primitive cell                                     

  volume of cell :     899.1888

  direct lattice vectors                    reciprocal lattice vectors
     9.651992290  0.000000000  0.000000000     0.103605553  0.000000000  0.000000000
     0.000000000  9.651992290  0.000000000     0.000000000  0.103605553  0.000000000
     0.000000000  0.000000000  9.651992290     0.000000000  0.000000000  0.103605553

  length of vectors
     9.651992290  9.651992290  9.651992290     0.103605553  0.103605553  0.103605553

  position of ions in fractional coordinates (direct lattice)
     0.988083710  0.295534087  0.291196214
     0.984918143  0.820563474  0.781690167
     0.045223965  0.186988916  0.857303563
     0.018313017  0.781176094  0.217186641
     0.336605446  0.284112138  0.975670527
     0.210325749  0.828360926  0.017377766
     0.691739881  0.359183198  0.037388500
     0.791957225  0.789756102  0.973353083
     0.320059147  0.947111265  0.336591033
     0.312333431  0.014723672  0.686149445
     0.715624202  0.991687637  0.730713105
     0.827462915  0.046589336  0.177048269
     0.183735952  0.659754304  0.458571783
     0.176625078  0.305189412  0.537265003
     0.670452737  0.812188486  0.515892162
     0.732111240  0.204802455  0.483986662
     0.289581409  0.478372952  0.781826773
     0.286410478  0.507287071  0.192433250
     0.800299115  0.486697808  0.328149751
     0.850665103  0.542019761  0.670169900
     0.490608776  0.226287616  0.695752461
     0.478104946  0.700424297  0.159222922
     0.525340981  0.196425751  0.291834268
     0.546246063  0.665217080  0.806469640
     0.501257767  0.505666799  0.490581930
     0.506091917  0.002517430  0.002731177
     0.999421212  0.497180315  0.988017713
     0.007751390  0.998301258  0.497785077
     0.138131733  0.864117629  0.599432524
     0.132727837  0.116511522  0.373189023
     0.868733348  0.891678079  0.378018360
     0.906372331  0.122810152  0.637711466
     0.872329457  0.607936760  0.118877743
     0.876373515  0.380205544  0.862085394
     0.119959185  0.629044149  0.873093673
     0.121104662  0.357677929  0.095348263
     0.621327669  0.146596890  0.896425013
     0.633129738  0.889545009  0.129857108
     0.364293706  0.097998453  0.129285845
     0.404421841  0.870982914  0.869780691
     0.610037587  0.631539416  0.358966235
     0.639673505  0.400730356  0.614474182
     0.382469275  0.630936504  0.614651132
     0.374516193  0.372305861  0.383962502
     0.757670264  0.757738259  0.738482653
     0.753308212  0.261425594  0.253268553
     0.251437677  0.738326667  0.238531306
     0.260686800  0.242218991  0.752518220
     0.993168567  0.962176357  0.997097620
     0.005670663  0.483563840  0.475402737
     0.524716829  0.032508511  0.519450091
     0.475872900  0.499249952  0.996199554

  ion indices of the primitive-cell ions
   primitive index   ion index
                 1           1
                 2           2
                 3           3
                 4           4
                 5           5
                 6           6
                 7           7
                 8           8
                 9           9
                10          10
                11          11
                12          12
                13          13
                14          14
                15          15
                16          16
                17          17
                18          18
                19          19
                20          20
                21          21
                22          22
                23          23
                24          24
                25          25
                26          26
                27          27
                28          28
                29          29
                30          30
                31          31
                32          32
                33          33
                34          34
                35          35
                36          36
                37          37
                38          38
                39          39
                40          40
                41          41
                42          42
                43          43
                44          44
                45          45
                46          46
                47          47
                48          48
                49          49
                50          50
                51          51
                52          52

----------------------------------------------------------------------------------------

 
 
 KPOINTS: Automatic mesh                          

Automatic generation of k-mesh.
 Grid dimensions read from file:
 generate k-points for:    2    2    2

 Generating k-lattice:

  Cartesian coordinates                     Fractional coordinates (reciprocal lattice)
     0.051802777  0.000000000  0.000000000     0.500000000  0.000000000  0.000000000
     0.000000000  0.051802777  0.000000000     0.000000000  0.500000000  0.000000000
     0.000000000  0.000000000  0.051802777     0.000000000  0.000000000  0.500000000

  Length of vectors
     0.051802777  0.051802777  0.051802777

  Shift w.r.t. Gamma in fractional coordinates (k-lattice)
     0.500000000  0.500000000  0.500000000

 
 Subroutine IBZKPT returns following result:
 ===========================================
 
 Found      4 irreducible k-points:
 
 Following reciprocal coordinates:
            Coordinates               Weight
  0.250000  0.250000  0.250000      2.000000
 -0.250000  0.250000  0.250000      2.000000
 -0.250000 -0.250000  0.250000      2.000000
  0.250000 -0.250000  0.250000      2.000000
 
 Following cartesian coordinates:
            Coordinates               Weight
  0.025901  0.025901  0.025901      2.000000
 -0.025901  0.025901  0.025901      2.000000
 -0.025901 -0.025901  0.025901      2.000000
  0.025901 -0.025901  0.025901      2.000000
 


--------------------------------------------------------------------------------------------------------




 Dimension of arrays:
   k-points           NKPTS =      4   k-points in BZ     NKDIM =      4   number of bands    NBANDS=    176
   number of dos      NEDOS =    301   number of ions     NIONS =     52
   non local maximal  LDIM  =      6   non local SUM 2l+1 LMDIM =     18
   total plane-waves  NPLWV = 373248
   max r-space proj   IRMAX =   5791   max aug-charges    IRDMAX=  17717
   dimension x,y,z NGX =    72 NGY =   72 NGZ =   72
   dimension x,y,z NGXF=   144 NGYF=  144 NGZF=  144
   support grid    NGXF=   144 NGYF=  144 NGZF=  144
   ions per type =              24   4  20   4
   NGX,Y,Z   is equivalent  to a cutoff of  12.40, 12.40, 12.40 a.u.
   NGXF,Y,Z  is equivalent  to a cutoff of  24.80, 24.80, 24.80 a.u.

 SYSTEM =  unknown system                          
 POSCAR =  Li24 P4 S20 Cl4                         

 Startparameter for this run:
   NWRITE =      2    write-flag & timer
   PREC   = accu      normal or accurate (medium, high low for compatibility)
   ISTART =      0    job   : 0-new  1-cont  2-samecut
   ICHARG =      2    charge: 1-file 2-atom 10-const
   ISPIN  =      2    spin polarized calculation?
   LNONCOLLINEAR =      F non collinear calculations
   LSORBIT =      F    spin-orbit coupling
   INIWAV =      1    electr: 0-lowe 1-rand  2-diag
   LASPH  =      T    aspherical Exc in radial PAW
 Electronic Relaxation 1
   ENCUT  =  520.0 eV  38.22 Ry    6.18 a.u.  17.95 17.95 17.95*2*pi/ulx,y,z
   ENINI  =  520.0     initial cutoff
   ENAUG  = 1041.7 eV  augmentation charge cutoff
   NELM   =    100;   NELMIN=  2; NELMDL=-10     # of ELM steps 
   EDIFF  = 0.1E-05   stopping-criterion for ELM
   LREAL  =      T    real-space projection
   NLSPLINE    = F    spline interpolate recip. space projectors
   LCOMPAT=      F    compatible to vasp.4.4
   GGA_COMPAT  = T    GGA compatible to vasp.4.4-vasp.4.6
   LMAXPAW     = -100 max onsite density
   LMAXMIX     =    4 max onsite mixed and CHGCAR
   VOSKOWN=      0    Vosko Wilk Nusair interpolation
   ROPT   =   -0.00025  -0.00025  -0.00025  -0.00025
 Ionic relaxation
   EDIFFG = -.1E-02   stopping-criterion for IOM
   NSW    =   1000    number of steps for IOM
   NBLOCK =      1;   KBLOCK =   1000    inner block; outer block 
   IBRION =      2    ionic relax: 0-MD 1-quasi-New 2-CG
   NFREE  =      1    steps in history (QN), initial steepest desc. (CG)
   ISIF   =      2    stress and relaxation
   IWAVPR =     11    prediction:  0-non 1-charg 2-wave 3-comb
   ISYM   =      2    0-nonsym 1-usesym 2-fastsym
   LCORR  =      T    Harris-Foulkes like correction to forces

   POTIM  = 0.2000    time-step for ionic-motion
   TEIN   =    0.0    initial temperature
   TEBEG  =    0.0;   TEEND  =   0.0 temperature during run
   SMASS  =  -3.00    Nose mass-parameter (am)
   estimated Nose-frequenzy (Omega)   =  0.10E-29 period in steps = 0.31E+47 mass=  -0.213E-26a.u.
   SCALEE = 1.0000    scale energy and forces
   NPACO  =    256;   APACO  = 10.0  distance and # of slots for P.C.
   PSTRESS=    0.0 pullay stress

  Mass of Ions in am
   POMASS =   7.01 30.97 32.07 35.45
  Ionic Valenz
   ZVAL   =   3.00  5.00  6.00  7.00
  Atomic Wigner-Seitz radii
   RWIGS  =  -1.00 -1.00 -1.00 -1.00
  virtual crystal weights 
   VCA    =   1.00  1.00  1.00  1.00
   NELECT =     240.0000    total number of electrons
   NUPDOWN=      -1.0000    fix difference up-down

 DOS related values:
   EMIN   =  10.00;   EMAX   =-10.00  energy-range for DOS
   EFERMI =   0.00;   METHOD = LEGACY      
   ISMEAR =     0;   SIGMA  =   0.03  broadening in eV -4-tet -1-fermi 0-gaus

 Electronic relaxation 2 (details)
   IALGO  =     68    algorithm
   LDIAG  =      T    sub-space diagonalisation (order eigenvalues)
   LSUBROT=      F    optimize rotation matrix (better conditioning)
   TURBO    =      0    0=normal 1=particle mesh
   IRESTART =      0    0=no restart 2=restart with 2 vectors
   NREBOOT  =      0    no. of reboots
   NMIN     =      0    reboot dimension
   EREF     =   0.00    reference energy to select bands
   IMIX   =      4    mixing-type and parameters
     AMIX     =   0.40;   BMIX     =  1.00
     AMIX_MAG =   1.60;   BMIX_MAG =  1.00
     AMIN     =   0.10
     WC   =   100.;   INIMIX=   1;  MIXPRE=   1;  MAXMIX= -45

 Intra band minimization:
   WEIMIN = 0.0010     energy-eigenvalue tresh-hold
   EBREAK =  0.14E-08  absolut break condition
   DEPER  =   0.30     relativ break condition  

   TIME   =   0.40     timestep for ELM

  volume/ion in A,a.u.               =      17.29       116.69
  Fermi-wavevector in a.u.,A,eV,Ry     =   1.054051  1.991868 15.116392  1.111023
  Thomas-Fermi vector in A             =   2.189196
 
 Write flags
   LWAVE        =      F    write WAVECAR
   LDOWNSAMPLE  =      F    k-point downsampling of WAVECAR
   LCHARG       =      F    write CHGCAR
   LVTOT        =      F    write LOCPOT, total local potential
   LVHAR        =      F    write LOCPOT, Hartree potential only
   LELF         =      F    write electronic localiz. function (ELF)
   LORBIT       =      0    0 simple, 1 ext, 2 COOP (PROOUT), +10 PAW based schemes


 Dipole corrections
   LMONO  =      F    monopole corrections only (constant potential shift)
   LDIPOL =      F    correct potential (dipole corrections)
   IDIPOL =      0    1-x, 2-y, 3-z, 4-all directions 
   EPSILON=  1.0000000 bulk dielectric constant

 Exchange correlation treatment:
   GGA     =    PE    GGA type
   LEXCH   =     8    internal setting for exchange type
   LIBXC   =     F    Libxc                    
   VOSKOWN =     0    Vosko Wilk Nusair interpolation
   LHFCALC =     F    Hartree Fock is set to
   LHFONE  =     F    Hartree Fock one center treatment
   AEXX    =    0.0000 exact exchange contribution

 Linear response parameters
   LEPSILON=     F    determine dielectric tensor
   LRPA    =     F    only Hartree local field effects (RPA)
   LNABLA  =     F    use nabla operator in PAW spheres
   LVEL    =     F    velocity operator in full k-point grid
   CSHIFT  =0.1000    complex shift for real part using Kramers Kronig
   OMEGAMAX=  -1.0    maximum frequency
   DEG_THRESHOLD= 0.2000000E-02 threshold for treating states as degnerate
   RTIME   =   -0.100 relaxation time in fs
  (WPLASMAI=    0.000 imaginary part of plasma frequency in eV, 0.658/RTIME)
   DFIELD  = 0.0000000 0.0000000 0.0000000 field for delta impulse in time
 
  Optional k-point grid parameters
   LKPOINTS_OPT  =     F    use optional k-point grid
   KPOINTS_OPT_MODE=     1    mode for optional k-point grid
 
 Orbital magnetization related:
   ORBITALMAG=     F  switch on orbital magnetization
   LCHIMAG   =     F  perturbation theory with respect to B field
   DQ        =  0.001000  dq finite difference perturbation B field
   LLRAUG    =     F  two centre corrections for induced B field
   LBONE     =     F  B-component reconstruction in AE one-centre
   LVGVCALC  =     T  calculate vGv susceptibility
   LVGVAPPL  =     F  apply vGv susceptibility instead of pGv for G=0

 Random number generation:
   RANDOM_GENERATOR = DEFAULT
   PCG_SEED         = not used


--------------------------------------------------------------------------------------------------------


 conjugate gradient relaxation of ions
 charge density and potential will be updated during run
 spin polarized calculation
 RMM-DIIS sequential band-by-band and
  variant of blocked Davidson during initial phase
 perform sub-space diagonalisation
    before iterative eigenvector-optimisation
 modified Broyden-mixing scheme, WC =      100.0
 initial mixing is a Kerker type mixing with AMIX =  0.4000 and BMIX =      1.0000
 Hartree-type preconditioning will be used
 using additional bands           56
 real space projection scheme for non local part
 use partial core corrections
 calculate Harris-corrections to forces 
   (improved forces if not selfconsistent)
 use gradient corrections 
 use of overlap-Matrix (Vanderbilt PP)
 Gauss-broadening in eV      SIGMA  =   0.03


--------------------------------------------------------------------------------------------------------


  energy-cutoff  :      520.00
  volume of cell :      899.19
      direct lattice vectors                 reciprocal lattice vectors
     9.651992290  0.000000000  0.000000000     0.103605553  0.000000000  0.000000000
     0.000000000  9.651992290  0.000000000     0.000000000  0.103605553  0.000000000
     0.000000000  0.000000000  9.651992290     0.000000000  0.000000000  0.103605553

  length of vectors
     9.651992290  9.651992290  9.651992290     0.103605553  0.103605553  0.103605553


 
 k-points in units of 2pi/SCALE and weight: Automatic mesh                          
   0.02590139  0.02590139  0.02590139       0.250
  -0.02590139  0.02590139  0.02590139       0.250
  -0.02590139 -0.02590139  0.02590139       0.250
   0.02590139 -0.02590139  0.02590139       0.250
 
 k-points in reciprocal lattice and weights: Automatic mesh                          
   0.25000000  0.25000000  0.25000000       0.250
  -0.25000000  0.25000000  0.25000000       0.250
  -0.25000000 -0.25000000  0.25000000       0.250
   0.25000000 -0.25000000  0.25000000       0.250
 
 position of ions in fractional coordinates (direct lattice) 
   0.98808371  0.29553409  0.29119621
   0.98491814  0.82056347  0.78169017
   0.04522397  0.18698892  0.85730356
   0.01831302  0.78117609  0.21718664
   0.33660545  0.28411214  0.97567053
   0.21032575  0.82836093  0.01737777
   0.69173988  0.35918320  0.03738850
   0.79195723  0.78975610  0.97335308
   0.32005915  0.94711126  0.33659103
   0.31233343  0.01472367  0.68614944
   0.71562420  0.99168764  0.73071310
   0.82746292  0.04658934  0.17704827
   0.18373595  0.65975430  0.45857178
   0.17662508  0.30518941  0.53726500
   0.67045274  0.81218849  0.51589216
   0.73211124  0.20480245  0.48398666
   0.28958141  0.47837295  0.78182677
   0.28641048  0.50728707  0.19243325
   0.80029912  0.48669781  0.32814975
   0.85066510  0.54201976  0.67016990
   0.49060878  0.22628762  0.69575246
   0.47810495  0.70042430  0.15922292
   0.52534098  0.19642575  0.29183427
   0.54624606  0.66521708  0.80646964
   0.50125777  0.50566680  0.49058193
   0.50609192  0.00251743  0.00273118
   0.99942121  0.49718031  0.98801771
   0.00775139  0.99830126  0.49778508
   0.13813173  0.86411763  0.59943252
   0.13272784  0.11651152  0.37318902
   0.86873335  0.89167808  0.37801836
   0.90637233  0.12281015  0.63771147
   0.87232946  0.60793676  0.11887774
   0.87637351  0.38020554  0.86208539
   0.11995918  0.62904415  0.87309367
   0.12110466  0.35767793  0.09534826
   0.62132767  0.14659689  0.89642501
   0.63312974  0.88954501  0.12985711
   0.36429371  0.09799845  0.12928585
   0.40442184  0.87098291  0.86978069
   0.61003759  0.63153942  0.35896624
   0.63967350  0.40073036  0.61447418
   0.38246927  0.63093650  0.61465113
   0.37451619  0.37230586  0.38396250
   0.75767026  0.75773826  0.73848265
   0.75330821  0.26142559  0.25326855
   0.25143768  0.73832667  0.23853131
   0.26068680  0.24221899  0.75251822
   0.99316857  0.96217636  0.99709762
   0.00567066  0.48356384  0.47540274
   0.52471683  0.03250851  0.51945009
   0.47587290  0.49924995  0.99619955
 
 position of ions in cartesian coordinates  (Angst):
   9.53697635  2.85249273  2.81062361
   9.50642232  7.92007232  7.54486746
   0.43650137  1.80481558  8.27468738
   0.17675710  7.53990563  2.09628379
   3.24891317  2.74224817  9.41716440
   2.03006251  7.99533327  0.16773006
   6.67666800  3.46683346  0.36087351
   7.64396503  7.62271981  9.39479646
   3.08920842  9.14151062  3.24877406
   3.01463987  0.14211277  6.62270915
   6.90719928  9.57176143  7.05283725
   7.98666568  0.44967991  1.70886853
   1.77341800  6.36794346  4.42613132
   1.70478389  2.94568585  5.18567767
   6.47120465  7.83923700  4.97938717
   7.06633204  1.97675172  4.67143553
   2.79503753  4.61725204  7.54618598
   2.76443173  4.89633090  1.85736425
   7.72448089  4.69760349  3.16729886
   8.21061301  5.23157056  6.46847471
   4.73535213  2.18412632  6.71539739
   4.61466525  6.76048991  1.53681842
   5.07058710  1.89589983  2.81678210
   5.27236278  6.42067013  7.78403874
   4.83813610  4.88069205  4.73509301
   4.88479528  0.02429821  0.02636130
   9.64640583  4.79878056  9.53633935
   0.07481636  9.63559605  4.80461772
   1.33324643  8.34045669  5.78571810
   1.28108806  1.12456832  3.60201758
   8.38500758  8.60646994  3.64863030
   8.74829875  1.18536264  6.15518615
   8.41971720  5.86780092  1.14740705
   8.45875041  3.66974098  8.32084158
   1.15784512  6.07152928  8.42709340
   1.16890126  3.45230462  0.92030069
   5.99704987  1.41495205  8.65228731
   6.11096335  8.58588157  1.25337980
   3.51616004  0.94588031  1.24786598
   3.90347649  8.40672037  8.39511652
   5.88807808  6.09561357  3.46473934
   6.17412374  3.86784630  5.93090007
   3.69159049  6.08979427  5.93260799
   3.61482741  3.59349330  3.70600311
   7.31302755  7.31368383  7.12782887
   7.27092506  2.52327782  2.44454612
   2.42687452  7.12632330  2.30230232
   2.51614698  2.33789584  7.26330006
   9.58605535  9.28691878  9.62397854
   0.05473320  4.66735446  4.58858355
   5.06456279  0.31377190  5.01372827
   4.59312156  4.81875669  9.61531042
 


--------------------------------------------------------------------------------------------------------


 k-point   1 :   0.2500 0.2500 0.2500  plane waves:   24216
 k-point   2 :  -0.2500 0.2500 0.2500  plane waves:   24216
 k-point   3 :  -0.2500-0.2500 0.2500  plane waves:   24216
 k-point   4 :   0.2500-0.2500 0.2500  plane waves:   24216

 maximum and minimum number of plane-waves per node :       777      739

 maximum number of plane-waves:     24216
 maximum index in each direction: 
   IXMAX=   18   IYMAX=   18   IZMAX=   17
   IXMIN=  -18   IYMIN=  -18   IZMIN=  -18


 real space projection operators:
  total allocation   :      28419.00 KBytes
  max/ min on nodes  :       1195.59        728.17


 parallel 3D FFT for wavefunctions:
    minimum data exchange during FFTs selected (reduces bandwidth)
 parallel 3D FFT for charge:
    minimum data exchange during FFTs selected (reduces bandwidth)


 total amount of memory used by VASP MPI-rank0    48206. kBytes
=======================================================================

   base      :      30000. kBytes
   nonlr-proj:       6546. kBytes
   fftplans  :       1747. kBytes
   grid      :       5278. kBytes
   one-center:         62. kBytes
   wavefun   :       4573. kBytes
 
     INWAV:  cpu time      0.0000: real time      0.0000
 Broyden mixing: mesh for mixing (old mesh)
   NGX = 35   NGY = 35   NGZ = 35
  (NGX  =144   NGY  =144   NGZ  =144)
  gives a total of  42875 points

 initial charge density was supplied:
 charge density of overlapping atoms calculated
 number of electron     240.0000000 magnetization      52.0000000
 keeping initial charge density in first step


--------------------------------------------------------------------------------------------------------


 Maximum index for non-local projection operator          612
 Maximum index for augmentation-charges          904 (set IRDMAX)


--------------------------------------------------------------------------------------------------------


 First call to EWALD:  gamma=   0.184
 Maximum number of real-space cells 3x 3x 3
 Maximum number of reciprocal cells 3x 3x 3

    FEWALD:  cpu time      0.0030: real time      0.0036


--------------------------------------- Ionic step        1  -------------------------------------------




--------------------------------------- Iteration      1(   1)  ---------------------------------------


    POTLOK:  cpu time      0.0578: real time      0.0664
    SETDIJ:  cpu time      0.4049: real time      0.4111
     EDDAV:  cpu time      2.2305: real time      2.4278
       DOS:  cpu time      0.0025: real time      0.0039
    --------------------------------------------
      LOOP:  cpu time      2.6957: real time      2.9091

 eigenvalue-minimisations  :  3080
 total energy-change (2. order) : 0.1592092E+04  (-0.1137829E+05)
 number of electron     240.0000000 magnetization      52.0000000
 augmentation part      240.0000000 magnetization      52.0000000

 Free energy of the ion-electron system (eV)
  ---------------------------------------------------
  alpha Z        PSCENC =       301.89154643
  Ewald energy   TEWEN  =     -8838.71430970
  -Hartree energ DENC   =     -2097.35934582
  -exchange      EXHF   =         0.00000000
  -V(xc)+E(xc)   XCENC  =       534.36948564
  PAW double counting   =      8141.38806575    -8271.61346273
  entropy T*S    EENTRO =        -0.00602733
  eigenvalues    EBANDS =      -881.00443170
  atomic energy  EATOM  =     12703.13999606
  Solvation  Ediel_sol  =         0.00000000
  ---------------------------------------------------
  free energy    TOTEN  =      1592.09151660 eV

  energy without entropy =     1592.09754393  energy(sigma->0) =     1592.09453026


--------------------------------------------------------------------------------------------------------




--------------------------------------- Iteration      1(   2)  ---------------------------------------


     EDDAV:  cpu time      2.6221: real time      2.6566
       DOS:  cpu time      0.0004: real time      0.0004
    --------------------------------------------
      LOOP:  cpu time      2.6225: real time      2.6570

 eigenvalue-minimisations  :  3840
 total energy-change (2. order) :-0.1648051E+04  (-0.1549443E+04)
 number of electron     240.0000000 magnetization      52.0000000
 augmentation part      240.0000000 magnetization      52.0000000

 Free energy of the ion-electron system (eV)
  ---------------------------------------------------
  alpha Z        PSCENC =       301.89154643
  Ewald energy   TEWEN  =     -8838.71430970
  -Hartree energ DENC   =     -2097.35934582
  -exchange      EXHF   =         0.00000000
  -V(xc)+E(xc)   XCENC  =       534.36948564
  PAW double counting   =      8141.38806575    -8271.61346273
  entropy T*S    EENTRO =        -0.00000000
  eigenvalues    EBANDS =     -2529.06097049
  atomic energy  EATOM  =     12703.13999606
  Solvation  Ediel_sol  =         0.00000000
  ---------------------------------------------------
  free energy    TOTEN  =       -55.95899486 eV

  energy without entropy =      -55.95899486  energy(sigma->0) =      -55.95899486


--------------------------------------------------------------------------------------------------------




--------------------------------------- Iteration      1(   3)  ---------------------------------------


     EDDAV:  cpu time      2.5540: real time      2.5903
       DOS:  cpu time      0.0004: real time      0.0004
    --------------------------------------------
      LOOP:  cpu time      2.5544: real time      2.5907

 eigenvalue-minimisations  :  3736
 total energy-change (2. order) :-0.1720996E+03  (-0.1700341E+03)
 number of electron     240.0000000 magnetization      52.0000000
 augmentation part      240.0000000 magnetization      52.0000000

 Free energy of the ion-electron system (eV)
  ---------------------------------------------------
  alpha Z        PSCENC =       301.89154643
  Ewald energy   TEWEN  =     -8838.71430970
  -Hartree energ DENC   =     -2097.35934582
  -exchange      EXHF   =         0.00000000
  -V(xc)+E(xc)   XCENC  =       534.36948564
  PAW double counting   =      8141.38806575    -8271.61346273
  entropy T*S    EENTRO =        -0.00000000
  eigenvalues    EBANDS =     -2701.16052099
  atomic energy  EATOM  =     12703.13999606
  Solvation  Ediel_sol  =         0.00000000
  ---------------------------------------------------
  free energy    TOTEN  =      -228.05854536 eV

  energy without entropy =     -228.05854536  energy(sigma->0) =     -228.05854536


--------------------------------------------------------------------------------------------------------




--------------------------------------- Iteration      1(   4)  ---------------------------------------


     EDDAV:  cpu time      3.1317: real time      3.2088
       DOS:  cpu time      0.0004: real time      0.0004
    --------------------------------------------
      LOOP:  cpu time      3.1321: real time      3.2092

 eigenvalue-minimisations  :  4776
 total energy-change (2. order) :-0.1390193E+02  (-0.1387719E+02)
 number of electron     240.0000000 magnetization      52.0000000
 augmentation part      240.0000000 magnetization      52.0000000

 Free energy of the ion-electron system (eV)
  ---------------------------------------------------
  alpha Z        PSCENC =       301.89154643
  Ewald energy   TEWEN  =     -8838.71430970
  -Hartree energ DENC   =     -2097.35934582
  -exchange      EXHF   =         0.00000000
  -V(xc)+E(xc)   XCENC  =       534.36948564
  PAW double counting   =      8141.38806575    -8271.61346273
  entropy T*S    EENTRO =        -0.00000000
  eigenvalues    EBANDS =     -2715.06244695
  atomic energy  EATOM  =     12703.13999606
  Solvation  Ediel_sol  =         0.00000000
  ---------------------------------------------------
  free energy    TOTEN  =      -241.96047132 eV

  energy without entropy =     -241.96047132  energy(sigma->0) =     -241.96047132


--------------------------------------------------------------------------------------------------------




--------------------------------------- Iteration      1(   5)  ---------------------------------------


     EDDAV:  cpu time      2.9203: real time      2.9484
       DOS:  cpu time      0.0004: real time      0.0004
    --------------------------------------------
      LOOP:  cpu time      2.9207: real time      2.9488

 eigenvalue-minimisations  :  4408
 total energy-change (2. order) :-0.2191549E+00  (-0.2190516E+00)
 number of electron     240.0000000 magnetization      52.0000000
 augmentation part      240.0000000 magnetization      52.0000000

 Free energy of the ion-electron system (eV)
  ---------------------------------------------------
  alpha Z        PSCENC =       301.89154643
  Ewald energy   TEWEN  =     -8838.71430970
  -Hartree energ DENC   =     -2097.35934582
  -exchange      EXHF   =         0.00000000
  -V(xc)+E(xc)   XCENC  =       534.36948564
  PAW double counting   =      8141.38806575    -8271.61346273
  entropy T*S    EENTRO =        -0.00000000
  eigenvalues    EBANDS =     -2715.28160186
  atomic energy  EATOM  =     12703.13999606
  Solvation  Ediel_sol  =         0.00000000
  ---------------------------------------------------
  free energy    TOTEN  =      -242.17962623 eV

  energy without entropy =     -242.17962623  energy(sigma->0) =     -242.17962623


--------------------------------------------------------------------------------------------------------




--------------------------------------- Iteration      1(   6)  ---------------------------------------


     EDDAV:  cpu time      3.0853: real time      3.1131
       DOS:  cpu time      0.0004: real time      0.0004
    --------------------------------------------
      LOOP:  cpu time      3.0857: real time      3.1134

 eigenvalue-minimisations  :  4688
 total energy-change (2. order) :-0.1314875E-01  (-0.1314743E-01)
 number of electron     240.0000000 magnetization      52.0000000
 augmentation part      240.0000000 magnetization      52.0000000

 Free energy of the ion-electron system (eV)
  ---------------------------------------------------
  alpha Z        PSCENC =       301.89154643
  Ewald energy   TEWEN  =     -8838.71430970
  -Hartree energ DENC   =     -2097.35934582
  -exchange      EXHF   =         0.00000000
  -V(xc)+E(xc)   XCENC  =       534.36948564
  PAW double counting   =      8141.38806575    -8271.61346273
  entropy T*S    EENTRO =        -0.00000000
  eigenvalues    EBANDS =     -2715.29475061
  atomic energy  EATOM  =     12703.13999606
  Solvation  Ediel_sol  =         0.00000000
  ---------------------------------------------------
  free energy    TOTEN  =      -242.19277498 eV

  energy without entropy =     -242.19277498  energy(sigma->0) =     -242.19277498


--------------------------------------------------------------------------------------------------------




--------------------------------------- Iteration      1(   7)  ---------------------------------------


     EDDAV:  cpu time      3.0046: real time      3.0315
       DOS:  cpu time      0.0004: real time      0.0004
    --------------------------------------------
      LOOP:  cpu time      3.0050: real time      3.0319

 eigenvalue-minimisations  :  4560
 total energy-change (2. order) :-0.3780845E-03  (-0.3780618E-03)
 number of electron     240.0000000 magnetization      52.0000000
 augmentation part      240.0000000 magnetization      52.0000000

 Free energy of the ion-electron system (eV)
  ---------------------------------------------------
  alpha Z        PSCENC =       301.89154643
  Ewald energy   TEWEN  =     -8838.71430970
  -Hartree energ DENC   =     -2097.35934582
  -exchange      EXHF   =         0.00000000
  -V(xc)+E(xc)   XCENC  =       534.36948564
  PAW double counting   =      8141.38806575    -8271.61346273
  entropy T*S    EENTRO =        -0.00000000
  eigenvalues    EBANDS =     -2715.29512870
  atomic energy  EATOM  =     12703.13999606
  Solvation  Ediel_sol  =         0.00000000
  ---------------------------------------------------
  free energy    TOTEN  =      -242.19315307 eV

  energy without entropy =     -242.19315307  energy(sigma->0) =     -242.19315307


--------------------------------------------------------------------------------------------------------




--------------------------------------- Iteration      1(   8)  ---------------------------------------


     EDDAV:  cpu time      3.0418: real time      3.0741
       DOS:  cpu time      0.0004: real time      0.0004
    --------------------------------------------
      LOOP:  cpu time      3.0422: real time      3.0745

 eigenvalue-minimisations  :  4608
 total energy-change (2. order) :-0.2154789E-04  (-0.2154755E-04)
 number of electron     240.0000000 magnetization      52.0000000
 augmentation part      240.0000000 magnetization      52.0000000

 Free energy of the ion-electron system (eV)
  ---------------------------------------------------
  alpha Z        PSCENC =       301.89154643
  Ewald energy   TEWEN  =     -8838.71430970
  -Hartree energ DENC   =     -2097.35934582
  -exchange      EXHF   =         0.00000000
  -V(xc)+E(xc)   XCENC  =       534.36948564
  PAW double counting   =      8141.38806575    -8271.61346273
  entropy T*S    EENTRO =        -0.00000000
  eigenvalues    EBANDS =     -2715.29515025
  atomic energy  EATOM  =     12703.13999606
  Solvation  Ediel_sol  =         0.00000000
  ---------------------------------------------------
  free energy    TOTEN  =      -242.19317462 eV

  energy without entropy =     -242.19317462  energy(sigma->0) =     -242.19317462


--------------------------------------------------------------------------------------------------------




--------------------------------------- Iteration      1(   9)  ---------------------------------------


     EDDAV:  cpu time      2.9144: real time      2.9406
       DOS:  cpu time      0.0004: real time      0.0004
    --------------------------------------------
      LOOP:  cpu time      2.9148: real time      2.9410

 eigenvalue-minimisations  :  4400
 total energy-change (2. order) :-0.1375382E-05  (-0.1375202E-05)
 number of electron     240.0000000 magnetization      52.0000000
 augmentation part      240.0000000 magnetization      52.0000000

 Free energy of the ion-electron system (eV)
  ---------------------------------------------------
  alpha Z        PSCENC =       301.89154643
  Ewald energy   TEWEN  =     -8838.71430970
  -Hartree energ DENC   =     -2097.35934582
  -exchange      EXHF   =         0.00000000
  -V(xc)+E(xc)   XCENC  =       534.36948564
  PAW double counting   =      8141.38806575    -8271.61346273
  entropy T*S    EENTRO =        -0.00000000
  eigenvalues    EBANDS =     -2715.29515162
  atomic energy  EATOM  =     12703.13999606
  Solvation  Ediel_sol  =         0.00000000
  ---------------------------------------------------
  free energy    TOTEN  =      -242.19317599 eV

  energy without entropy =     -242.19317599  energy(sigma->0) =     -242.19317599


--------------------------------------------------------------------------------------------------------




--------------------------------------- Iteration      1(  10)  ---------------------------------------


     EDDAV:  cpu time      1.9684: real time      1.9875
       DOS:  cpu time      0.0004: real time      0.0004
    CHARGE:  cpu time      0.0679: real time      0.0739
    MIXING:  cpu time      0.0019: real time      0.0035
    --------------------------------------------
      LOOP:  cpu time      2.0387: real time      2.0653

 eigenvalue-minimisations  :  2632
 total energy-change (2. order) :-0.6064511E-07  (-0.6076058E-07)
 number of electron     240.0000017 magnetization      27.2365812
 augmentation part        1.4898910 magnetization      27.6789307

 Broyden mixing:
  rms(total) = 0.64204E+01    rms(broyden)= 0.64199E+01
  rms(prec ) = 0.66621E+01
  weight for this iteration     100.00

 Free energy of the ion-electron system (eV)
  ---------------------------------------------------
  alpha Z        PSCENC =       301.89154643
  Ewald energy   TEWEN  =     -8838.71430970
  -Hartree energ DENC   =     -2097.35934582
  -exchange      EXHF   =         0.00000000
  -V(xc)+E(xc)   XCENC  =       534.36948564
  PAW double counting   =      8141.38806575    -8271.61346273
  entropy T*S    EENTRO =        -0.00000000
  eigenvalues    EBANDS =     -2715.29515168
  atomic energy  EATOM  =     12703.13999606
  Solvation  Ediel_sol  =         0.00000000
  ---------------------------------------------------
  free energy    TOTEN  =      -242.19317605 eV

  energy without entropy =     -242.19317605  energy(sigma->0) =     -242.19317605


--------------------------------------------------------------------------------------------------------




--------------------------------------- Iteration      1(  11)  ---------------------------------------


    POTLOK:  cpu time      0.0543: real time      0.0551
    SETDIJ:  cpu time      0.3976: real time      0.4007
    EDDIAG:  cpu time      0.3648: real time      0.3677
  RMM-DIIS:  cpu time      1.1475: real time      1.1601
    ORTHCH:  cpu time      0.0661: real time      0.0676
       DOS:  cpu time      0.0005: real time      0.0005
    CHARGE:  cpu time      0.0646: real time      0.0674
    MIXING:  cpu time      0.0012: real time      0.0031
    --------------------------------------------
      LOOP:  cpu time      2.0966: real time      2.1221

 eigenvalue-minimisations  :  2816
 total energy-change (2. order) : 0.5470407E+01  (-0.4677987E+01)
 number of electron     240.0000017 magnetization      16.3025144
 augmentation part        1.7017634 magnetization      16.4841992

 Broyden mixing:
  rms(total) = 0.33000E+01    rms(broyden)= 0.32998E+01
  rms(prec ) = 0.34163E+01
  weight for this iteration     100.00

 eigenvalues of (default mixing * dielectric matrix)
  average eigenvalue GAMMA=   0.7253
  0.7253

 Free energy of the ion-electron system (eV)
  ---------------------------------------------------
  alpha Z        PSCENC =       301.89154643
  Ewald energy   TEWEN  =     -8838.71430970
  -Hartree energ DENC   =     -2145.15883347
  -exchange      EXHF   =         0.00000000
  -V(xc)+E(xc)   XCENC  =       542.54967386
  PAW double counting   =      8927.10528517    -9063.38661735
  entropy T*S    EENTRO =        -0.00000000
  eigenvalues    EBANDS =     -2664.14950992
  atomic energy  EATOM  =     12703.13999606
  Solvation  Ediel_sol  =         0.00000000
  ---------------------------------------------------
  free energy    TOTEN  =      -236.72276891 eV

  energy without entropy =     -236.72276891  energy(sigma->0) =     -236.72276891


--------------------------------------------------------------------------------------------------------




--------------------------------------- Iteration      1(  12)  ---------------------------------------


    POTLOK:  cpu time      0.0529: real time      0.0538
    SETDIJ:  cpu time      0.4017: real time      0.4037
    EDDIAG:  cpu time      0.3571: real time      0.3605
  RMM-DIIS:  cpu time      1.2509: real time      1.2911
    ORTHCH:  cpu time      0.0678: real time      0.0685
       DOS:  cpu time      0.0005: real time      0.0005
    CHARGE:  cpu time      0.0645: real time      0.0664
    MIXING:  cpu time      0.0011: real time      0.0011
    --------------------------------------------
      LOOP:  cpu time      2.1965: real time      2.2455

 eigenvalue-minimisations  :  2953
 total energy-change (2. order) :-0.1943404E+02  (-0.2117955E+01)
 number of electron     240.0000017 magnetization       0.4931679
 augmentation part        1.7992017 magnetization       0.8331538

 Broyden mixing:
  rms(total) = 0.20177E+01    rms(broyden)= 0.20177E+01
  rms(prec ) = 0.20797E+01
  weight for this iteration     100.00

 eigenvalues of (default mixing * dielectric matrix)
  average eigenvalue GAMMA=   1.1571
  1.6432  0.6710

 Free energy of the ion-electron system (eV)
  ---------------------------------------------------
  alpha Z        PSCENC =       301.89154643
  Ewald energy   TEWEN  =     -8838.71430970
  -Hartree energ DENC   =     -2168.99187254
  -exchange      EXHF   =         0.00000000
  -V(xc)+E(xc)   XCENC  =       536.24373696
  PAW double counting   =      9279.51772939    -9419.38139415
  entropy T*S    EENTRO =        -0.00000000
  eigenvalues    EBANDS =     -2649.86224180
  atomic energy  EATOM  =     12703.13999606
  Solvation  Ediel_sol  =         0.00000000
  ---------------------------------------------------
  free energy    TOTEN  =      -256.15680935 eV

  energy without entropy =     -256.15680935  energy(sigma->0) =     -256.15680935


--------------------------------------------------------------------------------------------------------




--------------------------------------- Iteration      1(  13)  ---------------------------------------


    POTLOK:  cpu time      0.0532: real time      0.0541
    SETDIJ:  cpu time      0.4011: real time      0.4028
    EDDIAG:  cpu time      0.3563: real time      0.3591
  RMM-DIIS:  cpu time      1.1936: real time      1.2055
    ORTHCH:  cpu time      0.0667: real time      0.0672
       DOS:  cpu time      0.0004: real time      0.0004
    CHARGE:  cpu time      0.0651: real time      0.0669
    MIXING:  cpu time      0.0010: real time      0.0010
    --------------------------------------------
      LOOP:  cpu time      2.1375: real time      2.1570

 eigenvalue-minimisations  :  2911
 total energy-change (2. order) :-0.2481956E+01  (-0.9066292E+00)
 number of electron     240.0000017 magnetization      -1.8355104
 augmentation part        1.8999634 magnetization      -1.7319699

 Broyden mixing:
  rms(total) = 0.66559E+00    rms(broyden)= 0.66559E+00
  rms(prec ) = 0.69826E+00
  weight for this iteration     100.00

 eigenvalues of (default mixing * dielectric matrix)
  average eigenvalue GAMMA=   1.3006
  2.5012  0.7477  0.6528

 Free energy of the ion-electron system (eV)
  ---------------------------------------------------
  alpha Z        PSCENC =       301.89154643
  Ewald energy   TEWEN  =     -8838.71430970
  -Hartree energ DENC   =     -2196.53753718
  -exchange      EXHF   =         0.00000000
  -V(xc)+E(xc)   XCENC  =       537.81927748
  PAW double counting   =      9781.43808890    -9925.25450067
  entropy T*S    EENTRO =        -0.00000000
  eigenvalues    EBANDS =     -2622.42132693
  atomic energy  EATOM  =     12703.13999606
  Solvation  Ediel_sol  =         0.00000000
  ---------------------------------------------------
  free energy    TOTEN  =      -258.63876559 eV

  energy without entropy =     -258.63876559  energy(sigma->0) =     -258.63876559


--------------------------------------------------------------------------------------------------------




--------------------------------------- Iteration      1(  14)  ---------------------------------------


    POTLOK:  cpu time      0.0520: real time      0.0529
    SETDIJ:  cpu time      0.4023: real time      0.4038
    EDDIAG:  cpu time      0.3573: real time      0.3594
  RMM-DIIS:  cpu time      1.5384: real time      1.5535
    ORTHCH:  cpu time      0.0662: real time      0.0677
       DOS:  cpu time      0.0004: real time      0.0004
    CHARGE:  cpu time      0.0646: real time      0.0663
    MIXING:  cpu time      0.0011: real time      0.0011
    --------------------------------------------
      LOOP:  cpu time      2.4822: real time      2.5051

 eigenvalue-minimisations  :  3759
 total energy-change (2. order) :-0.1988124E+00  (-0.1970003E+00)
 number of electron     240.0000017 magnetization      -0.8364773
 augmentation part        1.8704121 magnetization      -0.8091730

 Broyden mixing:
  rms(total) = 0.32384E+00    rms(broyden)= 0.32384E+00
  rms(prec ) = 0.35890E+00
  weight for this iteration     100.00

 eigenvalues of (default mixing * dielectric matrix)
  average eigenvalue GAMMA=   1.2659
  2.6096  1.1734  0.6898  0.5909

 Free energy of the ion-electron system (eV)
  ---------------------------------------------------
  alpha Z        PSCENC =       301.89154643
  Ewald energy   TEWEN  =     -8838.71430970
  -Hartree energ DENC   =     -2197.85570195
  -exchange      EXHF   =         0.00000000
  -V(xc)+E(xc)   XCENC  =       538.25699816
  PAW double counting   =      9856.31345795   -10000.91540096
  entropy T*S    EENTRO =        -0.00000000
  eigenvalues    EBANDS =     -2620.95416395
  atomic energy  EATOM  =     12703.13999606
  Solvation  Ediel_sol  =         0.00000000
  ---------------------------------------------------
  free energy    TOTEN  =      -258.83757797 eV

  energy without entropy =     -258.83757797  energy(sigma->0) =     -258.83757797


--------------------------------------------------------------------------------------------------------




--------------------------------------- Iteration      1(  15)  ---------------------------------------


    POTLOK:  cpu time      0.0511: real time      0.0521
    SETDIJ:  cpu time      0.4016: real time      0.4033
    EDDIAG:  cpu time      0.3562: real time      0.3585
  RMM-DIIS:  cpu time      1.2607: real time      1.2743
    ORTHCH:  cpu time      0.0657: real time      0.0661
       DOS:  cpu time      0.0004: real time      0.0004
    CHARGE:  cpu time      0.0648: real time      0.0660
    MIXING:  cpu time      0.0012: real time      0.0012
    --------------------------------------------
      LOOP:  cpu time      2.2016: real time      2.2219

 eigenvalue-minimisations  :  3072
 total energy-change (2. order) : 0.2857889E-01  (-0.3326782E-01)
 number of electron     240.0000017 magnetization      -0.2258365
 augmentation part        1.8220567 magnetization      -0.1992283

 Broyden mixing:
  rms(total) = 0.70113E-01    rms(broyden)= 0.70110E-01
  rms(prec ) = 0.82583E-01
  weight for this iteration     100.00

 eigenvalues of (default mixing * dielectric matrix)
  average eigenvalue GAMMA=   1.2711
  2.5377  1.5859  0.9463  0.6849  0.6007

 Free energy of the ion-electron system (eV)
  ---------------------------------------------------
  alpha Z        PSCENC =       301.89154643
  Ewald energy   TEWEN  =     -8838.71430970
  -Hartree energ DENC   =     -2193.34633552
  -exchange      EXHF   =         0.00000000
  -V(xc)+E(xc)   XCENC  =       537.90858505
  PAW double counting   =      9827.99864825    -9972.42086439
  entropy T*S    EENTRO =        -0.00000000
  eigenvalues    EBANDS =     -2625.26626526
  atomic energy  EATOM  =     12703.13999606
  Solvation  Ediel_sol  =         0.00000000
  ---------------------------------------------------
  free energy    TOTEN  =      -258.80899908 eV

  energy without entropy =     -258.80899908  energy(sigma->0) =     -258.80899908


--------------------------------------------------------------------------------------------------------




--------------------------------------- Iteration      1(  16)  ---------------------------------------


    POTLOK:  cpu time      0.0517: real time      0.0525
    SETDIJ:  cpu time      0.4015: real time      0.4028
    EDDIAG:  cpu time      0.3564: real time      0.3585
  RMM-DIIS:  cpu time      1.2794: real time      1.3724
    ORTHCH:  cpu time      0.0673: real time      0.0677
       DOS:  cpu time      0.0004: real time      0.0004
    CHARGE:  cpu time      0.0643: real time      0.0655
    MIXING:  cpu time      0.0011: real time      0.0012
    --------------------------------------------
      LOOP:  cpu time      2.2222: real time      2.3211

 eigenvalue-minimisations  :  3074
 total energy-change (2. order) :-0.1927803E-01  (-0.1033290E-01)
 number of electron     240.0000017 magnetization      -0.1061540
 augmentation part        1.7999621 magnetization      -0.0916603

 Broyden mixing:
  rms(total) = 0.31316E-01    rms(broyden)= 0.31314E-01
  rms(prec ) = 0.37570E-01
  weight for this iteration     100.00

 eigenvalues of (default mixing * dielectric matrix)
  average eigenvalue GAMMA=   1.2510
  2.4544  1.9508  1.0412  0.6203  0.6994  0.7399

 Free energy of the ion-electron system (eV)
  ---------------------------------------------------
  alpha Z        PSCENC =       301.89154643
  Ewald energy   TEWEN  =     -8838.71430970
  -Hartree energ DENC   =     -2192.78287395
  -exchange      EXHF   =         0.00000000
  -V(xc)+E(xc)   XCENC  =       537.82750561
  PAW double counting   =      9816.82461100    -9961.02584518
  entropy T*S    EENTRO =        -0.00000000
  eigenvalues    EBANDS =     -2625.98890738
  atomic energy  EATOM  =     12703.13999606
[...]
 -0.392   0.404   0.001   0.492  -0.105  -0.040   0.004  -0.001  -0.000   0.005   0.004   0.005  -0.005   0.000
 -0.348   0.357   0.001  -0.105   0.521  -0.003  -0.001   0.004  -0.000  -0.005   0.003  -0.004   0.006  -0.004
 -0.261   0.268   0.001  -0.040  -0.003   0.840  -0.000  -0.000   0.007  -0.005  -0.004   0.006  -0.004  -0.009
 -0.003   0.003   0.000   0.004  -0.001  -0.000   0.000  -0.000  -0.000   0.000   0.000   0.000  -0.000  -0.000
 -0.003   0.003   0.000  -0.001   0.004  -0.000  -0.000   0.000  -0.000  -0.000   0.000  -0.000   0.000  -0.000
 -0.002   0.001   0.000  -0.000  -0.000   0.007  -0.000  -0.000   0.000  -0.000  -0.000   0.000  -0.000  -0.000
 -0.006   0.006   0.000   0.005  -0.005  -0.005   0.000  -0.000  -0.000   0.000   0.000   0.000  -0.000   0.000
 -0.011   0.011   0.000   0.004   0.003  -0.004   0.000   0.000  -0.000   0.000   0.000   0.000   0.000  -0.000
 -0.011   0.011   0.000   0.005  -0.004   0.006   0.000  -0.000   0.000   0.000   0.000   0.000  -0.000  -0.000
 -0.001   0.001   0.000  -0.005   0.006  -0.004  -0.000   0.000  -0.000  -0.000   0.000  -0.000   0.000  -0.000
  0.022  -0.022  -0.000   0.000  -0.004  -0.009  -0.000  -0.000  -0.000   0.000  -0.000  -0.000  -0.000   0.000
 total augmentation occupancy for first ion, spin component:           2
 -0.000   0.000   0.000  -0.000  -0.000  -0.000  -0.000  -0.000  -0.000   0.000   0.000  -0.000   0.000   0.000
  0.000  -0.000  -0.000  -0.000   0.000   0.000  -0.000  -0.000   0.000  -0.000   0.000   0.000  -0.000  -0.000
  0.000  -0.000  -0.000   0.000   0.000  -0.000   0.000  -0.000  -0.000   0.000   0.000   0.000  -0.000   0.000
 -0.000  -0.000   0.000  -0.000  -0.000   0.000  -0.000  -0.000  -0.000  -0.000  -0.000  -0.000   0.000   0.000
 -0.000   0.000   0.000  -0.000  -0.000   0.000  -0.000  -0.000  -0.000   0.000  -0.000   0.000  -0.000  -0.000
 -0.000   0.000  -0.000   0.000   0.000  -0.000   0.000   0.000  -0.000   0.000  -0.000   0.000   0.000  -0.000
 -0.000  -0.000   0.000  -0.000  -0.000   0.000  -0.000  -0.000   0.000  -0.000  -0.000  -0.000   0.000   0.000
 -0.000  -0.000  -0.000  -0.000  -0.000   0.000  -0.000  -0.000   0.000   0.000  -0.000   0.000   0.000   0.000
 -0.000   0.000  -0.000  -0.000  -0.000  -0.000   0.000   0.000   0.000   0.000  -0.000  -0.000   0.000   0.000
  0.000  -0.000   0.000  -0.000   0.000   0.000  -0.000   0.000   0.000   0.000   0.000   0.000  -0.000   0.000
  0.000   0.000   0.000  -0.000  -0.000  -0.000  -0.000  -0.000  -0.000   0.000   0.000  -0.000   0.000   0.000
 -0.000   0.000   0.000  -0.000   0.000   0.000  -0.000   0.000  -0.000   0.000  -0.000  -0.000   0.000  -0.000
  0.000  -0.000  -0.000   0.000  -0.000   0.000   0.000   0.000   0.000  -0.000   0.000   0.000  -0.000  -0.000
  0.000  -0.000   0.000   0.000  -0.000  -0.000   0.000   0.000   0.000   0.000   0.000  -0.000  -0.000   0.000


------------------------ aborting loop because EDIFF is reached ----------------------------------------


    CHARGE:  cpu time      0.0653: real time      0.0661
    FORLOC:  cpu time      0.0038: real time      0.0038
    FORNL :  cpu time      0.3955: real time      0.3982
    STRESS:  cpu time      1.1818: real time      1.1908
    FORCOR:  cpu time      0.0500: real time      0.0503
    FORHAR:  cpu time      0.0085: real time      0.0086
    MIXING:  cpu time      0.0008: real time      0.0008
    OFIELD:  cpu time      0.0000: real time      0.0000

 ---------------------------------------------------------------------------------------------

         DFTD3 V3.0 Rev 1        
 Edisp (eV)  -13.61118

 E6    (eV) :    -8.3878
 E8    (eV) :    -5.2234
 % E8        : 38.38
    FORVDW:  cpu time      0.2835: real time      0.2854

  FORCE on cell =-STRESS in cart. coord.  units (eV):
  Direction    XX          YY          ZZ          XY          YZ          ZX
  --------------------------------------------------------------------------------------
  Alpha Z   301.89155   301.89155   301.89155
  Ewald   -2914.26914 -2947.86823 -2976.62654   -20.09985     6.21444   -37.62853
  Hartree   747.40610   727.06180   720.87164   -17.33719    -0.54985   -18.06664
  E(xc)    -947.72501  -947.76632  -947.89510    -0.01873     0.05721    -0.08593
  Local   -1539.62035 -1488.00113 -1455.92532    39.18797    -4.83988    54.23192
  n-local  1481.63395  1481.83137  1481.55376    -0.10221     0.04293    -0.47921
  augment  -356.78660  -356.88961  -357.10629     0.08082     0.11671    -0.05396
  Kinetic  3242.16694  3244.20447  3247.22320    -2.03703    -1.85376     1.51756
  Fock        0.00000     0.00000     0.00000     0.00000     0.00000     0.00000
  vdW       -14.41774   -14.42276   -14.40108     0.03521     0.02870     0.01758
  -------------------------------------------------------------------------------------
  Total       0.27969     0.04112    -0.41419    -0.29100    -0.78350    -0.54721
  in kB       0.49835     0.07327    -0.73801    -0.51851    -1.39603    -0.97502
  external pressure =       -0.06 kB  Pullay stress =        0.00 kB


 VOLUME and BASIS-vectors are now :
 -----------------------------------------------------------------------------
  energy-cutoff  :      520.00
  volume of cell :      899.19
      direct lattice vectors                 reciprocal lattice vectors
     9.651992290  0.000000000  0.000000000     0.103605553  0.000000000  0.000000000
     0.000000000  9.651992290  0.000000000     0.000000000  0.103605553  0.000000000
     0.000000000  0.000000000  9.651992290     0.000000000  0.000000000  0.103605553

  length of vectors
     9.651992290  9.651992290  9.651992290     0.103605553  0.103605553  0.103605553


 FORCES acting on ions
    electron-ion (+dipol)            ewald-force                    non-local-force                 convergence-correction
 -----------------------------------------------------------------------------------------------
   -.464E+01 0.262E+01 0.373E+01   0.392E+01 -.364E+01 -.463E+01   0.709E+00 0.102E+01 0.898E+00   0.108E-03 -.738E-04 0.571E-04
   -.605E+01 -.360E+01 0.525E+01   0.529E+01 0.247E+01 -.631E+01   0.756E+00 0.114E+01 0.106E+01   0.101E-03 -.688E-04 0.467E-04
   0.308E+01 0.140E+02 -.108E+02   -.222E+01 -.127E+02 0.949E+01   -.851E+00 -.124E+01 0.136E+01   -.573E-04 0.775E-04 -.104E-03
   0.152E+01 -.246E+01 -.774E+01   -.669E+00 0.151E+01 0.840E+01   -.851E+00 0.948E+00 -.669E+00   0.906E-04 -.447E-04 0.760E-04
   -.385E+01 -.247E-01 -.614E+01   0.262E+01 -.112E+01 0.513E+01   0.123E+01 0.114E+01 0.101E+01   0.576E-04 -.106E-04 0.104E-03
   0.984E-01 -.112E+02 0.496E+01   0.790E+00 0.101E+02 -.405E+01   -.889E+00 0.115E+01 -.906E+00   -.376E-04 -.130E-06 -.979E-04
   0.706E+01 -.721E+01 0.199E+01   -.606E+01 0.601E+01 -.125E+01   -.989E+00 0.120E+01 -.732E+00   0.114E-04 -.157E-03 0.824E-05
   0.757E+01 0.451E+01 0.570E-01   -.845E+01 -.507E+01 -.690E+00   0.887E+00 0.563E+00 0.631E+00   0.353E-04 0.593E-04 -.101E-03
   -.170E+02 0.298E+01 -.151E+02   0.153E+02 -.411E+01 0.133E+02   0.170E+01 0.113E+01 0.184E+01   -.536E-04 0.926E-04 -.551E-04
   0.131E+01 0.796E+01 0.494E+01   -.236E+01 -.739E+01 -.389E+01   0.104E+01 -.569E+00 -.105E+01   -.551E-04 0.103E-03 -.321E-04
   0.209E+01 -.365E+01 -.889E+00   -.981E+00 0.259E+01 0.156E+01   -.111E+01 0.106E+01 -.681E+00   0.841E-04 0.129E-03 0.193E-03
   -.107E+02 -.946E+01 0.999E+01   0.943E+01 0.104E+02 -.863E+01   0.124E+01 -.970E+00 -.136E+01   -.420E-04 0.150E-03 -.682E-05
   0.908E+01 0.369E+01 -.441E+01   -.830E+01 -.258E+01 0.358E+01   -.780E+00 -.110E+01 0.835E+00   0.187E-04 -.153E-04 -.343E-04
   0.539E+01 -.757E+01 -.639E+01   -.427E+01 0.658E+01 0.727E+01   -.112E+01 0.993E+00 -.879E+00   0.409E-04 -.767E-04 -.400E-04
   0.979E+01 -.829E+00 0.499E+01   -.857E+01 -.275E+00 -.454E+01   -.122E+01 0.110E+01 -.445E+00   -.321E-04 -.831E-04 -.119E-03
   -.183E+01 0.325E+01 -.334E+01   0.264E+01 -.215E+01 0.227E+01   -.807E+00 -.110E+01 0.106E+01   -.798E-04 -.279E-04 -.162E-04
   0.161E+01 -.310E+01 0.307E+01   -.240E+01 0.256E+01 -.408E+01   0.794E+00 0.536E+00 0.101E+01   -.101E-03 0.686E-04 -.274E-05
   -.206E+01 0.493E+01 -.197E+01   0.929E+00 -.407E+01 0.277E+01   0.113E+01 -.863E+00 -.803E+00   0.795E-04 -.107E-03 0.795E-04
   -.308E+01 -.106E+02 -.554E+01   0.186E+01 0.986E+01 0.445E+01   0.122E+01 0.708E+00 0.109E+01   -.148E-04 0.324E-04 0.503E-04
   -.103E+02 -.375E+01 0.768E+01   0.919E+01 0.427E+01 -.658E+01   0.109E+01 -.514E+00 -.109E+01   0.430E-04 -.113E-05 0.615E-04
   -.326E+01 -.238E+01 0.263E-01   0.220E+01 0.323E+01 0.927E+00   0.105E+01 -.846E+00 -.955E+00   -.178E-04 -.574E-05 -.946E-04
   -.683E+01 0.295E+01 0.490E+01   0.618E+01 -.215E+01 -.340E+01   0.653E+00 -.797E+00 -.150E+01   -.121E-04 -.115E-04 0.915E-04
   0.287E+01 0.590E+01 0.161E+01   -.222E+01 -.471E+01 -.246E+01   -.645E+00 -.120E+01 0.846E+00   -.113E-03 0.840E-05 -.104E-03
   -.533E+01 0.988E+01 -.804E+01   0.627E+01 -.835E+01 0.693E+01   -.937E+00 -.153E+01 0.111E+01   -.127E-04 -.604E-05 -.209E-04
   0.728E+00 -.224E+01 0.251E+01   -.757E+00 0.253E+01 -.265E+01   0.295E-01 -.279E+00 0.142E+00   -.860E-04 -.969E-04 -.111E-03
   0.328E+00 -.295E+01 0.234E+01   -.386E+00 0.290E+01 -.205E+01   0.550E-01 0.483E-01 -.278E+00   -.207E-04 0.924E-04 0.707E-04
   0.974E+00 0.167E+01 0.826E+00   -.136E+01 -.194E+01 -.144E+01   0.379E+00 0.262E+00 0.609E+00   -.731E-04 -.558E-04 -.704E-04
   0.165E+01 0.525E+01 -.108E+01   -.158E+01 -.533E+01 0.932E+00   -.598E-01 0.756E-01 0.147E+00   0.924E-04 0.459E-04 0.306E-04
   -.434E+02 0.477E+02 -.273E+02   0.466E+02 -.512E+02 0.294E+02   -.318E+01 0.345E+01 -.212E+01   -.901E-04 0.355E-04 -.251E-04
   -.431E+02 -.247E+02 0.539E+02   0.463E+02 0.268E+02 -.572E+02   -.322E+01 -.205E+01 0.328E+01   0.459E-03 0.191E-03 -.159E-03
   0.444E+02 0.461E+02 0.248E+02   -.483E+02 -.488E+02 -.275E+02   0.389E+01 0.269E+01 0.269E+01   0.791E-04 0.576E-04 0.909E-04
   0.156E+02 -.493E+02 -.533E+02   -.170E+02 0.535E+02 0.569E+02   0.147E+01 -.413E+01 -.352E+01   0.190E-03 0.611E-04 -.666E-05
   0.502E+02 -.206E+02 -.402E+02   -.542E+02 0.230E+02 0.432E+02   0.396E+01 -.237E+01 -.305E+01   0.258E-03 -.138E-03 -.883E-04
   0.441E+02 0.433E+02 0.457E+02   -.469E+02 -.461E+02 -.486E+02   0.275E+01 0.281E+01 0.291E+01   0.533E-04 -.528E-04 -.587E-05
   -.370E+02 -.313E+02 0.495E+02   0.403E+02 0.342E+02 -.530E+02   -.328E+01 -.291E+01 0.346E+01   0.221E-03 0.203E-03 -.154E-03
   -.231E+02 0.610E+02 -.293E+02   0.253E+02 -.653E+02 0.317E+02   -.226E+01 0.438E+01 -.243E+01   0.635E-04 0.755E-04 0.456E-04
   -.519E+02 -.524E+02 0.173E+02   0.557E+02 0.561E+02 -.190E+02   -.372E+01 -.371E+01 0.173E+01   0.267E-03 0.153E-03 0.104E-03
   -.309E+02 0.300E+02 -.571E+02   0.332E+02 -.323E+02 0.610E+02   -.232E+01 0.225E+01 -.392E+01   -.116E-03 0.116E-03 -.821E-04
   0.627E+02 -.237E+02 -.379E+02   -.669E+02 0.254E+02 0.403E+02   0.429E+01 -.173E+01 -.237E+01   -.448E-05 0.141E-03 0.401E-03
   0.330E+02 0.411E+02 0.491E+02   -.353E+02 -.445E+02 -.525E+02   0.233E+01 0.346E+01 0.346E+01   -.138E-03 0.117E-03 0.846E-04
   -.300E+02 -.470E+02 0.406E+02   0.327E+02 0.503E+02 -.439E+02   -.267E+01 -.328E+01 0.327E+01   -.589E-04 0.166E-04 0.996E-05
   -.489E+02 0.160E+02 -.520E+02   0.523E+02 -.176E+02 0.560E+02   -.345E+01 0.162E+01 -.396E+01   -.357E-04 -.689E-04 -.143E-03
   0.358E+02 -.591E+02 -.283E+02   -.384E+02 0.630E+02 0.305E+02   0.263E+01 -.390E+01 -.217E+01   -.208E-03 -.842E-04 -.107E-04
   0.384E+02 0.418E+02 0.340E+02   -.418E+02 -.455E+02 -.364E+02   0.334E+01 0.373E+01 0.240E+01   -.409E-04 -.122E-03 -.808E-04
   0.355E+01 0.194E+02 0.128E+02   -.365E+01 -.199E+02 -.131E+02   0.103E+00 0.451E+00 0.292E+00   0.199E-03 -.168E-03 0.640E-04
   0.541E+01 0.398E+01 0.221E+02   -.560E+01 -.402E+01 -.226E+02   0.200E+00 0.413E-01 0.522E+00   -.206E-03 -.512E-04 -.195E-03
   -.230E+01 -.673E+01 -.141E+02   0.242E+01 0.686E+01 0.143E+02   -.114E+00 -.131E+00 -.220E+00   0.450E-04 0.175E-03 0.223E-03
   0.224E+02 0.796E+01 0.161E+01   -.230E+02 -.819E+01 -.166E+01   0.593E+00 0.235E+00 0.571E-01   -.162E-03 0.429E-04 -.217E-03
   -.159E+02 -.515E+02 -.392E+01   0.162E+02 0.523E+02 0.403E+01   -.298E+00 -.870E+00 -.109E+00   -.247E-04 -.162E-03 -.276E-03
   -.142E+01 -.222E+02 -.215E+02   0.150E+01 0.225E+02 0.218E+02   -.826E-01 -.343E+00 -.323E+00   0.117E-03 -.439E-04 0.645E-04
   0.166E+02 0.304E+02 0.214E+02   -.169E+02 -.308E+02 -.218E+02   0.233E+00 0.435E+00 0.414E+00   -.315E-03 0.298E-03 -.445E-03
   -.290E+02 -.956E+00 0.202E+01   0.295E+02 0.950E+00 -.206E+01   -.448E+00 0.495E-02 0.375E-01   -.188E-03 -.169E-03 0.168E-03
 -----------------------------------------------------------------------------------------------
   -.444E+01 -.219E+01 -.265E+01   -.355E-14 -.444E-14 0.462E-13   0.444E+01 0.218E+01 0.265E+01   0.316E-03 0.642E-03 -.773E-03
 
 
 POSITION                                       TOTAL-FORCE (eV/Angst)
 -----------------------------------------------------------------------------------
      9.53699      2.85252      2.81063        -0.000038      0.000072     -0.000044
      9.50640      7.92024      7.54486        -0.000099      0.000528      0.000000
      0.43653      1.80480      8.27483         0.000122     -0.000049      0.000435
      0.17675      7.53997      2.09619        -0.000073      0.000129     -0.000252
      3.24897      2.74223      9.41717         0.000059     -0.000028      0.000021
      2.03009      7.99532      0.16769         0.000068     -0.000059     -0.000050
      6.67668      3.46691      0.36092         0.000048      0.000251      0.000243
      7.64392      7.62278      9.39480        -0.000139      0.000144      0.000097
      3.08921      9.14141      3.24884        -0.000009     -0.000403      0.000237
      3.01468      0.14210      6.62271         0.000066     -0.000090      0.000085
      6.90700      9.57178      7.05271        -0.000588      0.000042     -0.000357
      7.98672      0.44973      1.70889         0.000127      0.000079      0.000131
      1.77340      6.36790      4.42608        -0.000046     -0.000078     -0.000080
      1.70474      2.94566      5.18572        -0.000085     -0.000049      0.000156
      6.47118      7.83918      4.97935        -0.000026     -0.000178     -0.000053
      7.06639      1.97680      4.67148         0.000224      0.000187      0.000235
      2.79504      4.61727      7.54619        -0.000024     -0.000013      0.000045
      2.76450      4.89626      1.85738         0.000144     -0.000237      0.000070
      7.72448      4.69763      3.16733         0.000028      0.000037      0.000036
      8.21072      5.23164      6.46851         0.000301      0.000231      0.000085
      4.73535      2.18421      6.71542         0.000014      0.000261      0.000099
      4.61464      6.76052      1.53668        -0.000059      0.000094     -0.000388
      5.07059      1.89577      2.81681         0.000069     -0.000366      0.000133
      5.27243      6.42056      7.78399         0.000230     -0.000336     -0.000141
      4.83814      4.88068      4.73510         0.000009     -0.000005      0.000015
      4.88479      0.02427      0.02636         0.000084     -0.000172      0.000147
      9.64632      4.79874      9.53634        -0.000169      0.000109     -0.000000
      0.07480      9.63557      4.80466        -0.000213     -0.000251      0.000146
      1.33328      8.34045      5.78567         0.000052     -0.000017      0.000002
      1.28109      1.12456      3.60201         0.000402      0.000433     -0.000439
      8.38503      8.60646      3.64864         0.000094     -0.000023      0.000096
      8.74833      1.18529      6.15522         0.000120     -0.000355     -0.000070
      8.41969      5.86780      1.14736         0.000036     -0.000190     -0.000211
      8.45869      3.66969      8.32078        -0.000288     -0.000322     -0.000143
      1.15775      6.07152      8.42705         0.000127      0.000339     -0.000428
      1.16886      3.45236      0.92024        -0.000215      0.000160     -0.000122
      5.99702      1.41497      8.65233         0.000072      0.000135     -0.000092
      6.11095      8.58595      1.25344        -0.000137      0.000187     -0.000042
      3.51610      0.94582      1.24786        -0.000432      0.000078      0.000225
      3.90356      8.40669      8.39513         0.000232      0.000012      0.000165
      5.88802      6.09559      3.46467         0.000012      0.000046     -0.000241
      6.17414      3.86793      5.93091        -0.000060      0.000145     -0.000033
      3.69160      6.08981      5.93258        -0.000009      0.000017      0.000021
      3.61486      3.59345      3.70607        -0.000074     -0.000280      0.000017
      7.31303      7.31373      7.12782        -0.000015      0.000113      0.000020
      7.27091      2.52329      2.44458         0.000032      0.000035      0.000167
      2.42686      7.12628      2.30226        -0.000055     -0.000205     -0.000137
      2.51614      2.33789      7.26332         0.000037     -0.000043      0.000097
      9.58610      9.28698      9.62406         0.000020     -0.000027      0.000019
      0.05474      4.66736      4.58860        -0.000022     -0.000001      0.000045
      5.06458      0.31374      5.01376         0.000022     -0.000075      0.000013
      4.59316      4.81875      9.61527         0.000023     -0.000011      0.000017
 -----------------------------------------------------------------------------------
    total drift:                               -0.005686     -0.010271     -0.007861


--------------------------------------------------------------------------------------------------------



  FREE ENERGIE OF THE ION-ELECTRON SYSTEM (eV)
  ---------------------------------------------------
  free  energy   TOTEN  =      -272.44723207 eV

  energy  without entropy=     -272.44723207  energy(sigma->0) =     -272.44723207
 
 d Force = 0.3256689E-06[ 0.249E-06, 0.403E-06]  d Energy = 0.9132141E-06-0.588E-06
 d Force = 0.4561863E-02[ 0.456E-02, 0.456E-02]  d Ewald  = 0.4561863E-02-0.146E-10


--------------------------------------------------------------------------------------------------------


    POTLOK:  cpu time      0.4551: real time      0.4580


--------------------------------------------------------------------------------------------------------


 stress matrix after NEB project (eV)
      0.27969     -0.29100     -0.54721
     -0.29100      0.04112     -0.78350
     -0.54721     -0.78350     -0.41419
  FORCES: max atom, RMS     0.000736    0.000308
  FORCE total and by dimension    0.002217    0.000588
  Stress total and by dimension    1.499148    0.783495


--------------------------------------------------------------------------------------------------------


  
 reached required accuracy - stopping structural energy minimisation
     LOOP+:  cpu time      7.4418: real time      7.5290
    4ORBIT:  cpu time      0.0000: real time      0.0000

 total amount of memory used by VASP MPI-rank0    48206. kBytes
=======================================================================

   base      :      30000. kBytes
   nonlr-proj:       6546. kBytes
   fftplans  :       1747. kBytes
   grid      :       5278. kBytes
   one-center:         62. kBytes
   wavefun   :       4573. kBytes
 
  
  
 General timing and accounting informations for this job:
 ========================================================
  
                  Total CPU time used (sec):      104.931
                            User time (sec):      103.751
                          System time (sec):        1.181
                         Elapsed time (sec):      108.835
  
                   Maximum memory used (kb):      377796.
                   Average memory used (kb):          N/A
  
                          Minor page faults:        58389
                          Major page faults:          131
                 Voluntary context switches:         4233
