unknown system                          
           1
     9.651992    0.000000    0.000000
     0.000000    9.651992    0.000000
     0.000000    0.000000    9.651992
   Li   P    S    Cl
    24     4    20     4
Direct configuration=     1
   0.98808371  0.29553409  0.29119621
   0.98491814  0.82056347  0.78169017
   0.04522397  0.18698892  0.85730356
   0.01831302  0.78117609  0.21718664
   0.33660545  0.28411214  0.97567053
   0.21032575  0.82836093  0.01737777
   0.69173988  0.35918320  0.03738850
   0.79195723  0.78975610  0.97335308
   0.32005915  0.94711126  0.33659103
   0.31233343  0.01472367  0.68614944
   0.71562420  0.99168764  0.73071310
   0.82746292  0.04658934  0.17704827
   0.18373595  0.65975430  0.45857178
   0.17662508  0.30518941  0.53726500
   0.67045274  0.81218849  0.51589216
   0.73211124  0.20480245  0.48398666
   0.28958141  0.47837295  0.78182677
   0.28641048  0.50728707  0.19243325
   0.80029912  0.48669781  0.32814975
   0.85066510  0.54201976  0.67016990
   0.49060878  0.22628762  0.69575246
   0.47810495  0.70042430  0.15922292
   0.52534098  0.19642575  0.29183427
   0.54624606  0.66521708  0.80646964
   0.50125777  0.50566680  0.49058193
   0.50609192  0.00251743  0.00273118
   0.99942121  0.49718031  0.98801771
   0.00775139  0.99830126  0.49778508
   0.13813173  0.86411763  0.59943252
   0.13272784  0.11651152  0.37318902
   0.86873335  0.89167808  0.37801836
   0.90637233  0.12281015  0.63771147
   0.87232946  0.60793676  0.11887774
   0.87637351  0.38020554  0.86208539
   0.11995918  0.62904415  0.87309367
   0.12110466  0.35767793  0.09534826
   0.62132767  0.14659689  0.89642501
   0.63312974  0.88954501  0.12985711
   0.36429371  0.09799845  0.12928585
   0.40442184  0.87098291  0.86978069
   0.61003759  0.63153942  0.35896624
   0.63967350  0.40073036  0.61447418
   0.38246927  0.63093650  0.61465113
   0.37451619  0.37230586  0.38396250
   0.75767026  0.75773826  0.73848265
   0.75330821  0.26142559  0.25326855
   0.25143768  0.73832667  0.23853131
   0.26068680  0.24221899  0.75251822
   0.99316857  0.96217636  0.99709762
   0.00567066  0.48356384  0.47540274
   0.52471683  0.03250851  0.51945009
   0.47587290  0.49924995  0.99619955
Direct configuration=     2
   0.98808388  0.29553460  0.29119627
   0.98491767  0.82056639  0.78168996
   0.04522447  0.18698867  0.85730589
   0.01831281  0.78117704  0.21718511
   0.33660626  0.28411192  0.97567066
   0.21032625  0.82836067  0.01737698
   0.69174015  0.35918462  0.03738941
   0.79195628  0.78975718  0.97335324
   0.32005915  0.94710947  0.33659224
   0.31233419  0.01472341  0.68614958
   0.71562082  0.99168795  0.73071098
   0.82746375  0.04659002  0.17704862
   0.18373564  0.65975357  0.45857090
   0.17662425  0.30518899  0.53726581
   0.67045225  0.81218752  0.51589163
   0.73211228  0.20480333  0.48398762
   0.28958152  0.47837313  0.78182683
   0.28641161  0.50728568  0.19243353
   0.80029914  0.48669823  0.32815028
   0.85066688  0.54202086  0.67017037
   0.49060879  0.22628900  0.69575281
   0.47810454  0.70042489  0.15922058
   0.52534110  0.19642355  0.29183482
   0.54624723  0.66521516  0.80646887
   0.50125821  0.50566600  0.49058273
   0.50609211  0.00251522  0.00273069
   0.99941972  0.49717894  0.98802063
   0.00774967  0.99830003  0.49778766
   0.13813190  0.86411786  0.59943122
   0.13272878  0.11651209  0.37318780
   0.86873408  0.89167828  0.37801885
   0.90637365  0.12280813  0.63771121
   0.87232985  0.60793594  0.11887588
   0.87637200  0.38020431  0.86208376
   0.11995804  0.62904466  0.87309220
   0.12110307  0.35767986  0.09534625
   0.62132723  0.14659742  0.89642581
   0.63312897  0.88954675  0.12985777
   0.36429212  0.09799770  0.12928608
   0.40442392  0.87098328  0.86978176
   0.61003641  0.63153911  0.35896493
   0.63967318  0.40073244  0.61447372
   0.38246952  0.63093674  0.61465031
   0.37451688  0.37230531  0.38396372
   0.75767035  0.75773884  0.73848241
   0.75330792  0.26142578  0.25326897
   0.25143750  0.73832597  0.23853068
   0.26068655  0.24221877  0.75251859
   0.99316986  0.96217850  0.99709934
   0.00567086  0.48356421  0.47540350
   0.52471704  0.03250716  0.51945039
   0.47587420  0.49924982  0.99619882
Direct configuration=     3
   0.98808397  0.29553489  0.29119630
   0.98491740  0.82056803  0.78168984
   0.04522475  0.18698853  0.85730719
   0.01831270  0.78117756  0.21718425
   0.33660672  0.28411179  0.97567073
   0.21032653  0.82836052  0.01737655
   0.69174030  0.35918541  0.03738993
   0.79195575  0.78975778  0.97335332
   0.32005915  0.94710846  0.33659292
   0.31233461  0.01472326  0.68614965
   0.71561893  0.99168813  0.73070979
   0.82746423  0.04659041  0.17704882
   0.18373546  0.65975316  0.45857041
   0.17662379  0.30518875  0.53726627
   0.67045197  0.81218699  0.51589133
   0.73211286  0.20480382  0.48398815
   0.28958158  0.47837323  0.78182686
   0.28641224  0.50728491  0.19243369
   0.80029915  0.48669847  0.32815057
   0.85066788  0.54202147  0.67017064
   0.49060880  0.22628978  0.69575301
   0.47810431  0.70042522  0.15921926
   0.52534116  0.19642232  0.29183514
   0.54624789  0.66521408  0.80646844
   0.50125846  0.50566555  0.49058318
   0.50609222  0.00251398  0.00273042
   0.99941888  0.49717817  0.98802227
   0.00774871  0.99829934  0.49778911
   0.13813200  0.86411800  0.59943048
   0.13272931  0.11651240  0.37318711
   0.86873448  0.89167839  0.37801912
   0.90637439  0.12280700  0.63771107
   0.87233008  0.60793549  0.11887484
   0.87637115  0.38020363  0.86208285
   0.11995740  0.62904495  0.87309138
   0.12110218  0.35768095  0.09534512
   0.62132699  0.14659771  0.89642626
   0.63312854  0.88954772  0.12985813
   0.36429123  0.09799728  0.12928621
   0.40442509  0.87098349  0.86978236
   0.61003575  0.63153894  0.35896419
   0.63967300  0.40073361  0.61447345
   0.38246965  0.63093688  0.61464985
   0.37451726  0.37230501  0.38396440
   0.75767039  0.75773916  0.73848227
   0.75330775  0.26142589  0.25326921
   0.25143740  0.73832557  0.23853033
   0.26068641  0.24221864  0.75251880
   0.99317059  0.96217970  0.99710031
   0.00567097  0.48356442  0.47540393
   0.52471716  0.03250641  0.51945056
   0.47587493  0.49924974  0.99619841
Direct configuration=     4
   0.98808416  0.29553547  0.29119636
   0.98491687  0.82057130  0.78168961
   0.04522532  0.18698826  0.85730980
   0.01831246  0.78117862  0.21718254
   0.33660764  0.28411155  0.97567088
   0.21032709  0.82836023  0.01737567
   0.69174061  0.35918701  0.03739095
   0.79195469  0.78975898  0.97335349
   0.32005914  0.94710645  0.33659427
   0.31233545  0.01472296  0.68614980
   0.71561515  0.99168849  0.73070740
   0.82746517  0.04659118  0.17704922
   0.18373511  0.65975234  0.45856942
   0.17662287  0.30518827  0.53726717
   0.67045142  0.81218591  0.51589073
   0.73211403  0.20480479  0.48398922
   0.28958170  0.47837342  0.78182692
   0.28641351  0.50728335  0.19243401
   0.80029917  0.48669895  0.32815116
   0.85066988  0.54202270  0.67017117
   0.49060882  0.22629134  0.69575340
   0.47810384  0.70042588  0.15921663
   0.52534129  0.19641985  0.29183576
   0.54624920  0.66521193  0.80646757
   0.50125896  0.50566466  0.49058408
   0.50609244  0.00251150  0.00272988
   0.99941720  0.49717663  0.98802554
   0.00774678  0.99829797  0.49779201
   0.13813219  0.86411826  0.59942902
   0.13273038  0.11651303  0.37318574
   0.86873530  0.89167862  0.37801967
   0.90637587  0.12280474  0.63771078
   0.87233052  0.60793457  0.11887275
   0.87636945  0.38020225  0.86208102
   0.11995612  0.62904552  0.87308973
   0.12110039  0.35768312  0.09534287
   0.62132649  0.14659830  0.89642716
   0.63312768  0.88954968  0.12985887
   0.36428946  0.09799643  0.12928648
   0.40442742  0.87098390  0.86978356
   0.61003443  0.63153859  0.35896272
   0.63967264  0.40073594  0.61447293
   0.38246992  0.63093715  0.61464892
   0.37451802  0.37230440  0.38396577
   0.75767048  0.75773981  0.73848199
   0.75330742  0.26142611  0.25326968
   0.25143720  0.73832479  0.23852962
   0.26068612  0.24221839  0.75251922
   0.99317205  0.96218209  0.99710224
   0.00567118  0.48356484  0.47540479
   0.52471739  0.03250489  0.51945090
   0.47587640  0.49924959  0.99619759
Direct configuration=     5
   0.98808462  0.29553604  0.29119662
   0.98491642  0.82057579  0.78168951
   0.04522614  0.18698805  0.85731359
   0.01831254  0.78118036  0.21718012
   0.33660931  0.28411102  0.97567095
   0.21032777  0.82835977  0.01737449
   0.69174109  0.35918912  0.03739223
   0.79195347  0.78976073  0.97335344
   0.32005910  0.94710389  0.33659613
   0.31233665  0.01472280  0.68614989
   0.71560955  0.99168907  0.73070411
   0.82746672  0.04659256  0.17704976
   0.18373474  0.65975120  0.45856800
   0.17662165  0.30518750  0.53726816
   0.67045070  0.81218432  0.51588977
   0.73211570  0.20480624  0.48399039
   0.28958163  0.47837401  0.78182704
   0.28641548  0.50728154  0.19243455
   0.80029917  0.48669981  0.32815207
   0.85067303  0.54202467  0.67017207
   0.49060882  0.22629352  0.69575407
   0.47810316  0.70042674  0.15921303
   0.52534128  0.19641637  0.29183645
   0.54625118  0.66520882  0.80646625
   0.50125882  0.50566517  0.49058322
   0.50609200  0.00251286  0.00273063
   0.99941514  0.49717648  0.98802212
   0.00774836  0.99829828  0.49779078
   0.13813344  0.86411747  0.59942852
   0.13272907  0.11651176  0.37318670
   0.86873528  0.89167793  0.37801967
   0.90637586  0.12280370  0.63771285
   0.87232892  0.60793533  0.11887262
   0.87636840  0.38020143  0.86208026
   0.11995282  0.62904447  0.87308924
   0.12110027  0.35768342  0.09534250
   0.62132572  0.14659848  0.89642813
   0.63312821  0.88955087  0.12986112
   0.36428842  0.09799466  0.12928574
   0.40442892  0.87098209  0.86978297
   0.61003298  0.63153795  0.35896103
   0.63967383  0.40073745  0.61447382
   0.38246999  0.63093763  0.61464837
   0.37451862  0.37230279  0.38396727
   0.75767072  0.75774117  0.73848197
   0.75330729  0.26142654  0.25327087
   0.25143677  0.73832343  0.23852824
   0.26068632  0.24221824  0.75251983
   0.99317246  0.96218254  0.99710398
   0.00567130  0.48356444  0.47540448
   0.52471809  0.03250499  0.51945229
   0.47587658  0.49924948  0.99619674
Direct configuration=     6
   0.98808514  0.29553669  0.29119690
   0.98491592  0.82058086  0.78168939
   0.04522707  0.18698782  0.85731786
   0.01831264  0.78118231  0.21717741
   0.33661119  0.28411042  0.97567102
   0.21032853  0.82835924  0.01737315
   0.69174163  0.35919150  0.03739366
   0.79195208  0.78976270  0.97335338
   0.32005906  0.94710099  0.33659823
   0.31233800  0.01472262  0.68615000
   0.71560324  0.99168972  0.73070039
   0.82746847  0.04659412  0.17705037
   0.18373433  0.65974991  0.45856641
   0.17662027  0.30518662  0.53726927
   0.67044990  0.81218254  0.51588869
   0.73211758  0.20480787  0.48399172
   0.28958154  0.47837467  0.78182716
   0.28641770  0.50727950  0.19243516
   0.80029917  0.48670077  0.32815309
   0.85067659  0.54202689  0.67017308
   0.49060880  0.22629598  0.69575483
   0.47810239  0.70042772  0.15920896
   0.52534127  0.19641245  0.29183723
   0.54625341  0.66520533  0.80646476
   0.50125866  0.50566574  0.49058226
   0.50609151  0.00251440  0.00273147
   0.99941282  0.49717631  0.98801827
   0.00775014  0.99829864  0.49778940
   0.13813485  0.86411659  0.59942796
   0.13272760  0.11651033  0.37318778
   0.86873527  0.89167715  0.37801967
   0.90637584  0.12280253  0.63771519
   0.87232711  0.60793619  0.11887248
   0.87636721  0.38020051  0.86207941
   0.11994910  0.62904329  0.87308870
   0.12110014  0.35768375  0.09534209
   0.62132486  0.14659868  0.89642922
   0.63312880  0.88955221  0.12986366
   0.36428725  0.09799266  0.12928492
   0.40443061  0.87098005  0.86978231
   0.61003133  0.63153723  0.35895912
   0.63967517  0.40073916  0.61447483
   0.38247006  0.63093817  0.61464775
   0.37451930  0.37230099  0.38396897
   0.75767098  0.75774270  0.73848193
   0.75330714  0.26142702  0.25327222
   0.25143628  0.73832189  0.23852667
   0.26068655  0.24221807  0.75252051
   0.99317292  0.96218305  0.99710595
   0.00567142  0.48356400  0.47540413
   0.52471887  0.03250510  0.51945386
   0.47587678  0.49924935  0.99619579
