  52  52   0  16
  0.1733759E+02  0.9660450E-09  0.9660450E-09  0.9660450E-09  0.2000000E-15
  1.000000000000000E-004
  CAR 
 unknown system                          
     12.56423286    -45.22303203  301      2.01805701      1.00000000
    -45.223  0.0000E+00  0.0000E+00  0.0000E+00  0.0000E+00
    -45.030  0.0000E+00  0.0000E+00  0.0000E+00  0.0000E+00
    -44.838  0.0000E+00  0.0000E+00  0.0000E+00  0.0000E+00
    -44.645  0.0000E+00  0.0000E+00  0.0000E+00  0.0000E+00
    -44.453  0.0000E+00  0.0000E+00  0.0000E+00  0.0000E+00
    -44.260  0.0000E+00  0.0000E+00  0.0000E+00  0.0000E+00
    -44.067  0.0000E+00  0.0000E+00  0.0000E+00  0.0000E+00
    -43.875  0.0000E+00  0.0000E+00  0.0000E+00  0.0000E+00
    -43.682  0.0000E+00  0.0000E+00  0.0000E+00  0.0000E+00
    -43.489  0.0000E+00  0.0000E+00  0.0000E+00  0.0000E+00
    -43.297  0.0000E+00  0.0000E+00  0.0000E+00  0.0000E+00
    -43.104  0.0000E+00  0.0000E+00  0.0000E+00  0.0000E+00
    -42.912  0.0000E+00  0.0000E+00  0.0000E+00  0.0000E+00
    -42.719  0.1995E-10  0.1995E-10  0.3842E-11  0.3842E-11
    -42.526  0.1391E-01  0.1391E-01  0.2680E-02  0.2680E-02
    -42.334  0.5601E-01  0.5601E-01  0.1347E-01  0.1347E-01
    -42.141  0.5462E-01  0.5462E-01  0.2400E-01  0.2400E-01
    -41.948  0.0000E+00  0.0000E+00  0.2400E-01  0.2400E-01
    -41.756  0.0000E+00  0.0000E+00  0.2400E-01  0.2400E-01
    -41.563  0.0000E+00  0.0000E+00  0.2400E-01  0.2400E-01
    -41.371  0.0000E+00  0.0000E+00  0.2400E-01  0.2400E-01
    -41.178  0.0000E+00  0.0000E+00  0.2400E-01  0.2400E-01
    -40.985  0.0000E+00  0.0000E+00  0.2400E-01  0.2400E-01
    -40.793  0.0000E+00  0.0000E+00  0.2400E-01  0.2400E-01
    -40.600  0.0000E+00  0.0000E+00  0.2400E-01  0.2400E-01
    -40.407  0.0000E+00  0.0000E+00  0.2400E-01  0.2400E-01
    -40.215  0.0000E+00  0.0000E+00  0.2400E-01  0.2400E-01
    -40.022  0.0000E+00  0.0000E+00  0.2400E-01  0.2400E-01
    -39.830  0.0000E+00  0.0000E+00  0.2400E-01  0.2400E-01
    -39.637  0.0000E+00  0.0000E+00  0.2400E-01  0.2400E-01
    -39.444  0.0000E+00  0.0000E+00  0.2400E-01  0.2400E-01
    -39.252  0.0000E+00  0.0000E+00  0.2400E-01  0.2400E-01
    -39.059  0.0000E+00  0.0000E+00  0.2400E-01  0.2400E-01
    -38.866  0.0000E+00  0.0000E+00  0.2400E-01  0.2400E-01
    -38.674  0.0000E+00  0.0000E+00  0.2400E-01  0.2400E-01
    -38.481  0.0000E+00  0.0000E+00  0.2400E-01  0.2400E-01
    -38.289  0.0000E+00  0.0000E+00  0.2400E-01  0.2400E-01
    -38.096  0.0000E+00  0.0000E+00  0.2400E-01  0.2400E-01
    -37.903  0.0000E+00  0.0000E+00  0.2400E-01  0.2400E-01
    -37.711  0.0000E+00  0.0000E+00  0.2400E-01  0.2400E-01
    -37.518  0.0000E+00  0.0000E+00  0.2400E-01  0.2400E-01
    -37.325  0.0000E+00  0.0000E+00  0.2400E-01  0.2400E-01
    -37.133  0.0000E+00  0.0000E+00  0.2400E-01  0.2400E-01
    -36.940  0.0000E+00  0.0000E+00  0.2400E-01  0.2400E-01
    -36.748  0.0000E+00  0.0000E+00  0.2400E-01  0.2400E-01
    -36.555  0.0000E+00  0.0000E+00  0.2400E-01  0.2400E-01
    -36.362  0.0000E+00  0.0000E+00  0.2400E-01  0.2400E-01
    -36.170  0.0000E+00  0.0000E+00  0.2400E-01  0.2400E-01
    -35.977  0.0000E+00  0.0000E+00  0.2400E-01  0.2400E-01
    -35.784  0.0000E+00  0.0000E+00  0.2400E-01  0.2400E-01
    -35.592  0.0000E+00  0.0000E+00  0.2400E-01  0.2400E-01
    -35.399  0.0000E+00  0.0000E+00  0.2400E-01  0.2400E-01
    -35.207  0.0000E+00  0.0000E+00  0.2400E-01  0.2400E-01
    -35.014  0.0000E+00  0.0000E+00  0.2400E-01  0.2400E-01
    -34.821  0.0000E+00  0.0000E+00  0.2400E-01  0.2400E-01
    -34.629  0.0000E+00  0.0000E+00  0.2400E-01  0.2400E-01
    -34.436  0.0000E+00  0.0000E+00  0.2400E-01  0.2400E-01
    -34.243  0.0000E+00  0.0000E+00  0.2400E-01  0.2400E-01
    -34.051  0.0000E+00  0.0000E+00  0.2400E-01  0.2400E-01
    -33.858  0.0000E+00  0.0000E+00  0.2400E-01  0.2400E-01
    -33.666  0.0000E+00  0.0000E+00  0.2400E-01  0.2400E-01
    -33.473  0.0000E+00  0.0000E+00  0.2400E-01  0.2400E-01
    -33.280  0.0000E+00  0.0000E+00  0.2400E-01  0.2400E-01
    -33.088  0.0000E+00  0.0000E+00  0.2400E-01  0.2400E-01
    -32.895  0.0000E+00  0.0000E+00  0.2400E-01  0.2400E-01
    -32.702  0.0000E+00  0.0000E+00  0.2400E-01  0.2400E-01
    -32.510  0.0000E+00  0.0000E+00  0.2400E-01  0.2400E-01
    -32.317  0.0000E+00  0.0000E+00  0.2400E-01  0.2400E-01
    -32.125  0.0000E+00  0.0000E+00  0.2400E-01  0.2400E-01
    -31.932  0.0000E+00  0.0000E+00  0.2400E-01  0.2400E-01
    -31.739  0.0000E+00  0.0000E+00  0.2400E-01  0.2400E-01
    -31.547  0.0000E+00  0.0000E+00  0.2400E-01  0.2400E-01
    -31.354  0.0000E+00  0.0000E+00  0.2400E-01  0.2400E-01
    -31.161  0.0000E+00  0.0000E+00  0.2400E-01  0.2400E-01
    -30.969  0.0000E+00  0.0000E+00  0.2400E-01  0.2400E-01
    -30.776  0.0000E+00  0.0000E+00  0.2400E-01  0.2400E-01
    -30.584  0.0000E+00  0.0000E+00  0.2400E-01  0.2400E-01
    -30.391  0.0000E+00  0.0000E+00  0.2400E-01  0.2400E-01
    -30.198  0.0000E+00  0.0000E+00  0.2400E-01  0.2400E-01
    -30.006  0.0000E+00  0.0000E+00  0.2400E-01  0.2400E-01
    -29.813  0.0000E+00  0.0000E+00  0.2400E-01  0.2400E-01
    -29.620  0.0000E+00  0.0000E+00  0.2400E-01  0.2400E-01
    -29.428  0.0000E+00  0.0000E+00  0.2400E-01  0.2400E-01
    -29.235  0.0000E+00  0.0000E+00  0.2400E-01  0.2400E-01
    -29.043  0.0000E+00  0.0000E+00  0.2400E-01  0.2400E-01
    -28.850  0.0000E+00  0.0000E+00  0.2400E-01  0.2400E-01
    -28.657  0.0000E+00  0.0000E+00  0.2400E-01  0.2400E-01
    -28.465  0.0000E+00  0.0000E+00  0.2400E-01  0.2400E-01
    -28.272  0.0000E+00  0.0000E+00  0.2400E-01  0.2400E-01
    -28.079  0.0000E+00  0.0000E+00  0.2400E-01  0.2400E-01
    -27.887  0.0000E+00  0.0000E+00  0.2400E-01  0.2400E-01
    -27.694  0.0000E+00  0.0000E+00  0.2400E-01  0.2400E-01
    -27.502  0.0000E+00  0.0000E+00  0.2400E-01  0.2400E-01
    -27.309  0.0000E+00  0.0000E+00  0.2400E-01  0.2400E-01
    -27.116  0.0000E+00  0.0000E+00  0.2400E-01  0.2400E-01
    -26.924  0.0000E+00  0.0000E+00  0.2400E-01  0.2400E-01
    -26.731  0.0000E+00  0.0000E+00  0.2400E-01  0.2400E-01
    -26.538  0.0000E+00  0.0000E+00  0.2400E-01  0.2400E-01
    -26.346  0.0000E+00  0.0000E+00  0.2400E-01  0.2400E-01
    -26.153  0.0000E+00  0.0000E+00  0.2400E-01  0.2400E-01
    -25.961  0.0000E+00  0.0000E+00  0.2400E-01  0.2400E-01
    -25.768  0.0000E+00  0.0000E+00  0.2400E-01  0.2400E-01
    -25.575  0.0000E+00  0.0000E+00  0.2400E-01  0.2400E-01
    -25.383  0.0000E+00  0.0000E+00  0.2400E-01  0.2400E-01
    -25.190  0.0000E+00  0.0000E+00  0.2400E-01  0.2400E-01
    -24.997  0.0000E+00  0.0000E+00  0.2400E-01  0.2400E-01
    -24.805  0.0000E+00  0.0000E+00  0.2400E-01  0.2400E-01
    -24.612  0.0000E+00  0.0000E+00  0.2400E-01  0.2400E-01
    -24.420  0.0000E+00  0.0000E+00  0.2400E-01  0.2400E-01
    -24.227  0.0000E+00  0.0000E+00  0.2400E-01  0.2400E-01
    -24.034  0.0000E+00  0.0000E+00  0.2400E-01  0.2400E-01
    -23.842  0.0000E+00  0.0000E+00  0.2400E-01  0.2400E-01
    -23.649  0.0000E+00  0.0000E+00  0.2400E-01  0.2400E-01
    -23.456  0.0000E+00  0.0000E+00  0.2400E-01  0.2400E-01
    -23.264  0.0000E+00  0.0000E+00  0.2400E-01  0.2400E-01
    -23.071  0.0000E+00  0.0000E+00  0.2400E-01  0.2400E-01
    -22.879  0.0000E+00  0.0000E+00  0.2400E-01  0.2400E-01
    -22.686  0.0000E+00  0.0000E+00  0.2400E-01  0.2400E-01
    -22.493  0.0000E+00  0.0000E+00  0.2400E-01  0.2400E-01
    -22.301  0.0000E+00  0.0000E+00  0.2400E-01  0.2400E-01
    -22.108  0.0000E+00  0.0000E+00  0.2400E-01  0.2400E-01
    -21.916  0.0000E+00  0.0000E+00  0.2400E-01  0.2400E-01
    -21.723  0.0000E+00  0.0000E+00  0.2400E-01  0.2400E-01
    -21.530  0.0000E+00  0.0000E+00  0.2400E-01  0.2400E-01
    -21.338  0.0000E+00  0.0000E+00  0.2400E-01  0.2400E-01
    -21.145  0.0000E+00  0.0000E+00  0.2400E-01  0.2400E-01
    -20.952  0.0000E+00  0.0000E+00  0.2400E-01  0.2400E-01
    -20.760  0.0000E+00  0.0000E+00  0.2400E-01  0.2400E-01
    -20.567  0.0000E+00  0.0000E+00  0.2400E-01  0.2400E-01
    -20.375  0.0000E+00  0.0000E+00  0.2400E-01  0.2400E-01
    -20.182  0.0000E+00  0.0000E+00  0.2400E-01  0.2400E-01
    -19.989  0.0000E+00  0.0000E+00  0.2400E-01  0.2400E-01
    -19.797  0.0000E+00  0.0000E+00  0.2400E-01  0.2400E-01
    -19.604  0.0000E+00  0.0000E+00  0.2400E-01  0.2400E-01
    -19.411  0.0000E+00  0.0000E+00  0.2400E-01  0.2400E-01
    -19.219  0.0000E+00  0.0000E+00  0.2400E-01  0.2400E-01
    -19.026  0.0000E+00  0.0000E+00  0.2400E-01  0.2400E-01
    -18.834  0.0000E+00  0.0000E+00  0.2400E-01  0.2400E-01
    -18.641  0.0000E+00  0.0000E+00  0.2400E-01  0.2400E-01
    -18.448  0.0000E+00  0.0000E+00  0.2400E-01  0.2400E-01
    -18.256  0.0000E+00  0.0000E+00  0.2400E-01  0.2400E-01
    -18.063  0.0000E+00  0.0000E+00  0.2400E-01  0.2400E-01
    -17.870  0.0000E+00  0.0000E+00  0.2400E-01  0.2400E-01
    -17.678  0.0000E+00  0.0000E+00  0.2400E-01  0.2400E-01
    -17.485  0.0000E+00  0.0000E+00  0.2400E-01  0.2400E-01
    -17.293  0.0000E+00  0.0000E+00  0.2400E-01  0.2400E-01
    -17.100  0.0000E+00  0.0000E+00  0.2400E-01  0.2400E-01
    -16.907  0.0000E+00  0.0000E+00  0.2400E-01  0.2400E-01
    -16.715  0.0000E+00  0.0000E+00  0.2400E-01  0.2400E-01
    -16.522  0.0000E+00  0.0000E+00  0.2400E-01  0.2400E-01
    -16.329  0.0000E+00  0.0000E+00  0.2400E-01  0.2400E-01
    -16.137  0.0000E+00  0.0000E+00  0.2400E-01  0.2400E-01
    -15.944  0.0000E+00  0.0000E+00  0.2400E-01  0.2400E-01
    -15.752  0.0000E+00  0.0000E+00  0.2400E-01  0.2400E-01
    -15.559  0.0000E+00  0.0000E+00  0.2400E-01  0.2400E-01
    -15.366  0.0000E+00  0.0000E+00  0.2400E-01  0.2400E-01
    -15.174  0.0000E+00  0.0000E+00  0.2400E-01  0.2400E-01
    -14.981  0.0000E+00  0.0000E+00  0.2400E-01  0.2400E-01
    -14.788  0.0000E+00  0.0000E+00  0.2400E-01  0.2400E-01
    -14.596  0.0000E+00  0.0000E+00  0.2400E-01  0.2400E-01
    -14.403  0.0000E+00  0.0000E+00  0.2400E-01  0.2400E-01
    -14.211  0.0000E+00  0.0000E+00  0.2400E-01  0.2400E-01
    -14.018  0.0000E+00  0.0000E+00  0.2400E-01  0.2400E-01
    -13.825  0.0000E+00  0.0000E+00  0.2400E-01  0.2400E-01
    -13.633  0.0000E+00  0.0000E+00  0.2400E-01  0.2400E-01
    -13.440  0.0000E+00  0.0000E+00  0.2400E-01  0.2400E-01
    -13.247  0.2378E-17  0.2378E-17  0.2400E-01  0.2400E-01
    -13.055  0.4423E-02  0.4423E-02  0.2485E-01  0.2485E-01
    -12.862  0.1634E-01  0.1634E-01  0.2800E-01  0.2800E-01
    -12.670  0.1176E-02  0.1176E-02  0.2823E-01  0.2823E-01
    -12.477  0.1959E-01  0.1959E-01  0.3200E-01  0.3200E-01
    -12.284  0.0000E+00  0.0000E+00  0.3200E-01  0.3200E-01
    -12.092  0.0000E+00  0.0000E+00  0.3200E-01  0.3200E-01
    -11.899  0.0000E+00  0.0000E+00  0.3200E-01  0.3200E-01
    -11.706  0.0000E+00  0.0000E+00  0.3200E-01  0.3200E-01
    -11.514  0.0000E+00  0.0000E+00  0.3200E-01  0.3200E-01
    -11.321  0.0000E+00  0.0000E+00  0.3200E-01  0.3200E-01
    -11.129  0.0000E+00  0.0000E+00  0.3200E-01  0.3200E-01
    -10.936  0.0000E+00  0.0000E+00  0.3200E-01  0.3200E-01
    -10.743  0.0000E+00  0.0000E+00  0.3200E-01  0.3200E-01
    -10.551  0.0000E+00  0.0000E+00  0.3200E-01  0.3200E-01
    -10.358  0.5888E-05  0.5888E-05  0.3200E-01  0.3200E-01
    -10.165  0.1568E-01  0.1568E-01  0.3502E-01  0.3502E-01
     -9.973  0.2264E-01  0.2264E-01  0.3938E-01  0.3938E-01
     -9.780  0.2393E-01  0.2393E-01  0.4399E-01  0.4399E-01
     -9.588  0.0000E+00  0.0000E+00  0.4400E-01  0.4400E-01
     -9.395  0.0000E+00  0.0000E+00  0.4400E-01  0.4400E-01
     -9.202  0.0000E+00  0.0000E+00  0.4400E-01  0.4400E-01
     -9.010  0.0000E+00  0.0000E+00  0.4400E-01  0.4400E-01
     -8.817  0.0000E+00  0.0000E+00  0.4400E-01  0.4400E-01
     -8.624  0.0000E+00  0.0000E+00  0.4400E-01  0.4400E-01
     -8.432  0.3273E-07  0.3273E-07  0.4400E-01  0.4400E-01
     -8.239  0.2027E-01  0.2027E-01  0.4790E-01  0.4790E-01
     -8.047  0.4434E-03  0.4434E-03  0.4800E-01  0.4800E-01
     -7.854  0.0000E+00  0.0000E+00  0.4800E-01  0.4800E-01
     -7.661  0.0000E+00  0.0000E+00  0.4800E-01  0.4800E-01
     -7.469  0.0000E+00  0.0000E+00  0.4800E-01  0.4800E-01
     -7.276  0.0000E+00  0.0000E+00  0.4800E-01  0.4800E-01
     -7.083  0.0000E+00  0.0000E+00  0.4800E-01  0.4800E-01
     -6.891  0.0000E+00  0.0000E+00  0.4800E-01  0.4800E-01
     -6.698  0.0000E+00  0.0000E+00  0.4800E-01  0.4800E-01
     -6.506  0.0000E+00  0.0000E+00  0.4800E-01  0.4800E-01
     -6.313  0.0000E+00  0.0000E+00  0.4800E-01  0.4800E-01
     -6.120  0.3074E-02  0.3074E-02  0.4859E-01  0.4859E-01
     -5.928  0.2117E-02  0.2117E-02  0.4900E-01  0.4900E-01
     -5.735  0.1127E-02  0.1127E-02  0.4922E-01  0.4922E-01
     -5.542  0.1436E-01  0.1436E-01  0.5198E-01  0.5198E-01
     -5.350  0.7030E-04  0.7030E-04  0.5200E-01  0.5200E-01
     -5.157  0.0000E+00  0.0000E+00  0.5200E-01  0.5200E-01
     -4.965  0.0000E+00  0.0000E+00  0.5200E-01  0.5200E-01
     -4.772  0.0000E+00  0.0000E+00  0.5200E-01  0.5200E-01
     -4.579  0.0000E+00  0.0000E+00  0.5200E-01  0.5200E-01
     -4.387  0.0000E+00  0.0000E+00  0.5200E-01  0.5200E-01
     -4.194  0.0000E+00  0.0000E+00  0.5200E-01  0.5200E-01
     -4.001  0.0000E+00  0.0000E+00  0.5200E-01  0.5200E-01
     -3.809  0.0000E+00  0.0000E+00  0.5200E-01  0.5200E-01
     -3.616  0.0000E+00  0.0000E+00  0.5200E-01  0.5200E-01
     -3.424  0.0000E+00  0.0000E+00  0.5200E-01  0.5200E-01
     -3.231  0.2845E-02  0.2845E-02  0.5255E-01  0.5255E-01
     -3.038  0.1273E-01  0.1273E-01  0.5500E-01  0.5500E-01
     -2.846  0.2466E-02  0.2466E-02  0.5548E-01  0.5548E-01
     -2.653  0.1191E-01  0.1191E-01  0.5777E-01  0.5777E-01
     -2.460  0.1101E-01  0.1101E-01  0.5989E-01  0.5989E-01
     -2.268  0.1677E-01  0.1677E-01  0.6313E-01  0.6313E-01
     -2.075  0.4528E-02  0.4528E-02  0.6400E-01  0.6400E-01
     -1.883  0.0000E+00  0.0000E+00  0.6400E-01  0.6400E-01
     -1.690  0.3709E-09  0.3709E-09  0.6400E-01  0.6400E-01
     -1.497  0.1513E-01  0.1513E-01  0.6692E-01  0.6692E-01
     -1.305  0.1638E-01  0.1638E-01  0.7007E-01  0.7007E-01
     -1.112  0.2104E-01  0.2104E-01  0.7413E-01  0.7413E-01
     -0.919  0.9703E-02  0.9703E-02  0.7600E-01  0.7600E-01
     -0.727  0.1849E-14  0.1849E-14  0.7600E-01  0.7600E-01
     -0.534  0.7262E-02  0.7262E-02  0.7740E-01  0.7740E-01
     -0.342  0.1173E-01  0.1173E-01  0.7966E-01  0.7966E-01
     -0.149  0.1098E-01  0.1098E-01  0.8177E-01  0.8177E-01
      0.044  0.2756E-01  0.2756E-01  0.8708E-01  0.8708E-01
      0.236  0.2513E-01  0.2513E-01  0.9193E-01  0.9193E-01
      0.429  0.1650E-01  0.1650E-01  0.9511E-01  0.9511E-01
      0.622  0.4628E-02  0.4628E-02  0.9600E-01  0.9600E-01
      0.814  0.8186E-02  0.8186E-02  0.9758E-01  0.9758E-01
      1.007  0.2015E-01  0.2015E-01  0.1015E+00  0.1015E+00
      1.199  0.2380E-01  0.2380E-01  0.1060E+00  0.1060E+00
      1.392  0.2797E-01  0.2797E-01  0.1114E+00  0.1114E+00
      1.585  0.2871E-01  0.2871E-01  0.1170E+00  0.1170E+00
      1.777  0.1543E-01  0.1543E-01  0.1199E+00  0.1199E+00
      1.970  0.3176E-03  0.3176E-03  0.1200E+00  0.1200E+00
      2.163  0.0000E+00  0.0000E+00  0.1200E+00  0.1200E+00
      2.355  0.0000E+00  0.0000E+00  0.1200E+00  0.1200E+00
      2.548  0.0000E+00  0.0000E+00  0.1200E+00  0.1200E+00
      2.740  0.0000E+00  0.0000E+00  0.1200E+00  0.1200E+00
      2.933  0.0000E+00  0.0000E+00  0.1200E+00  0.1200E+00
      3.126  0.0000E+00  0.0000E+00  0.1200E+00  0.1200E+00
      3.318  0.0000E+00  0.0000E+00  0.1200E+00  0.1200E+00
      3.511  0.0000E+00  0.0000E+00  0.1200E+00  0.1200E+00
      3.704  0.0000E+00  0.0000E+00  0.1200E+00  0.1200E+00
      3.896  0.0000E+00  0.0000E+00  0.1200E+00  0.1200E+00
      4.089  0.0000E+00  0.0000E+00  0.1200E+00  0.1200E+00
      4.281  0.5812E-14  0.5812E-14  0.1200E+00  0.1200E+00
      4.474  0.4993E-02  0.4993E-02  0.1210E+00  0.1210E+00
      4.667  0.1824E-03  0.1824E-03  0.1210E+00  0.1210E+00
      4.859  0.0000E+00  0.0000E+00  0.1210E+00  0.1210E+00
      5.052  0.4899E-17  0.4899E-17  0.1210E+00  0.1210E+00
      5.245  0.2945E-02  0.2945E-02  0.1216E+00  0.1216E+00
      5.437  0.1252E-01  0.1252E-01  0.1240E+00  0.1240E+00
      5.630  0.9940E-04  0.9940E-04  0.1240E+00  0.1240E+00
      5.822  0.6796E-07  0.6796E-07  0.1240E+00  0.1240E+00
      6.015  0.9358E-02  0.9358E-02  0.1258E+00  0.1258E+00
      6.208  0.1582E-01  0.1582E-01  0.1288E+00  0.1288E+00
      6.400  0.5970E-02  0.5970E-02  0.1300E+00  0.1300E+00
      6.593  0.8270E-02  0.8270E-02  0.1316E+00  0.1316E+00
      6.786  0.8830E-02  0.8830E-02  0.1333E+00  0.1333E+00
      6.978  0.1404E-01  0.1404E-01  0.1360E+00  0.1360E+00
      7.171  0.5044E-02  0.5044E-02  0.1370E+00  0.1370E+00
      7.363  0.1734E-03  0.1734E-03  0.1370E+00  0.1370E+00
      7.556  0.1227E-01  0.1227E-01  0.1394E+00  0.1394E+00
      7.749  0.1223E-01  0.1223E-01  0.1417E+00  0.1417E+00
      7.941  0.9595E-02  0.9595E-02  0.1436E+00  0.1436E+00
      8.134  0.1224E-01  0.1224E-01  0.1459E+00  0.1459E+00
      8.327  0.1716E-01  0.1716E-01  0.1492E+00  0.1492E+00
      8.519  0.1383E-01  0.1383E-01  0.1519E+00  0.1519E+00
      8.712  0.1474E-01  0.1474E-01  0.1548E+00  0.1548E+00
      8.904  0.1472E-01  0.1472E-01  0.1576E+00  0.1576E+00
      9.097  0.1927E-01  0.1927E-01  0.1613E+00  0.1613E+00
      9.290  0.2144E-01  0.2144E-01  0.1654E+00  0.1654E+00
      9.482  0.1447E-01  0.1447E-01  0.1682E+00  0.1682E+00
      9.675  0.1836E-01  0.1833E-01  0.1718E+00  0.1718E+00
      9.867  0.1554E-01  0.1645E-01  0.1748E+00  0.1749E+00
     10.060  0.6459E-02  0.5571E-02  0.1760E+00  0.1760E+00
     10.253  0.0000E+00  0.0000E+00  0.1760E+00  0.1760E+00
     10.445  0.0000E+00  0.0000E+00  0.1760E+00  0.1760E+00
     10.638  0.0000E+00  0.0000E+00  0.1760E+00  0.1760E+00
     10.831  0.0000E+00  0.0000E+00  0.1760E+00  0.1760E+00
     11.023  0.0000E+00  0.0000E+00  0.1760E+00  0.1760E+00
     11.216  0.0000E+00  0.0000E+00  0.1760E+00  0.1760E+00
     11.408  0.0000E+00  0.0000E+00  0.1760E+00  0.1760E+00
     11.601  0.0000E+00  0.0000E+00  0.1760E+00  0.1760E+00
     11.794  0.0000E+00  0.0000E+00  0.1760E+00  0.1760E+00
     11.986  0.0000E+00  0.0000E+00  0.1760E+00  0.1760E+00
     12.179  0.0000E+00  0.0000E+00  0.1760E+00  0.1760E+00
     12.372  0.0000E+00  0.0000E+00  0.1760E+00  0.1760E+00
     12.564  0.0000E+00  0.0000E+00  0.1760E+00  0.1760E+00
