<?xml version="1.0" encoding="ISO-8859-1"?>
<modeling>
 <generator>
  <i name="program" type="string">vasp </i>
  <i name="version" type="string">6.4.1  </i>
  <i name="subversion" type="string">05Apr23 (build Jun 07 2023 15:38:11) complex                          parallel </i>
  <i name="platform" type="string">LinuxIFC </i>
  <i name="date" type="string">2023 10 16 </i>
  <i name="time" type="string">22:13:30 </i>
 </generator>
 <incar>
  <i type="string" name="PREC">Accu</i>
  <i type="string" name="ALGO">F</i>
  <i type="logical" name="LDIAG"> T  </i>
  <i type="int" name="ISPIN">     2</i>
  <i type="int" name="NELM">   100</i>
  <i type="int" name="NELMDL">   -10</i>
  <i type="int" name="IBRION">     2</i>
  <i name="EDIFF">      0.00000100</i>
  <i name="EDIFFG">     -0.00100000</i>
  <i type="int" name="NSW">  1000</i>
  <i type="int" name="ISIF">     2</i>
  <i name="ENCUT">    520.00000000</i>
  <i name="POTIM">      0.20000000</i>
  <i type="string" name="LREAL">Auto</i>
  <i type="logical" name="LPLANE"> T  </i>
  <i type="int" name="ISMEAR">     0</i>
  <i name="SIGMA">      0.03000000</i>
  <i type="int" name="LMAXMIX">     4</i>
  <i type="logical" name="LWAVE"> F  </i>
  <i type="logical" name="LCHARG"> F  </i>
  <i type="logical" name="LASPH"> T  </i>
  <i type="string" name="GGA">PE</i>
  <i type="int" name="IVDW">    12</i>
 </incar>
 <primitive_cell>
  <structure name="primitive_cell" >
   <crystal>
    <varray name="basis" >
     <v>       9.66044995       0.00000000       0.00000000 </v>
     <v>       0.00000000       9.66044995       0.00000000 </v>
     <v>       0.00000000       0.00000000       9.66044995 </v>
    </varray>
    <i name="volume">    901.55466491 </i>
    <varray name="rec_basis" >
     <v>       0.10351485       0.00000000       0.00000000 </v>
     <v>       0.00000000       0.10351485       0.00000000 </v>
     <v>       0.00000000       0.00000000       0.10351485 </v>
    </varray>
   </crystal>
   <varray name="positions" >
    <v>       0.96525541       0.34559298       0.31525182 </v>
    <v>       0.98772048       0.71234566       0.71057728 </v>
    <v>       0.04481289       0.31763049       0.65811569 </v>
    <v>       0.01398475       0.70302246       0.28645220 </v>
    <v>       0.16765453       0.19143847       0.95721038 </v>
    <v>       0.17791193       0.81662803       0.02433728 </v>
    <v>       0.81552385       0.19806470       0.01478675 </v>
    <v>       0.81430809       0.82727469       0.96760897 </v>
    <v>       0.19947878       0.99559082       0.22775320 </v>
    <v>       0.33096120       0.02270773       0.69854119 </v>
    <v>       0.68673769       0.95565802       0.66731881 </v>
    <v>       0.81442933       0.02256770       0.21990303 </v>
    <v>       0.20845928       0.68745525       0.47550311 </v>
    <v>       0.31228654       0.21736161       0.51343401 </v>
    <v>       0.79131052       0.66279437       0.52559510 </v>
    <v>       0.72166755       0.20007867       0.47657238 </v>
    <v>       0.30210227       0.48122198       0.79100532 </v>
    <v>       0.32477730       0.54791783       0.16333474 </v>
    <v>       0.67249017       0.46972281       0.16971944 </v>
    <v>       0.71981970       0.51298758       0.81016360 </v>
    <v>       0.49253055       0.28957362       0.80926848 </v>
    <v>       0.46734501       0.83122283       0.33110873 </v>
    <v>       0.52226160       0.20294464       0.28318018 </v>
    <v>       0.52980795       0.70367272       0.82113103 </v>
    <v>       0.50694833       0.50729842       0.49183918 </v>
    <v>       0.50122247       0.99974120       0.00336402 </v>
    <v>       0.00744786       0.49948480       0.99844205 </v>
    <v>       0.00286056       0.00344003       0.51420410 </v>
    <v>       0.14016323       0.88315658       0.62101324 </v>
    <v>       0.10687173       0.14474239       0.39214579 </v>
    <v>       0.87309068       0.87669833       0.40182474 </v>
    <v>       0.88242955       0.11780399       0.64522119 </v>
    <v>       0.86906503       0.61800895       0.10783660 </v>
    <v>       0.90556745       0.36827105       0.86593221 </v>
    <v>       0.13241092       0.62660109       0.88260501 </v>
    <v>       0.12943419       0.38439817       0.12687757 </v>
    <v>       0.63371565       0.10263474       0.87200834 </v>
    <v>       0.62113258       0.88241606       0.13265303 </v>
    <v>       0.37291509       0.13363099       0.10750892 </v>
    <v>       0.37473169       0.87598094       0.88604901 </v>
    <v>       0.61918880       0.62894495       0.35924757 </v>
    <v>       0.63231274       0.38430592       0.61237414 </v>
    <v>       0.39510148       0.63492405       0.62000538 </v>
    <v>       0.37893564       0.39448949       0.36505147 </v>
    <v>       0.75560561       0.74113590       0.75086605 </v>
    <v>       0.75281930       0.25316661       0.24332216 </v>
    <v>       0.24508442       0.76192506       0.24970473 </v>
    <v>       0.26388989       0.25165337       0.74338399 </v>
    <v>       0.99789061       0.00187670       0.03544235 </v>
    <v>       0.00579870       0.53084025       0.49786798 </v>
    <v>       0.50220874       0.03596522       0.49272470 </v>
    <v>       0.50896626       0.49489879       0.96529182 </v>
   </varray>
  </structure>
  <varray name="primitive_index" >
   <v type="int" >        1 </v>
   <v type="int" >        2 </v>
   <v type="int" >        3 </v>
   <v type="int" >        4 </v>
   <v type="int" >        5 </v>
   <v type="int" >        6 </v>
   <v type="int" >        7 </v>
   <v type="int" >        8 </v>
   <v type="int" >        9 </v>
   <v type="int" >       10 </v>
   <v type="int" >       11 </v>
   <v type="int" >       12 </v>
   <v type="int" >       13 </v>
   <v type="int" >       14 </v>
   <v type="int" >       15 </v>
   <v type="int" >       16 </v>
   <v type="int" >       17 </v>
   <v type="int" >       18 </v>
   <v type="int" >       19 </v>
   <v type="int" >       20 </v>
   <v type="int" >       21 </v>
   <v type="int" >       22 </v>
   <v type="int" >       23 </v>
   <v type="int" >       24 </v>
   <v type="int" >       25 </v>
   <v type="int" >       26 </v>
   <v type="int" >       27 </v>
   <v type="int" >       28 </v>
   <v type="int" >       29 </v>
   <v type="int" >       30 </v>
   <v type="int" >       31 </v>
   <v type="int" >       32 </v>
   <v type="int" >       33 </v>
   <v type="int" >       34 </v>
   <v type="int" >       35 </v>
   <v type="int" >       36 </v>
   <v type="int" >       37 </v>
   <v type="int" >       38 </v>
   <v type="int" >       39 </v>
   <v type="int" >       40 </v>
   <v type="int" >       41 </v>
   <v type="int" >       42 </v>
   <v type="int" >       43 </v>
   <v type="int" >       44 </v>
   <v type="int" >       45 </v>
   <v type="int" >       46 </v>
   <v type="int" >       47 </v>
   <v type="int" >       48 </v>
   <v type="int" >       49 </v>
   <v type="int" >       50 </v>
   <v type="int" >       51 </v>
   <v type="int" >       52 </v>
  </varray>
 </primitive_cell>
 <kpoints>
  <generation param="Monkhorst-Pack">
   <v type="int" name="divisions">       2        2        2 </v>
   <v name="usershift">      0.00000000       0.00000000       0.00000000 </v>
   <v name="genvec1">      0.50000000       0.00000000       0.00000000 </v>
   <v name="genvec2">      0.00000000       0.50000000       0.00000000 </v>
   <v name="genvec3">      0.00000000       0.00000000       0.50000000 </v>
   <v name="shift">      0.50000000       0.50000000       0.50000000 </v>
  </generation>
  <varray name="kpointlist" >
   <v>       0.25000000       0.25000000       0.25000000 </v>
   <v>      -0.25000000       0.25000000       0.25000000 </v>
   <v>      -0.25000000      -0.25000000       0.25000000 </v>
   <v>       0.25000000      -0.25000000       0.25000000 </v>
  </varray>
  <varray name="weights" >
   <v>       0.25000000 </v>
   <v>       0.25000000 </v>
   <v>       0.25000000 </v>
   <v>       0.25000000 </v>
  </varray>
 </kpoints>
 <parameters>
  <separator name="general" >
   <i type="string" name="SYSTEM">unknown system</i>
   <i type="logical" name="LCOMPAT"> F  </i>
  </separator>
  <separator name="electronic" >
   <i type="string" name="PREC">accu</i>
   <i name="ENMAX">    520.00000000</i>
   <i name="ENAUG">   1041.69900000</i>
   <i name="EDIFF">      0.00000100</i>
   <i type="int" name="IALGO">    68</i>
   <i type="int" name="IWAVPR">    11</i>
   <i type="int" name="NBANDS">   176</i>
   <i type="int" name="NBANDSLOW">    -1</i>
   <i type="int" name="NBANDSHIGH">    -1</i>
   <i name="NELECT">    240.00000000</i>
   <i type="int" name="TURBO">     0</i>
   <i type="int" name="IRESTART">     0</i>
   <i type="int" name="NREBOOT">     0</i>
   <i type="int" name="NMIN">     0</i>
   <i name="EREF">      0.00000000</i>
   <separator name="electronic smearing" >
    <i type="int" name="ISMEAR">     0</i>
    <i name="SIGMA">      0.03000000</i>
    <i name="KSPACING">      0.50000000</i>
    <i type="logical" name="KGAMMA"> T  </i>
    <i type="logical" name="KBLOWUP"> T  </i>
   </separator>
   <separator name="electronic projectors" >
    <i type="logical" name="LREAL"> T  </i>
    <v name="ROPT">     -0.00025000     -0.00025000     -0.00025000     -0.00025000</v>
    <i type="int" name="LMAXPAW">  -100</i>
    <i type="int" name="LMAXMIX">     4</i>
    <i type="logical" name="NLSPLINE"> F  </i>
   </separator>
   <separator name="electronic startup" >
    <i type="int" name="ISTART">     0</i>
    <i type="int" name="ICHARG">     2</i>
    <i type="int" name="INIWAV">     1</i>
   </separator>
   <separator name="electronic spin" >
    <i type="int" name="ISPIN">     2</i>
    <i type="logical" name="LNONCOLLINEAR"> F  </i>
    <v name="MAGMOM">      1.00000000      1.00000000      1.00000000      1.00000000      1.00000000      1.00000000      1.00000000      1.00000000      1.00000000      1.00000000      1.00000000      1.00000000      1.00000000      1.00000000      1.00000000      1.00000000      1.00000000      1.00000000      1.00000000      1.00000000
      1.00000000      1.00000000      1.00000000      1.00000000      1.00000000      1.00000000      1.00000000      1.00000000      1.00000000      1.00000000      1.00000000      1.00000000      1.00000000      1.00000000      1.00000000      1.00000000      1.00000000      1.00000000      1.00000000      1.00000000
      1.00000000      1.00000000      1.00000000      1.00000000      1.00000000      1.00000000      1.00000000      1.00000000      1.00000000      1.00000000      1.00000000      1.00000000</v>
    <i name="NUPDOWN">     -1.00000000</i>
    <i type="logical" name="LSORBIT"> F  </i>
    <v name="SAXIS">      0.00000000      0.00000000      1.00000000</v>
    <i type="logical" name="LSPIRAL"> F  </i>
    <v name="QSPIRAL">      0.00000000      0.00000000      0.00000000</v>
    <i type="logical" name="LZEROZ"> F  </i>
   </separator>
   <separator name="electronic exchange-correlation" >
    <i type="logical" name="LASPH"> T  </i>
    <i type="logical" name="LMETAGGA"> F  </i>
   </separator>
   <separator name="electronic convergence" >
    <i type="int" name="NELM">   100</i>
    <i type="int" name="NELMDL">   -10</i>
    <i type="int" name="NELMIN">     2</i>
    <i name="ENINI">    520.00000000</i>
    <separator name="electronic convergence detail" >
     <i type="logical" name="LDIAG"> T  </i>
     <i type="logical" name="LSUBROT"> F  </i>
     <i name="WEIMIN">      0.00100000</i>
     <i name="EBREAK">      0.00000000</i>
     <i name="DEPER">      0.30000000</i>
     <i type="int" name="NRMM">     4</i>
     <i name="TIME">      0.40000000</i>
    </separator>
   </separator>
   <separator name="electronic mixer" >
    <i name="AMIX">      0.40000000</i>
    <i name="BMIX">      1.00000000</i>
    <i name="AMIN">      0.10000000</i>
    <i name="AMIX_MAG">      1.60000000</i>
    <i name="BMIX_MAG">      1.00000000</i>
    <separator name="electronic mixer details" >
     <i type="int" name="IMIX">     4</i>
     <i type="logical" name="MIXFIRST"> F  </i>
     <i type="int" name="MAXMIX">   -45</i>
     <i name="WC">    100.00000000</i>
     <i type="int" name="INIMIX">     1</i>
     <i type="int" name="MIXPRE">     1</i>
     <i type="int" name="MREMOVE">     5</i>
    </separator>
   </separator>
   <separator name="electronic dipolcorrection" >
    <i type="logical" name="LDIPOL"> F  </i>
    <i type="logical" name="LMONO"> F  </i>
    <i type="int" name="IDIPOL">     0</i>
    <i name="EPSILON">      1.00000000</i>
    <v name="DIPOL">   -100.00000000   -100.00000000   -100.00000000</v>
    <i name="EFIELD">      0.00000000</i>
   </separator>
  </separator>
  <separator name="grids" >
   <i type="int" name="NGX">    72</i>
   <i type="int" name="NGY">    72</i>
   <i type="int" name="NGZ">    72</i>
   <i type="int" name="NGXF">   144</i>
   <i type="int" name="NGYF">   144</i>
   <i type="int" name="NGZF">   144</i>
   <i type="logical" name="ADDGRID"> F  </i>
  </separator>
  <separator name="ionic" >
   <i type="int" name="NSW">  1000</i>
   <i type="int" name="IBRION">     2</i>
   <i type="int" name="MDALGO">     0</i>
   <i type="int" name="ISIF">     2</i>
   <i name="PSTRESS">      0.00000000</i>
   <i name="EDIFFG">     -0.00100000</i>
   <i type="int" name="NFREE">     1</i>
   <i name="POTIM">      0.20000000</i>
   <i name="SMASS">     -3.00000000</i>
   <i name="SCALEE">      1.00000000</i>
  </separator>
  <separator name="ionic md" >
   <i name="TEBEG">      0.00010000</i>
   <i name="TEEND">      0.00010000</i>
   <i type="int" name="NBLOCK">     1</i>
   <i type="int" name="KBLOCK">  1000</i>
   <i type="int" name="NPACO">   256</i>
   <i name="APACO">     10.00000000</i>
  </separator>
  <separator name="symmetry" >
   <i type="int" name="ISYM">     2</i>
   <i name="SYMPREC">      0.00001000</i>
  </separator>
  <separator name="dos" >
   <i type="int" name="LORBIT">     0</i>
   <v name="RWIGS">     -1.00000000     -1.00000000     -1.00000000     -1.00000000</v>
   <i type="int" name="NEDOS">   301</i>
   <i name="EMIN">     10.00000000</i>
   <i name="EMAX">    -10.00000000</i>
   <i name="EFERMI">      0.00000000</i>
  </separator>
  <separator name="writing" >
   <i type="int" name="NWRITE">     2</i>
   <i type="logical" name="LWAVE"> F  </i>
   <i type="logical" name="LDOWNSAMPLE"> F  </i>
   <i type="logical" name="LCHARG"> F  </i>
   <i type="logical" name="LPARD"> F  </i>
   <i type="logical" name="LVTOT"> F  </i>
   <i type="logical" name="LVHAR"> F  </i>
   <i type="logical" name="LELF"> F  </i>
   <i type="logical" name="LOPTICS"> F  </i>
   <v name="STM">      0.00000000      0.00000000      0.00000000      0.00000000      0.00000000      0.00000000      0.00000000</v>
  </separator>
  <separator name="performance" >
   <i type="int" name="NPAR">     4</i>
   <i type="int" name="NSIM">     4</i>
   <i type="int" name="NBLK">    -1</i>
   <i type="logical" name="LPLANE"> T  </i>
   <i type="logical" name="LSCALAPACK"> T  </i>
   <i type="logical" name="LSCAAWARE"> F  </i>
   <i type="logical" name="LSCALU"> F  </i>
   <i type="logical" name="LASYNC"> F  </i>
   <i type="logical" name="LORBITALREAL"> F  </i>
  </separator>
  <separator name="miscellaneous" >
   <i type="int" name="IDIOT">     3</i>
   <i type="int" name="PHON_NSTRUCT">    -1</i>
   <i type="logical" name="LMUSIC"> F  </i>
   <v name="POMASS">      7.01000000     30.97400000     32.06600000     35.45300000</v>
   <v name="DARWINR">      0.00000000      0.00000000      0.00000000      0.00000000</v>
   <v name="DARWINV">      1.00000000      1.00000000      1.00000000      1.00000000</v>
   <i type="logical" name="LCORR"> T  </i>
  </separator>
  <i type="logical" name="GGA_COMPAT"> T  </i>
  <i type="logical" name="LBERRY"> F  </i>
  <i type="int" name="ICORELEVEL">     0</i>
  <i type="logical" name="LDAU"> F  </i>
  <i type="int" name="I_CONSTRAINED_M">     0</i>
  <separator name="electronic exchange-correlation" >
   <i type="string" name="GGA">PE</i>
   <i type="int" name="VOSKOWN">     0</i>
   <i type="logical" name="LHFCALC"> F  </i>
   <i type="string" name="PRECFOCK"></i>
   <i type="logical" name="LSYMGRAD"> F  </i>
   <i type="logical" name="LHFONE"> F  </i>
   <i type="logical" name="LRHFCALC"> F  </i>
   <i type="logical" name="LTHOMAS"> F  </i>
   <i type="logical" name="LMODELHF"> F  </i>
   <i type="logical" name="LFOCKACE"> F  </i>
   <i name="ENCUT4O">     -1.00000000</i>
   <i type="int" name="EXXOEP">     0</i>
   <i type="int" name="FOURORBIT">     0</i>
   <i name="AEXX">      0.00000000</i>
   <i name="HFALPHA">      0.00000000</i>
   <i name="MCALPHA">      0.00000000</i>
   <i name="ALDAX">      1.00000000</i>
   <i name="AGGAX">      1.00000000</i>
   <i name="ALDAC">      1.00000000</i>
   <i name="AGGAC">      1.00000000</i>
   <i type="int" name="NKREDX">     1</i>
   <i type="int" name="NKREDY">     1</i>
   <i type="int" name="NKREDZ">     1</i>
   <i type="logical" name="SHIFTRED"> F  </i>
   <i type="logical" name="ODDONLY"> F  </i>
   <i type="logical" name="EVENONLY"> F  </i>
   <i type="int" name="LMAXFOCK">     0</i>
   <i type="int" name="NMAXFOCKAE">     0</i>
   <i type="logical" name="LFOCKAEDFT"> F  </i>
   <i name="HFSCREEN">      0.00000000</i>
   <i name="HFSCREENC">      0.00000000</i>
   <i type="int" name="NBANDSGWLOW">     0</i>
  </separator>
  <separator name="vdW DFT" >
   <i type="logical" name="LUSE_VDW"> F  </i>
   <i type="int" name="IVDW_NL">     1</i>
   <i type="logical" name="LSPIN_VDW"> F  </i>
   <i name="Zab_VDW">     -0.84910000</i>
   <i name="PARAM1">      0.12340000</i>
   <i name="PARAM2">      1.00000000</i>
   <i name="PARAM3">      0.00000000</i>
  </separator>
  <separator name="model GW" >
   <i type="int" name="MODEL_GW">     0</i>
   <i name="MODEL_EPS0">     10.40255383</i>
   <i name="MODEL_ALPHA">      1.00000000</i>
  </separator>
  <separator name="linear response parameters" >
   <i type="logical" name="LEPSILON"> F  </i>
   <i type="logical" name="LRPA"> F  </i>
   <i type="logical" name="LNABLA"> F  </i>
   <i type="logical" name="LVEL"> F  </i>
   <i name="CSHIFT">      0.10000000</i>
   <i name="OMEGAMAX">     -1.00000000</i>
   <i name="DEG_THRESHOLD">      0.00200000</i>
   <i name="RTIME">     -0.10000000</i>
   <i name="WPLASMAI">      0.00000000</i>
   <v name="DFIELD">      0.00000000      0.00000000      0.00000000</v>
   <v name="WPLASMA">      0.00000000      0.00000000      0.00000000      0.00000000      0.00000000      0.00000000      0.00000000      0.00000000      0.00000000</v>
  </separator>
  <separator name="orbital magnetization" >
   <i type="logical" name="NUCIND"> F  </i>
   <v name="MAGPOS">      0.00000000      0.00000000      0.00000000</v>
   <i type="logical" name="LNICSALL"> T  </i>
   <i type="logical" name="ORBITALMAG"> F  </i>
   <i type="logical" name="LMAGBLOCH"> F  </i>
   <i type="logical" name="LCHIMAG"> F  </i>
   <i type="logical" name="LGAUGE"> T  </i>
   <i type="int" name="MAGATOM">     0</i>
   <v name="MAGDIPOL">      0.00000000      0.00000000      0.00000000</v>
   <v name="AVECCONST">      0.00000000      0.00000000      0.00000000</v>
  </separator>
  <separator name="response functions" >
   <i type="logical" name="LALL_IN_ONE"> F  </i>
   <i type="int" name="IALL_IN_ONE">    -1</i>
   <i type="int" name="NBANDS_WAVE">    -1</i>
   <i type="logical" name="LFINITE_TEMPERATURE"> F  </i>
   <i type="logical" name="LADDER"> F  </i>
   <i type="logical" name="LRPAFORCE"> F  </i>
   <i type="logical" name="LFXC"> F  </i>
   <i type="logical" name="LHARTREE"> T  </i>
   <i type="int" name="IBSE">     0</i>
   <v type="int" name="KPOINT">    -1     0     0     0</v>
   <i type="logical" name="LTCTC"> F  </i>
   <i type="logical" name="LTCTE"> F  </i>
   <i type="logical" name="LTETE"> F  </i>
   <i type="logical" name="LTRIPLET"> F  </i>
   <i type="logical" name="LFXCEPS"> F  </i>
   <i type="logical" name="LFXHEG"> F  </i>
   <i type="int" name="NATURALO">     2</i>
   <i type="logical" name="LHOLEGF"> F  </i>
   <i type="logical" name="L2ORDER"> F  </i>
   <i type="logical" name="LDMP1"> F  </i>
   <i type="logical" name="LMP2LT"> F  </i>
   <i type="logical" name="LSMP2LT"> F  </i>
   <i type="logical" name="LGWLF"> F  </i>
   <i name="ENCUTGW">     -1.60000002</i>
   <i name="ENCUTGWSOFT">     -1.60000002</i>
   <i name="ENCUTLF">     -1.00000000</i>
   <i type="logical" name="LESF_SPLINES"> F  </i>
   <i type="int" name="LMAXMP2">    -1</i>
   <i name="SCISSOR">      0.00000000</i>
   <i type="int" name="NOMEGA">     0</i>
   <i type="int" name="NOMEGAR">     0</i>
   <i type="int" name="NBANDSGW">    -1</i>
   <i type="int" name="NBANDSO">    -1</i>
   <i type="int" name="NBANDSV">    -1</i>
   <i type="int" name="NELMGW">     1</i>
   <i type="int" name="NELMHF">     1</i>
   <i type="int" name="DIM">     3</i>
   <i type="int" name="IESPILON">     4</i>
   <i type="int" name="ANTIRES">     0</i>
   <i name="OMEGAMAX">    -30.00000000</i>
   <i name="OMEGAMIN">    -30.00000000</i>
   <i name="OMEGATL">   -200.00000000</i>
   <i type="int" name="OMEGAGRID">     0</i>
   <i name="CSHIFT">     -0.10000000</i>
   <i type="logical" name="LSELFENERGY"> F  </i>
   <i type="logical" name="LSPECTRAL"> F  </i>
   <i type="logical" name="LSPECTRALGW"> F  </i>
   <i type="logical" name="LSINGLES"> F  </i>
   <i type="logical" name="LFERMIGW"> F  </i>
   <i type="logical" name="ODDONLYGW"> F  </i>
   <i type="logical" name="EVENONLYGW"> F  </i>
   <i type="int" name="NKREDLFX">     1</i>
   <i type="int" name="NKREDLFY">     1</i>
   <i type="int" name="NKREDLFZ">     1</i>
   <i type="int" name="MAXMEM">  2800</i>
   <i type="int" name="TELESCOPE">     0</i>
   <i type="int" name="NTAUPAR">    -1</i>
   <i type="int" name="NOMEGAPAR">    -1</i>
   <i name="DAMP_NEWTON">      0.80000001</i>
   <i name="LAMBDA">      1.00000000</i>
  </separator>
  <separator name="External order field" >
   <i name="OFIELD_KAPPA">      0.00000000</i>
   <v name="OFIELD_K">      0.00000000      0.00000000      0.00000000</v>
   <i name="OFIELD_Q6_NEAR">      0.00000000</i>
   <i name="OFIELD_Q6_FAR">      0.00000000</i>
   <i name="OFIELD_A">      0.00000000</i>
  </separator>
  <separator name="optional k-points parameters" >
   <i type="int" name="KPOINTS_OPT_MODE">     1</i>
   <i type="logical" name="LKPOINTS_OPT"> F  </i>
  </separator>
 </parameters>
 <atominfo>
  <atoms>      52 </atoms>
  <types>       4 </types>
  <array name="atoms" >
   <dimension dim="1">ion</dimension>
   <field type="string">element</field>
   <field type="int">atomtype</field>
   <set>
    <rc><c>Li</c><c>   1</c></rc>
    <rc><c>Li</c><c>   1</c></rc>
    <rc><c>Li</c><c>   1</c></rc>
    <rc><c>Li</c><c>   1</c></rc>
    <rc><c>Li</c><c>   1</c></rc>
    <rc><c>Li</c><c>   1</c></rc>
    <rc><c>Li</c><c>   1</c></rc>
    <rc><c>Li</c><c>   1</c></rc>
    <rc><c>Li</c><c>   1</c></rc>
    <rc><c>Li</c><c>   1</c></rc>
    <rc><c>Li</c><c>   1</c></rc>
    <rc><c>Li</c><c>   1</c></rc>
    <rc><c>Li</c><c>   1</c></rc>
    <rc><c>Li</c><c>   1</c></rc>
    <rc><c>Li</c><c>   1</c></rc>
    <rc><c>Li</c><c>   1</c></rc>
    <rc><c>Li</c><c>   1</c></rc>
    <rc><c>Li</c><c>   1</c></rc>
    <rc><c>Li</c><c>   1</c></rc>
    <rc><c>Li</c><c>   1</c></rc>
    <rc><c>Li</c><c>   1</c></rc>
    <rc><c>Li</c><c>   1</c></rc>
    <rc><c>Li</c><c>   1</c></rc>
    <rc><c>Li</c><c>   1</c></rc>
    <rc><c>P </c><c>   2</c></rc>
    <rc><c>P </c><c>   2</c></rc>
    <rc><c>P </c><c>   2</c></rc>
    <rc><c>P </c><c>   2</c></rc>
    <rc><c>S </c><c>   3</c></rc>
    <rc><c>S </c><c>   3</c></rc>
    <rc><c>S </c><c>   3</c></rc>
    <rc><c>S </c><c>   3</c></rc>
    <rc><c>S </c><c>   3</c></rc>
    <rc><c>S </c><c>   3</c></rc>
    <rc><c>S </c><c>   3</c></rc>
    <rc><c>S </c><c>   3</c></rc>
    <rc><c>S </c><c>   3</c></rc>
    <rc><c>S </c><c>   3</c></rc>
    <rc><c>S </c><c>   3</c></rc>
    <rc><c>S </c><c>   3</c></rc>
    <rc><c>S </c><c>   3</c></rc>
    <rc><c>S </c><c>   3</c></rc>
    <rc><c>S </c><c>   3</c></rc>
    <rc><c>S </c><c>   3</c></rc>
    <rc><c>S </c><c>   3</c></rc>
    <rc><c>S </c><c>   3</c></rc>
    <rc><c>S </c><c>   3</c></rc>
    <rc><c>S </c><c>   3</c></rc>
    <rc><c>Cl</c><c>   4</c></rc>
    <rc><c>Cl</c><c>   4</c></rc>
    <rc><c>Cl</c><c>   4</c></rc>
    <rc><c>Cl</c><c>   4</c></rc>
   </set>
  </array>
  <array name="atomtypes" >
   <dimension dim="1">type</dimension>
   <field type="int">atomspertype</field>
   <field type="string">element</field>
   <field>mass</field>
   <field>valence</field>
   <field type="string">pseudopotential</field>
   <set>
    <rc><c>  24</c><c>Li</c><c>      7.01000000</c><c>      3.00000000</c><c>  PAW_PBE Li_sv_GW 25Mar2010            </c></rc>
    <rc><c>   4</c><c>P </c><c>     30.97400000</c><c>      5.00000000</c><c>  PAW_PBE P_GW 19Mar2012                </c></rc>
    <rc><c>  20</c><c>S </c><c>     32.06600000</c><c>      6.00000000</c><c>  PAW_PBE S_GW 19Mar2012                </c></rc>
    <rc><c>   4</c><c>Cl</c><c>     35.45300000</c><c>      7.00000000</c><c>  PAW_PBE Cl_GW 19Mar2012               </c></rc>
   </set>
  </array>
 </atominfo>
 <structure name="initialpos" >
  <crystal>
   <varray name="basis" >
    <v>       9.66044995       0.00000000       0.00000000 </v>
    <v>       0.00000000       9.66044995       0.00000000 </v>
    <v>       0.00000000       0.00000000       9.66044995 </v>
   </varray>
   <i name="volume">    901.55466491 </i>
   <varray name="rec_basis" >
    <v>       0.10351485       0.00000000       0.00000000 </v>
    <v>       0.00000000       0.10351485       0.00000000 </v>
    <v>       0.00000000       0.00000000       0.10351485 </v>
   </varray>
  </crystal>
  <varray name="positions" >
   <v>       0.96525541       0.34559298       0.31525182 </v>
   <v>       0.98772048       0.71234566       0.71057728 </v>
   <v>       0.04481289       0.31763049       0.65811569 </v>
   <v>       0.01398475       0.70302246       0.28645220 </v>
   <v>       0.16765453       0.19143847       0.95721038 </v>
   <v>       0.17791193       0.81662803       0.02433728 </v>
   <v>       0.81552385       0.19806470       0.01478675 </v>
   <v>       0.81430809       0.82727469       0.96760897 </v>
   <v>       0.19947878       0.99559082       0.22775320 </v>
   <v>       0.33096120       0.02270773       0.69854119 </v>
   <v>       0.68673769       0.95565802       0.66731881 </v>
   <v>       0.81442933       0.02256770       0.21990303 </v>
   <v>       0.20845928       0.68745525       0.47550311 </v>
   <v>       0.31228654       0.21736161       0.51343401 </v>
   <v>       0.79131052       0.66279437       0.52559510 </v>
   <v>       0.72166755       0.20007867       0.47657238 </v>
   <v>       0.30210227       0.48122198       0.79100532 </v>
   <v>       0.32477730       0.54791783       0.16333474 </v>
   <v>       0.67249017       0.46972281       0.16971944 </v>
   <v>       0.71981970       0.51298758       0.81016360 </v>
   <v>       0.49253055       0.28957362       0.80926848 </v>
   <v>       0.46734501       0.83122283       0.33110873 </v>
   <v>       0.52226160       0.20294464       0.28318018 </v>
   <v>       0.52980795       0.70367272       0.82113103 </v>
   <v>       0.50694833       0.50729842       0.49183918 </v>
   <v>       0.50122247       0.99974120       0.00336402 </v>
   <v>       0.00744786       0.49948480       0.99844205 </v>
   <v>       0.00286056       0.00344003       0.51420410 </v>
   <v>       0.14016323       0.88315658       0.62101324 </v>
   <v>       0.10687173       0.14474239       0.39214579 </v>
   <v>       0.87309068       0.87669833       0.40182474 </v>
   <v>       0.88242955       0.11780399       0.64522119 </v>
   <v>       0.86906503       0.61800895       0.10783660 </v>
   <v>       0.90556745       0.36827105       0.86593221 </v>
   <v>       0.13241092       0.62660109       0.88260501 </v>
   <v>       0.12943419       0.38439817       0.12687757 </v>
   <v>       0.63371565       0.10263474       0.87200834 </v>
   <v>       0.62113258       0.88241606       0.13265303 </v>
   <v>       0.37291509       0.13363099       0.10750892 </v>
   <v>       0.37473169       0.87598094       0.88604901 </v>
   <v>       0.61918880       0.62894495       0.35924757 </v>
   <v>       0.63231274       0.38430592       0.61237414 </v>
   <v>       0.39510148       0.63492405       0.62000538 </v>
   <v>       0.37893564       0.39448949       0.36505147 </v>
   <v>       0.75560561       0.74113590       0.75086605 </v>
   <v>       0.75281930       0.25316661       0.24332216 </v>
   <v>       0.24508442       0.76192506       0.24970473 </v>
   <v>       0.26388989       0.25165337       0.74338399 </v>
   <v>       0.99789061       0.00187670       0.03544235 </v>
   <v>       0.00579870       0.53084025       0.49786798 </v>
   <v>       0.50220874       0.03596522       0.49272470 </v>
   <v>       0.50896626       0.49489879       0.96529182 </v>
  </varray>
 </structure>
 <calculation>
  <scstep>
   <time name="dav">    2.20    2.36</time>
   <time name="total">    2.68    2.85</time>
   <energy>
    <i name="alphaZ">    301.09932791 </i>
    <i name="ewald">  -8825.59638988 </i>
    <i name="hartreedc">  -2103.56593484 </i>
    <i name="XCdc">    534.25689971 </i>
    <i name="pawpsdc">   8141.38806575 </i>
    <i name="pawaedc">  -8271.61346273 </i>
    <i name="eentropy">     -0.00647053 </i>
    <i name="bandstr">   -886.98873814 </i>
    <i name="atom">  12703.13999606 </i>
    <i name="e_fr_energy">   1592.11329331 </i>
    <i name="e_wo_entrp">   1592.11976384 </i>
    <i name="e_0_energy">   1592.11652858 </i>
   </energy>
  </scstep>
  <scstep>
   <time name="dav">    2.61    2.66</time>
   <time name="total">    2.61    2.67</time>
   <energy>
    <i name="e_fr_energy">    -55.70923398 </i>
    <i name="e_wo_entrp">    -55.70923398 </i>
    <i name="e_0_energy">    -55.70923398 </i>
   </energy>
  </scstep>
  <scstep>
   <time name="dav">    2.58    2.65</time>
   <time name="total">    2.58    2.65</time>
   <energy>
    <i name="e_fr_energy">   -228.23090717 </i>
    <i name="e_wo_entrp">   -228.23090717 </i>
    <i name="e_0_energy">   -228.23090717 </i>
   </energy>
  </scstep>
  <scstep>
   <time name="dav">    3.12    3.19</time>
   <time name="total">    3.12    3.19</time>
   <energy>
    <i name="e_fr_energy">   -241.89261803 </i>
    <i name="e_wo_entrp">   -241.89261803 </i>
    <i name="e_0_energy">   -241.89261803 </i>
   </energy>
  </scstep>
  <scstep>
   <time name="dav">    2.96    2.99</time>
   <time name="total">    2.96    2.99</time>
   <energy>
    <i name="e_fr_energy">   -242.12463060 </i>
    <i name="e_wo_entrp">   -242.12463060 </i>
    <i name="e_0_energy">   -242.12463060 </i>
   </energy>
  </scstep>
  <scstep>
   <time name="dav">    3.07    3.09</time>
   <time name="total">    3.07    3.10</time>
   <energy>
    <i name="e_fr_energy">   -242.13734535 </i>
    <i name="e_wo_entrp">   -242.13734535 </i>
    <i name="e_0_energy">   -242.13734535 </i>
   </energy>
  </scstep>
  <scstep>
   <time name="dav">    3.04    3.07</time>
   <time name="total">    3.04    3.07</time>
   <energy>
    <i name="e_fr_energy">   -242.13775772 </i>
    <i name="e_wo_entrp">   -242.13775772 </i>
    <i name="e_0_energy">   -242.13775772 </i>
   </energy>
  </scstep>
  <scstep>
   <time name="dav">    3.01    3.04</time>
   <time name="total">    3.01    3.04</time>
   <energy>
    <i name="e_fr_energy">   -242.13778211 </i>
    <i name="e_wo_entrp">   -242.13778211 </i>
    <i name="e_0_energy">   -242.13778211 </i>
   </energy>
  </scstep>
  <scstep>
   <time name="dav">    2.98    3.01</time>
   <time name="total">    2.98    3.01</time>
   <energy>
    <i name="e_fr_energy">   -242.13778371 </i>
    <i name="e_wo_entrp">   -242.13778371 </i>
    <i name="e_0_energy">   -242.13778371 </i>
   </energy>
  </scstep>
  <scstep>
   <time name="dav">    2.11    2.15</time>
   <time name="total">    2.18    2.23</time>
   <energy>
    <i name="e_fr_energy">   -242.13778379 </i>
    <i name="e_wo_entrp">   -242.13778379 </i>
    <i name="e_0_energy">   -242.13778379 </i>
   </energy>
  </scstep>
  <scstep>
   <time name="diag">    0.36    0.37</time>
   <time name="diis">    1.18    1.19</time>
   <time name="orth">    0.06    0.07</time>
   <time name="total">    2.13    2.15</time>
   <energy>
    <i name="e_fr_energy">   -236.56559758 </i>
    <i name="e_wo_entrp">   -236.56559758 </i>
    <i name="e_0_energy">   -236.56559758 </i>
   </energy>
  </scstep>
  <scstep>
   <time name="diag">    0.36    0.36</time>
   <time name="diis">    1.23    1.24</time>
   <time name="orth">    0.07    0.07</time>
   <time name="total">    2.19    2.21</time>
   <energy>
    <i name="e_fr_energy">   -256.11108753 </i>
    <i name="e_wo_entrp">   -256.11108753 </i>
    <i name="e_0_energy">   -256.11108753 </i>
   </energy>
  </scstep>
  <scstep>
   <time name="diag">    0.36    0.36</time>
   <time name="diis">    1.21    1.22</time>
   <time name="orth">    0.06    0.07</time>
   <time name="total">    2.17    2.19</time>
   <energy>
    <i name="e_fr_energy">   -258.59265788 </i>
    <i name="e_wo_entrp">   -258.59265788 </i>
    <i name="e_0_energy">   -258.59265788 </i>
   </energy>
  </scstep>
  <scstep>
   <time name="diag">    0.36    0.36</time>
   <time name="diis">    1.64    1.67</time>
   <time name="orth">    0.06    0.06</time>
   <time name="total">    2.60    2.63</time>
   <energy>
    <i name="e_fr_energy">   -258.78672265 </i>
    <i name="e_wo_entrp">   -258.78672265 </i>
    <i name="e_0_energy">   -258.78672265 </i>
   </energy>
  </scstep>
  <scstep>
   <time name="diag">    0.36    0.36</time>
   <time name="diis">    1.30    1.31</time>
   <time name="orth">    0.06    0.06</time>
   <time name="total">    2.25    2.27</time>
   <energy>
    <i name="e_fr_energy">   -258.76327530 </i>
    <i name="e_wo_entrp">   -258.76327530 </i>
    <i name="e_0_energy">   -258.76327530 </i>
   </energy>
  </scstep>
  <scstep>
   <time name="diag">    0.36    0.36</time>
   <time name="diis">    1.29    1.31</time>
   <time name="orth">    0.06    0.06</time>
   <time name="total">    2.25    2.27</time>
   <energy>
    <i name="e_fr_energy">   -258.78248899 </i>
    <i name="e_wo_entrp">   -258.78248899 </i>
    <i name="e_0_energy">   -258.78248899 </i>
   </energy>
  </scstep>
  <scstep>
   <time name="diag">    0.36    0.36</time>
   <time name="diis">    1.43    1.45</time>
   <time name="orth">    0.07    0.07</time>
   <time name="total">    2.38    2.41</time>
   <energy>
    <i name="e_fr_energy">   -258.78849528 </i>
    <i name="e_wo_entrp">   -258.78849528 </i>
    <i name="e_0_energy">   -258.78849528 </i>
   </energy>
  </scstep>
  <scstep>
   <time name="diag">    0.36    0.36</time>
   <time name="diis">    1.44    1.45</time>
   <time name="orth">    0.06    0.06</time>
   <time name="total">    2.39    2.41</time>
   <energy>
    <i name="e_fr_energy">   -258.78971721 </i>
    <i name="e_wo_entrp">   -258.78971721 </i>
    <i name="e_0_energy">   -258.78971721 </i>
   </energy>
  </scstep>
  <scstep>
   <time name="diag">    0.36    0.36</time>
   <time name="diis">    1.63    1.65</time>
   <time name="orth">    0.07    0.07</time>
   <time name="total">    2.59    2.61</time>
   <energy>
    <i name="e_fr_energy">   -258.79016872 </i>
    <i name="e_wo_entrp">   -258.79016872 </i>
    <i name="e_0_energy">   -258.79016872 </i>
   </energy>
  </scstep>
  <scstep>
   <time name="diag">    0.36    0.36</time>
   <time name="diis">    1.62    1.64</time>
   <time name="orth">    0.06    0.06</time>
   <time name="total">    2.57    2.60</time>
   <energy>
    <i name="e_fr_energy">   -258.79026241 </i>
    <i name="e_wo_entrp">   -258.79026241 </i>
    <i name="e_0_energy">   -258.79026241 </i>
   </energy>
  </scstep>
  <scstep>
   <time name="diag">    0.36    0.36</time>
   <time name="diis">    1.46    1.48</time>
   <time name="orth">    0.06    0.06</time>
   <time name="total">    2.41    2.43</time>
   <energy>
    <i name="e_fr_energy">   -258.79027913 </i>
    <i name="e_wo_entrp">   -258.79027913 </i>
    <i name="e_0_energy">   -258.79027913 </i>
   </energy>
  </scstep>
  <scstep>
   <time name="diag">    0.36    0.36</time>
   <time name="diis">    1.60    1.61</time>
   <time name="orth">    0.06    0.07</time>
   <time name="total">    2.55    2.58</time>
   <energy>
    <i name="e_fr_energy">   -258.79028441 </i>
    <i name="e_wo_entrp">   -258.79028441 </i>
    <i name="e_0_energy">   -258.79028441 </i>
   </energy>
  </scstep>
  <scstep>
   <time name="diag">    0.36    0.36</time>
   <time name="diis">    1.27    1.29</time>
   <time name="orth">    0.06    0.07</time>
   <time name="total">    2.22    2.24</time>
   <energy>
    <i name="e_fr_energy">   -258.79028404 </i>
    <i name="e_wo_entrp">   -258.79028404 </i>
    <i name="e_0_energy">   -258.79028404 </i>
   </energy>
  </scstep>
  <scstep>
   <time name="diag">    0.36    0.36</time>
   <time name="diis">    0.94    0.95</time>
   <time name="orth">    0.07    0.07</time>
   <time name="total">    1.83    1.84</time>
   <energy>
    <i name="alphaZ">    301.09932791 </i>
    <i name="ewald">  -8825.59638988 </i>
    <i name="hartreedc">  -2201.95273463 </i>
    <i name="XCdc">    537.87782289 </i>
    <i name="pawpsdc">   9822.33327356 </i>
    <i name="pawaedc">  -9966.34025195 </i>
    <i name="eentropy">     -0.00000000 </i>
    <i name="bandstr">  -2629.35132746 </i>
    <i name="atom">  12703.13999606 </i>
    <i name="e_fr_energy">   -258.79028350 </i>
    <i name="e_wo_entrp">   -258.79028350 </i>
    <i name="e_0_energy">   -258.79028350 </i>
   </energy>
  </scstep>
  <structure>
   <crystal>
    <varray name="basis" >
     <v>       9.66044995       0.00000000       0.00000000 </v>
     <v>       0.00000000       9.66044995       0.00000000 </v>
     <v>       0.00000000       0.00000000       9.66044995 </v>
    </varray>
    <i name="volume">    901.55466491 </i>
    <varray name="rec_basis" >
     <v>       0.10351485       0.00000000       0.00000000 </v>
     <v>       0.00000000       0.10351485       0.00000000 </v>
     <v>       0.00000000       0.00000000       0.10351485 </v>
    </varray>
   </crystal>
   <varray name="positions" >
    <v>       0.96525541       0.34559298       0.31525182 </v>
    <v>       0.98772048       0.71234566       0.71057728 </v>
    <v>       0.04481289       0.31763049       0.65811569 </v>
    <v>       0.01398475       0.70302246       0.28645220 </v>
    <v>       0.16765453       0.19143847       0.95721038 </v>
    <v>       0.17791193       0.81662803       0.02433728 </v>
    <v>       0.81552385       0.19806470       0.01478675 </v>
    <v>       0.81430809       0.82727469       0.96760897 </v>
    <v>       0.19947878       0.99559082       0.22775320 </v>
    <v>       0.33096120       0.02270773       0.69854119 </v>
    <v>       0.68673769       0.95565802       0.66731881 </v>
    <v>       0.81442933       0.02256770       0.21990303 </v>
    <v>       0.20845928       0.68745525       0.47550311 </v>
    <v>       0.31228654       0.21736161       0.51343401 </v>
    <v>       0.79131052       0.66279437       0.52559510 </v>
    <v>       0.72166755       0.20007867       0.47657238 </v>
    <v>       0.30210227       0.48122198       0.79100532 </v>
    <v>       0.32477730       0.54791783       0.16333474 </v>
    <v>       0.67249017       0.46972281       0.16971944 </v>
    <v>       0.71981970       0.51298758       0.81016360 </v>
    <v>       0.49253055       0.28957362       0.80926848 </v>
    <v>       0.46734501       0.83122283       0.33110873 </v>
    <v>       0.52226160       0.20294464       0.28318018 </v>
    <v>       0.52980795       0.70367272       0.82113103 </v>
    <v>       0.50694833       0.50729842       0.49183918 </v>
    <v>       0.50122247       0.99974120       0.00336402 </v>
    <v>       0.00744786       0.49948480       0.99844205 </v>
    <v>       0.00286056       0.00344003       0.51420410 </v>
    <v>       0.14016323       0.88315658       0.62101324 </v>
    <v>       0.10687173       0.14474239       0.39214579 </v>
    <v>       0.87309068       0.87669833       0.40182474 </v>
    <v>       0.88242955       0.11780399       0.64522119 </v>
    <v>       0.86906503       0.61800895       0.10783660 </v>
    <v>       0.90556745       0.36827105       0.86593221 </v>
    <v>       0.13241092       0.62660109       0.88260501 </v>
    <v>       0.12943419       0.38439817       0.12687757 </v>
    <v>       0.63371565       0.10263474       0.87200834 </v>
    <v>       0.62113258       0.88241606       0.13265303 </v>
    <v>       0.37291509       0.13363099       0.10750892 </v>
    <v>       0.37473169       0.87598094       0.88604901 </v>
    <v>       0.61918880       0.62894495       0.35924757 </v>
    <v>       0.63231274       0.38430592       0.61237414 </v>
    <v>       0.39510148       0.63492405       0.62000538 </v>
    <v>       0.37893564       0.39448949       0.36505147 </v>
    <v>       0.75560561       0.74113590       0.75086605 </v>
    <v>       0.75281930       0.25316661       0.24332216 </v>
    <v>       0.24508442       0.76192506       0.24970473 </v>
    <v>       0.26388989       0.25165337       0.74338399 </v>
    <v>       0.99789061       0.00187670       0.03544235 </v>
    <v>       0.00579870       0.53084025       0.49786798 </v>
    <v>       0.50220874       0.03596522       0.49272470 </v>
    <v>       0.50896626       0.49489879       0.96529182 </v>
   </varray>
  </structure>
  <varray name="forces" >
   <v>      -0.00020652       0.00059215      -0.00017332 </v>
   <v>       0.00048019       0.00081435       0.00010255 </v>
   <v>       0.00001518       0.00017339      -0.00057301 </v>
   <v>      -0.00046092       0.00036164       0.00021452 </v>
   <v>      -0.00072348       0.00031481      -0.00046647 </v>
   <v>      -0.00085815       0.00028150      -0.00015985 </v>
   <v>      -0.00058951      -0.00022694      -0.00028107 </v>
   <v>      -0.00025367       0.00053950       0.00039067 </v>
   <v>       0.00068112       0.00077676      -0.00016008 </v>
   <v>       0.00088347       0.00004612      -0.00015905 </v>
   <v>       0.00045405      -0.00062648      -0.00121594 </v>
   <v>       0.00052094       0.00011191       0.00025036 </v>
   <v>       0.00009012      -0.00076016       0.00003755 </v>
   <v>      -0.00041651      -0.00024492      -0.00073597 </v>
   <v>       0.00012323      -0.00196092       0.00070889 </v>
   <v>      -0.00002268      -0.00005220       0.00022828 </v>
   <v>       0.00021751       0.00014122      -0.00040965 </v>
   <v>       0.00008102       0.00036186      -0.00056103 </v>
   <v>      -0.00030841       0.00009303       0.00001940 </v>
   <v>      -0.00008436      -0.00056358       0.00086497 </v>
   <v>       0.00025244       0.00007371      -0.00021654 </v>
   <v>      -0.00010893       0.00012933       0.00037111 </v>
   <v>      -0.00036237       0.00004630       0.00009896 </v>
   <v>      -0.00004159      -0.00002672       0.00085041 </v>
   <v>       0.00016409      -0.00030105       0.00182199 </v>
   <v>      -0.00058467       0.00031207      -0.00052513 </v>
   <v>      -0.00016746       0.00019131      -0.00117609 </v>
   <v>       0.00046548      -0.00008251      -0.00061250 </v>
   <v>       0.00224787      -0.00105432       0.00072954 </v>
   <v>       0.00014606       0.00143008      -0.00155350 </v>
   <v>      -0.00236414      -0.00183108      -0.00009200 </v>
   <v>      -0.00088894       0.00093583       0.00211161 </v>
   <v>      -0.00193706       0.00142885       0.00133304 </v>
   <v>      -0.00012500      -0.00139935      -0.00076434 </v>
   <v>       0.00116029       0.00100094      -0.00068919 </v>
   <v>       0.00188802      -0.00141347       0.00199144 </v>
   <v>       0.00121687       0.00005679      -0.00179623 </v>
   <v>       0.00133672      -0.00144892       0.00221395 </v>
   <v>      -0.00102943       0.00224020       0.00026317 </v>
   <v>      -0.00149186      -0.00117543      -0.00031876 </v>
   <v>       0.00152685       0.00178644      -0.00206539 </v>
   <v>       0.00147957      -0.00065544       0.00074857 </v>
   <v>      -0.00024237       0.00165631       0.00096622 </v>
   <v>      -0.00201933      -0.00093896      -0.00166739 </v>
   <v>       0.00019363      -0.00018518       0.00045033 </v>
   <v>      -0.00017750       0.00037915      -0.00011242 </v>
   <v>       0.00005876       0.00023782      -0.00001394 </v>
   <v>      -0.00012536      -0.00003976      -0.00029714 </v>
   <v>      -0.00019844       0.00036774      -0.00075100 </v>
   <v>       0.00022528      -0.00099931       0.00008024 </v>
   <v>       0.00011174      -0.00058530      -0.00032590 </v>
   <v>      -0.00023187      -0.00030913       0.00102513 </v>
  </varray>
  <varray name="stress" >
   <v>      -1.44564004      -0.26101766       3.08059206 </v>
   <v>      -0.26101794      -0.06988885      -1.15462898 </v>
   <v>       3.08059259      -1.15462895       1.56595347 </v>
  </varray>
  <energy>
   <i name="e_fr_energy">   -272.36815324 </i>
   <i name="e_wo_entrp">   -272.36815324 </i>
   <i name="e_0_energy">   -272.36815324 </i>
  </energy>
  <time name="totalsc">   63.87   64.77</time>
 </calculation>
 <calculation>
  <scstep>
   <time name="dav">    2.31    2.33</time>
   <time name="total">    2.84    2.87</time>
   <energy>
    <i name="alphaZ">    301.09932791 </i>
    <i name="ewald">  -8825.65473082 </i>
    <i name="hartreedc">  -2201.91175178 </i>
    <i name="XCdc">    537.87662446 </i>
    <i name="pawpsdc">   9822.33112614 </i>
    <i name="pawaedc">  -9966.33802912 </i>
    <i name="eentropy">     -0.00000000 </i>
    <i name="bandstr">  -2629.33284459 </i>
    <i name="atom">  12703.13999606 </i>
    <i name="e_fr_energy">   -258.79028173 </i>
    <i name="e_wo_entrp">   -258.79028173 </i>
    <i name="e_0_energy">   -258.79028173 </i>
   </energy>
  </scstep>
  <scstep>
   <time name="diag">    0.36    0.36</time>
   <time name="diis">    0.98    0.99</time>
   <time name="orth">    0.07    0.07</time>
   <time name="total">    1.86    1.88</time>
   <energy>
    <i name="alphaZ">    301.09932791 </i>
    <i name="ewald">  -8825.65473082 </i>
    <i name="hartreedc">  -2201.90981674 </i>
    <i name="XCdc">    537.87624767 </i>
    <i name="pawpsdc">   9822.25664363 </i>
    <i name="pawaedc">  -9966.26292972 </i>
    <i name="eentropy">     -0.00000000 </i>
    <i name="bandstr">  -2629.33501982 </i>
    <i name="atom">  12703.13999606 </i>
    <i name="e_fr_energy">   -258.79028182 </i>
    <i name="e_wo_entrp">   -258.79028182 </i>
    <i name="e_0_energy">   -258.79028182 </i>
   </energy>
  </scstep>
  <structure>
   <crystal>
    <varray name="basis" >
     <v>       9.66044995       0.00000000       0.00000000 </v>
     <v>       0.00000000       9.66044995       0.00000000 </v>
     <v>       0.00000000       0.00000000       9.66044995 </v>
    </varray>
    <i name="volume">    901.55466491 </i>
    <varray name="rec_basis" >
     <v>       0.10351485       0.00000000       0.00000000 </v>
     <v>       0.00000000       0.10351485       0.00000000 </v>
     <v>       0.00000000       0.00000000       0.10351485 </v>
    </varray>
   </crystal>
   <varray name="positions" >
    <v>       0.96525499       0.34559417       0.31525147 </v>
    <v>       0.98772144       0.71234729       0.71057748 </v>
    <v>       0.04481292       0.31763083       0.65811455 </v>
    <v>       0.01398383       0.70302318       0.28645263 </v>
    <v>       0.16765309       0.19143910       0.95720945 </v>
    <v>       0.17791022       0.81662859       0.02433696 </v>
    <v>       0.81552267       0.19806425       0.01478619 </v>
    <v>       0.81430758       0.82727577       0.96760975 </v>
    <v>       0.19948014       0.99559237       0.22775288 </v>
    <v>       0.33096297       0.02270782       0.69854087 </v>
    <v>       0.68673859       0.95565677       0.66731638 </v>
    <v>       0.81443037       0.02256792       0.21990353 </v>
    <v>       0.20845946       0.68745373       0.47550318 </v>
    <v>       0.31228570       0.21736112       0.51343254 </v>
    <v>       0.79131077       0.66279045       0.52559652 </v>
    <v>       0.72166750       0.20007856       0.47657283 </v>
    <v>       0.30210271       0.48122227       0.79100450 </v>
    <v>       0.32477746       0.54791856       0.16333362 </v>
    <v>       0.67248955       0.46972300       0.16971948 </v>
    <v>       0.71981953       0.51298645       0.81016533 </v>
    <v>       0.49253105       0.28957377       0.80926804 </v>
    <v>       0.46734479       0.83122309       0.33110947 </v>
    <v>       0.52226088       0.20294473       0.28318038 </v>
    <v>       0.52980786       0.70367267       0.82113272 </v>
    <v>       0.50694866       0.50729782       0.49184282 </v>
    <v>       0.50122130       0.99974182       0.00336297 </v>
    <v>       0.00744752       0.49948518       0.99843970 </v>
    <v>       0.00286149       0.00343987       0.51420287 </v>
    <v>       0.14016772       0.88315447       0.62101470 </v>
    <v>       0.10687202       0.14474524       0.39214269 </v>
    <v>       0.87308596       0.87669467       0.40182456 </v>
    <v>       0.88242777       0.11780586       0.64522541 </v>
    <v>       0.86906116       0.61801180       0.10783926 </v>
    <v>       0.90556720       0.36826826       0.86593068 </v>
    <v>       0.13241323       0.62660309       0.88260363 </v>
    <v>       0.12943796       0.38439535       0.12688155 </v>
    <v>       0.63371808       0.10263485       0.87200475 </v>
    <v>       0.62113525       0.88241316       0.13265746 </v>
    <v>       0.37291303       0.13363546       0.10750944 </v>
    <v>       0.37472871       0.87597860       0.88604837 </v>
    <v>       0.61919185       0.62894852       0.35924345 </v>
    <v>       0.63231570       0.38430461       0.61237564 </v>
    <v>       0.39510100       0.63492736       0.62000731 </v>
    <v>       0.37893160       0.39448761       0.36504814 </v>
    <v>       0.75560599       0.74113553       0.75086695 </v>
    <v>       0.75281895       0.25316736       0.24332193 </v>
    <v>       0.24508454       0.76192553       0.24970471 </v>
    <v>       0.26388964       0.25165329       0.74338340 </v>
    <v>       0.99789021       0.00187743       0.03544085 </v>
    <v>       0.00579915       0.53083825       0.49786814 </v>
    <v>       0.50220896       0.03596405       0.49272405 </v>
    <v>       0.50896580       0.49489817       0.96529386 </v>
   </varray>
  </structure>
  <varray name="forces" >
   <v>      -0.00014474       0.00038085      -0.00010980 </v>
   <v>       0.00025509       0.00049580       0.00004169 </v>
   <v>       0.00003036       0.00007879      -0.00038398 </v>
   <v>      -0.00027507       0.00014720       0.00009793 </v>
   <v>      -0.00045800       0.00015730      -0.00026028 </v>
   <v>      -0.00055250       0.00018232      -0.00001749 </v>
   <v>      -0.00033543      -0.00017565      -0.00011214 </v>
   <v>      -0.00016189       0.00030684       0.00026630 </v>
   <v>       0.00042246       0.00042880      -0.00012320 </v>
   <v>       0.00057208       0.00001611      -0.00010435 </v>
   <v>       0.00027698      -0.00044500      -0.00076814 </v>
   <v>       0.00030268      -0.00000785       0.00013622 </v>
   <v>       0.00002516      -0.00051384      -0.00001553 </v>
   <v>      -0.00024266      -0.00018114      -0.00044170 </v>
   <v>       0.00008152      -0.00123777       0.00038671 </v>
   <v>       0.00001078      -0.00009077       0.00009391 </v>
   <v>       0.00014320       0.00002587      -0.00023158 </v>
   <v>       0.00007254       0.00020326      -0.00032229 </v>
   <v>      -0.00021943       0.00006659       0.00003560 </v>
   <v>      -0.00005582      -0.00029789       0.00057639 </v>
   <v>       0.00011962       0.00000814      -0.00007400 </v>
   <v>      -0.00003987       0.00003056       0.00024493 </v>
   <v>      -0.00022284       0.00001222       0.00007865 </v>
   <v>       0.00002523      -0.00006830       0.00059091 </v>
   <v>       0.00011060      -0.00005937       0.00040861 </v>
   <v>      -0.00014642       0.00002290      -0.00002604 </v>
   <v>       0.00001497       0.00003511      -0.00008615 </v>
   <v>       0.00011913      -0.00019346      -0.00022169 </v>
   <v>       0.00110814      -0.00046159       0.00010517 </v>
   <v>      -0.00008162       0.00060184      -0.00091918 </v>
   <v>      -0.00121895      -0.00081506       0.00022901 </v>
   <v>      -0.00018438       0.00018794       0.00081373 </v>
   <v>      -0.00077114       0.00057875       0.00050851 </v>
   <v>      -0.00004024      -0.00073897      -0.00036775 </v>
   <v>       0.00056778       0.00045940      -0.00034467 </v>
   <v>       0.00066635      -0.00041208       0.00071852 </v>
   <v>       0.00046462      -0.00019947      -0.00092650 </v>
   <v>       0.00048160      -0.00040838       0.00090398 </v>
   <v>      -0.00037480       0.00124930      -0.00002557 </v>
   <v>      -0.00075908      -0.00057406       0.00000181 </v>
   <v>       0.00051124       0.00048186      -0.00061005 </v>
   <v>       0.00089960      -0.00041169       0.00048135 </v>
   <v>      -0.00001889       0.00088050       0.00054419 </v>
   <v>      -0.00077285      -0.00023364      -0.00043033 </v>
   <v>       0.00014131      -0.00029699       0.00029678 </v>
   <v>      -0.00018179       0.00003401      -0.00002053 </v>
   <v>      -0.00020016       0.00025389       0.00003304 </v>
   <v>       0.00015421       0.00003567      -0.00032326 </v>
   <v>      -0.00018555      -0.00007301       0.00027276 </v>
   <v>      -0.00001403       0.00027866       0.00000295 </v>
   <v>      -0.00000579       0.00034878      -0.00016860 </v>
   <v>       0.00008670      -0.00009326      -0.00043486 </v>
  </varray>
  <varray name="stress" >
   <v>      -1.47385495      -0.25993825       3.08011572 </v>
   <v>      -0.25993836      -0.09714488      -1.15343338 </v>
   <v>       3.08011624      -1.15343337       1.53838631 </v>
  </varray>
  <energy>
   <i name="e_fr_energy">   -272.36815543 </i>
   <i name="e_wo_entrp">   -272.36815543 </i>
   <i name="e_0_energy">   -272.36815543 </i>
  </energy>
  <time name="totalsc">    7.79    7.89</time>
 </calculation>
 <calculation>
  <scstep>
   <time name="dav">    2.33    2.36</time>
   <time name="total">    2.86    2.89</time>
   <energy>
    <i name="alphaZ">    301.09932791 </i>
    <i name="ewald">  -8825.69649234 </i>
    <i name="hartreedc">  -2201.87677243 </i>
    <i name="XCdc">    537.87508740 </i>
    <i name="pawpsdc">   9822.21258885 </i>
    <i name="pawaedc">  -9966.21830808 </i>
    <i name="eentropy">     -0.00000000 </i>
    <i name="bandstr">  -2629.32570717 </i>
    <i name="atom">  12703.13999606 </i>
    <i name="e_fr_energy">   -258.79027980 </i>
    <i name="e_wo_entrp">   -258.79027980 </i>
    <i name="e_0_energy">   -258.79027980 </i>
   </energy>
  </scstep>
  <scstep>
   <time name="diag">    0.36    0.36</time>
   <time name="diis">    0.87    0.87</time>
   <time name="orth">    0.07    0.07</time>
   <time name="total">    1.75    1.76</time>
   <energy>
    <i name="alphaZ">    301.09932791 </i>
    <i name="ewald">  -8825.69649234 </i>
    <i name="hartreedc">  -2201.87354664 </i>
    <i name="XCdc">    537.87486107 </i>
    <i name="pawpsdc">   9822.15703150 </i>
    <i name="pawaedc">  -9966.16243888 </i>
    <i name="eentropy">     -0.00000000 </i>
    <i name="bandstr">  -2629.32901842 </i>
    <i name="atom">  12703.13999606 </i>
    <i name="e_fr_energy">   -258.79027974 </i>
    <i name="e_wo_entrp">   -258.79027974 </i>
    <i name="e_0_energy">   -258.79027974 </i>
   </energy>
  </scstep>
  <structure>
   <crystal>
    <varray name="basis" >
     <v>       9.66044995       0.00000000       0.00000000 </v>
     <v>       0.00000000       9.66044995       0.00000000 </v>
     <v>       0.00000000       0.00000000       9.66044995 </v>
    </varray>
    <i name="volume">    901.55466491 </i>
    <varray name="rec_basis" >
     <v>       0.10351485       0.00000000       0.00000000 </v>
     <v>       0.00000000       0.10351485       0.00000000 </v>
     <v>       0.00000000       0.00000000       0.10351485 </v>
    </varray>
   </crystal>
   <varray name="positions" >
    <v>       0.96525470       0.34559501       0.31525122 </v>
    <v>       0.98772213       0.71234846       0.71057763 </v>
    <v>       0.04481294       0.31763108       0.65811373 </v>
    <v>       0.01398317       0.70302370       0.28645294 </v>
    <v>       0.16765205       0.19143955       0.95720878 </v>
    <v>       0.17790899       0.81662899       0.02433673 </v>
    <v>       0.81552183       0.19806393       0.01478579 </v>
    <v>       0.81430722       0.82727654       0.96761031 </v>
    <v>       0.19948112       0.99559348       0.22775265 </v>
    <v>       0.33096423       0.02270789       0.69854064 </v>
    <v>       0.68673924       0.95565587       0.66731464 </v>
    <v>       0.81443112       0.02256808       0.21990389 </v>
    <v>       0.20845959       0.68745264       0.47550323 </v>
    <v>       0.31228511       0.21736077       0.51343149 </v>
    <v>       0.79131094       0.66278765       0.52559753 </v>
    <v>       0.72166747       0.20007849       0.47657316 </v>
    <v>       0.30210302       0.48122247       0.79100391 </v>
    <v>       0.32477758       0.54791907       0.16333282 </v>
    <v>       0.67248911       0.46972313       0.16971951 </v>
    <v>       0.71981941       0.51298565       0.81016656 </v>
    <v>       0.49253141       0.28957387       0.80926773 </v>
    <v>       0.46734464       0.83122327       0.33111001 </v>
    <v>       0.52226036       0.20294480       0.28318052 </v>
    <v>       0.52980780       0.70367263       0.82113394 </v>
    <v>       0.50694889       0.50729739       0.49184542 </v>
    <v>       0.50122046       0.99974226       0.00336222 </v>
    <v>       0.00744728       0.49948545       0.99843802 </v>
    <v>       0.00286216       0.00343975       0.51420200 </v>
    <v>       0.14017093       0.88315296       0.62101574 </v>
    <v>       0.10687223       0.14474729       0.39214047 </v>
    <v>       0.87308258       0.87669205       0.40182442 </v>
    <v>       0.88242650       0.11780720       0.64522843 </v>
    <v>       0.86905839       0.61801385       0.10784116 </v>
    <v>       0.90556702       0.36826626       0.86592959 </v>
    <v>       0.13241489       0.62660452       0.88260265 </v>
    <v>       0.12944066       0.38439333       0.12688440 </v>
    <v>       0.63371982       0.10263493       0.87200219 </v>
    <v>       0.62113717       0.88241109       0.13266062 </v>
    <v>       0.37291156       0.13363867       0.10750982 </v>
    <v>       0.37472658       0.87597692       0.88604791 </v>
    <v>       0.61919403       0.62895108       0.35924049 </v>
    <v>       0.63231782       0.38430367       0.61237671 </v>
    <v>       0.39510065       0.63492973       0.62000869 </v>
    <v>       0.37892871       0.39448627       0.36504576 </v>
    <v>       0.75560627       0.74113527       0.75086759 </v>
    <v>       0.75281869       0.25316791       0.24332177 </v>
    <v>       0.24508462       0.76192587       0.24970469 </v>
    <v>       0.26388946       0.25165323       0.74338297 </v>
    <v>       0.99788993       0.00187796       0.03543977 </v>
    <v>       0.00579947       0.53083682       0.49786825 </v>
    <v>       0.50220912       0.03596321       0.49272359 </v>
    <v>       0.50896546       0.49489773       0.96529533 </v>
   </varray>
  </structure>
  <varray name="forces" >
   <v>      -0.00016721       0.00047125      -0.00013093 </v>
   <v>       0.00029855       0.00063753       0.00005390 </v>
   <v>       0.00002878       0.00010417      -0.00046440 </v>
   <v>      -0.00033135       0.00018626       0.00010914 </v>
   <v>      -0.00053822       0.00019006      -0.00028864 </v>
   <v>      -0.00066662       0.00024758       0.00000248 </v>
   <v>      -0.00037816      -0.00021201      -0.00011776 </v>
   <v>      -0.00018200       0.00035856       0.00030569 </v>
   <v>       0.00053891       0.00052313      -0.00017034 </v>
   <v>       0.00067316       0.00002633      -0.00013303 </v>
   <v>       0.00035533      -0.00056469      -0.00100361 </v>
   <v>       0.00034067       0.00000343       0.00015153 </v>
   <v>       0.00003724      -0.00059996      -0.00004752 </v>
   <v>      -0.00028739      -0.00020346      -0.00051956 </v>
   <v>       0.00008148      -0.00157856       0.00048870 </v>
   <v>       0.00003048      -0.00012891       0.00012013 </v>
   <v>       0.00014607       0.00002698      -0.00023689 </v>
   <v>       0.00010554       0.00022737      -0.00037427 </v>
   <v>      -0.00025806       0.00008908       0.00003170 </v>
   <v>      -0.00006078      -0.00034507       0.00074254 </v>
   <v>       0.00012996       0.00000244      -0.00005704 </v>
   <v>      -0.00002095       0.00003688       0.00027165 </v>
   <v>      -0.00023179       0.00002684       0.00007618 </v>
   <v>       0.00005126      -0.00006082       0.00070087 </v>
   <v>       0.00009201       0.00016364      -0.00048610 </v>
   <v>       0.00011862      -0.00014475       0.00030863 </v>
   <v>       0.00014135      -0.00003456       0.00060386 </v>
   <v>      -0.00008506      -0.00023837       0.00002854 </v>
   <v>       0.00093349      -0.00016994      -0.00014654 </v>
   <v>      -0.00032311       0.00045019      -0.00078668 </v>
   <v>      -0.00108598      -0.00058127       0.00059005 </v>
   <v>       0.00018682      -0.00010142       0.00055072 </v>
   <v>      -0.00044635       0.00028515       0.00018681 </v>
   <v>       0.00013622      -0.00065867      -0.00028364 </v>
   <v>       0.00044669       0.00031143      -0.00023646 </v>
   <v>       0.00030849      -0.00002118       0.00028345 </v>
   <v>       0.00026045      -0.00044355      -0.00082648 </v>
   <v>       0.00010316      -0.00003130       0.00053549 </v>
   <v>      -0.00015992       0.00114917      -0.00033149 </v>
   <v>      -0.00065596      -0.00041330       0.00018333 </v>
   <v>       0.00011998       0.00012254      -0.00018164 </v>
   <v>       0.00089966      -0.00028666       0.00041841 </v>
   <v>       0.00018162       0.00085528       0.00043192 </v>
   <v>      -0.00045781       0.00017154      -0.00008089 </v>
   <v>       0.00016629      -0.00030883       0.00037664 </v>
   <v>      -0.00020502       0.00013230      -0.00003923 </v>
   <v>      -0.00015568       0.00030708       0.00002372 </v>
   <v>       0.00009823       0.00002735      -0.00038606 </v>
   <v>      -0.00040653       0.00001545       0.00010215 </v>
   <v>       0.00005471      -0.00002158       0.00003911 </v>
   <v>       0.00001540       0.00016801      -0.00022937 </v>
   <v>       0.00002334      -0.00016817      -0.00015878 </v>
  </varray>
  <varray name="stress" >
   <v>      -1.48482501      -0.25916853       3.07948033 </v>
   <v>      -0.25916891      -0.10822372      -1.15273639 </v>
   <v>       3.07948063      -1.15273627       1.52736052 </v>
  </varray>
  <energy>
   <i name="e_fr_energy">   -272.36815611 </i>
   <i name="e_wo_entrp">   -272.36815611 </i>
   <i name="e_0_energy">   -272.36815611 </i>
  </energy>
  <time name="totalsc">    7.84    7.97</time>
 </calculation>
 <calculation>
  <scstep>
   <time name="dav">    2.45    2.47</time>
   <time name="total">    2.98    3.01</time>
   <energy>
    <i name="alphaZ">    301.09932791 </i>
    <i name="ewald">  -8825.78000064 </i>
    <i name="hartreedc">  -2201.80741964 </i>
    <i name="XCdc">    537.87288533 </i>
    <i name="pawpsdc">   9822.12329353 </i>
    <i name="pawaedc">  -9966.12849437 </i>
    <i name="eentropy">     -0.00000000 </i>
    <i name="bandstr">  -2629.30986224 </i>
    <i name="atom">  12703.13999606 </i>
    <i name="e_fr_energy">   -258.79027405 </i>
    <i name="e_wo_entrp">   -258.79027405 </i>
    <i name="e_0_energy">   -258.79027405 </i>
   </energy>
  </scstep>
  <scstep>
   <time name="diag">    0.36    0.36</time>
   <time name="diis">    1.13    1.14</time>
   <time name="orth">    0.07    0.07</time>
   <time name="total">    2.01    2.03</time>
   <energy>
    <i name="alphaZ">    301.09932791 </i>
    <i name="ewald">  -8825.78000064 </i>
    <i name="hartreedc">  -2201.80209675 </i>
    <i name="XCdc">    537.87261410 </i>
    <i name="pawpsdc">   9822.04185575 </i>
    <i name="pawaedc">  -9966.04680951 </i>
    <i name="eentropy">     -0.00000000 </i>
    <i name="bandstr">  -2629.31516114 </i>
    <i name="atom">  12703.13999606 </i>
    <i name="e_fr_energy">   -258.79027421 </i>
    <i name="e_wo_entrp">   -258.79027421 </i>
    <i name="e_0_energy">   -258.79027421 </i>
   </energy>
  </scstep>
  <structure>
   <crystal>
    <varray name="basis" >
     <v>       9.66044995       0.00000000       0.00000000 </v>
     <v>       0.00000000       9.66044995       0.00000000 </v>
     <v>       0.00000000       0.00000000       9.66044995 </v>
    </varray>
    <i name="volume">    901.55466491 </i>
    <varray name="rec_basis" >
     <v>       0.10351485       0.00000000       0.00000000 </v>
     <v>       0.00000000       0.10351485       0.00000000 </v>
     <v>       0.00000000       0.00000000       0.10351485 </v>
    </varray>
   </crystal>
   <varray name="positions" >
    <v>       0.96525411       0.34559671       0.31525073 </v>
    <v>       0.98772350       0.71235079       0.71057792 </v>
    <v>       0.04481298       0.31763158       0.65811209 </v>
    <v>       0.01398186       0.70302473       0.28645355 </v>
    <v>       0.16764998       0.19144045       0.95720745 </v>
    <v>       0.17790654       0.81662980       0.02433628 </v>
    <v>       0.81552014       0.19806328       0.01478499 </v>
    <v>       0.81430649       0.82727809       0.96761143 </v>
    <v>       0.19948307       0.99559571       0.22775219 </v>
    <v>       0.33096676       0.02270802       0.69854019 </v>
    <v>       0.68674054       0.95565408       0.66731116 </v>
    <v>       0.81443261       0.02256840       0.21990460 </v>
    <v>       0.20845985       0.68745047       0.47550334 </v>
    <v>       0.31228392       0.21736007       0.51342938 </v>
    <v>       0.79131130       0.66278204       0.52559956 </v>
    <v>       0.72166741       0.20007834       0.47657381 </v>
    <v>       0.30210364       0.48122287       0.79100274 </v>
    <v>       0.32477781       0.54792011       0.16333122 </v>
    <v>       0.67248823       0.46972340       0.16971957 </v>
    <v>       0.71981917       0.51298403       0.81016904 </v>
    <v>       0.49253214       0.28957408       0.80926711 </v>
    <v>       0.46734433       0.83122364       0.33111107 </v>
    <v>       0.52225933       0.20294493       0.28318080 </v>
    <v>       0.52980769       0.70367256       0.82113637 </v>
    <v>       0.50694936       0.50729653       0.49185063 </v>
    <v>       0.50121879       0.99974316       0.00336072 </v>
    <v>       0.00744681       0.49948600       0.99843466 </v>
    <v>       0.00286349       0.00343951       0.51420024 </v>
    <v>       0.14017736       0.88314995       0.62101783 </v>
    <v>       0.10687265       0.14475138       0.39213602 </v>
    <v>       0.87307581       0.87668681       0.40182416 </v>
    <v>       0.88242396       0.11780987       0.64523447 </v>
    <v>       0.86905285       0.61801793       0.10784498 </v>
    <v>       0.90556666       0.36826226       0.86592740 </v>
    <v>       0.13241821       0.62660739       0.88260068 </v>
    <v>       0.12944606       0.38438929       0.12689009 </v>
    <v>       0.63372330       0.10263510       0.87199705 </v>
    <v>       0.62114099       0.88240694       0.13266696 </v>
    <v>       0.37290861       0.13364507       0.10751057 </v>
    <v>       0.37472231       0.87597355       0.88604700 </v>
    <v>       0.61919840       0.62895619       0.35923459 </v>
    <v>       0.63232205       0.38430180       0.61237885 </v>
    <v>       0.39509996       0.63493447       0.62001145 </v>
    <v>       0.37892294       0.39448359       0.36504099 </v>
    <v>       0.75560682       0.74113474       0.75086888 </v>
    <v>       0.75281819       0.25316899       0.24332145 </v>
    <v>       0.24508479       0.76192655       0.24970465 </v>
    <v>       0.26388910       0.25165312       0.74338212 </v>
    <v>       0.99788936       0.00187901       0.03543762 </v>
    <v>       0.00580011       0.53083397       0.49786848 </v>
    <v>       0.50220944       0.03596154       0.49272266 </v>
    <v>       0.50896480       0.49489684       0.96529826 </v>
   </varray>
  </structure>
  <varray name="forces" >
   <v>      -0.00011817       0.00034871      -0.00011464 </v>
   <v>       0.00012141       0.00040135       0.00000255 </v>
   <v>       0.00003250       0.00004737      -0.00034933 </v>
   <v>      -0.00021296       0.00008223       0.00003281 </v>
   <v>      -0.00035153       0.00010866      -0.00010323 </v>
   <v>      -0.00047215       0.00021421       0.00014206 </v>
   <v>      -0.00023497      -0.00019489       0.00000681 </v>
   <v>      -0.00013698       0.00021248       0.00026703 </v>
   <v>       0.00035593       0.00025587      -0.00016727 </v>
   <v>       0.00047239       0.00001906      -0.00010173 </v>
   <v>       0.00023502      -0.00040566      -0.00066321 </v>
   <v>       0.00020353      -0.00005648       0.00008176 </v>
   <v>      -0.00000728      -0.00042423      -0.00012307 </v>
   <v>      -0.00018838      -0.00015148      -0.00035568 </v>
   <v>       0.00002603      -0.00098299       0.00021080 </v>
   <v>       0.00008082      -0.00018537       0.00002110 </v>
   <v>       0.00008872      -0.00005265      -0.00011581 </v>
   <v>       0.00010277       0.00010346      -0.00019478 </v>
   <v>      -0.00019546       0.00009913       0.00005294 </v>
   <v>      -0.00003626      -0.00008089       0.00052369 </v>
   <v>       0.00004775      -0.00004745       0.00003492 </v>
   <v>       0.00005481      -0.00003519       0.00016181 </v>
   <v>      -0.00013476       0.00003305       0.00005584 </v>
   <v>       0.00012629      -0.00007665       0.00053878 </v>
   <v>       0.00001642       0.00063508      -0.00259094 </v>
   <v>       0.00072889      -0.00054895       0.00104148 </v>
   <v>       0.00041283      -0.00022356       0.00214849 </v>
   <v>      -0.00056748      -0.00033633       0.00065943 </v>
   <v>      -0.00035236       0.00073685      -0.00095892 </v>
   <v>      -0.00077102      -0.00039273       0.00000690 </v>
   <v>       0.00013063       0.00059106       0.00127827 </v>
   <v>       0.00125708      -0.00112435      -0.00090582 </v>
   <v>       0.00092628      -0.00083169      -0.00090243 </v>
   <v>       0.00046403       0.00000065       0.00018266 </v>
   <v>      -0.00021727      -0.00033821       0.00022625 </v>
   <v>      -0.00117604       0.00132001      -0.00133293 </v>
   <v>      -0.00061090      -0.00094648       0.00010956 </v>
   <v>      -0.00113034       0.00128032      -0.00105596 </v>
   <v>       0.00063550       0.00008851      -0.00093766 </v>
   <v>       0.00013782       0.00033089       0.00067132 </v>
   <v>      -0.00132894      -0.00147408       0.00156992 </v>
   <v>       0.00033282       0.00011226       0.00007177 </v>
   <v>       0.00059898       0.00008988      -0.00012695 </v>
   <v>       0.00103626       0.00130490       0.00134238 </v>
   <v>       0.00013679      -0.00032143       0.00029725 </v>
   <v>      -0.00017873       0.00002528      -0.00000686 </v>
   <v>      -0.00021614       0.00029124       0.00002582 </v>
   <v>       0.00017903       0.00005781      -0.00037440 </v>
   <v>      -0.00035061      -0.00009991       0.00031036 </v>
   <v>      -0.00001228       0.00025873       0.00003057 </v>
   <v>      -0.00002843       0.00035180      -0.00012123 </v>
   <v>       0.00008810      -0.00006920      -0.00050248 </v>
  </varray>
  <varray name="stress" >
   <v>      -1.51074185      -0.25761294       3.07859558 </v>
   <v>      -0.25761311      -0.13308848      -1.15094208 </v>
   <v>       3.07859613      -1.15094193       1.50214351 </v>
  </varray>
  <energy>
   <i name="e_fr_energy">   -272.36815610 </i>
   <i name="e_wo_entrp">   -272.36815610 </i>
   <i name="e_0_energy">   -272.36815610 </i>
  </energy>
  <time name="totalsc">    8.08    8.18</time>
 </calculation>
 <calculation>
  <scstep>
   <time name="dav">    2.33    2.35</time>
   <time name="total">    2.86    2.88</time>
   <energy>
    <i name="alphaZ">    301.09932791 </i>
    <i name="ewald">  -8825.73538142 </i>
    <i name="hartreedc">  -2201.83398727 </i>
    <i name="XCdc">    537.87341740 </i>
    <i name="pawpsdc">   9821.98508614 </i>
    <i name="pawaedc">  -9965.98974284 </i>
    <i name="eentropy">     -0.00000000 </i>
    <i name="bandstr">  -2629.32899290 </i>
    <i name="atom">  12703.13999606 </i>
    <i name="e_fr_energy">   -258.79027692 </i>
    <i name="e_wo_entrp">   -258.79027692 </i>
    <i name="e_0_energy">   -258.79027692 </i>
   </energy>
  </scstep>
  <scstep>
   <time name="diag">    0.36    0.36</time>
   <time name="diis">    0.78    0.79</time>
   <time name="orth">    0.07    0.07</time>
   <time name="total">    1.67    1.68</time>
   <energy>
    <i name="alphaZ">    301.09932791 </i>
    <i name="ewald">  -8825.73538142 </i>
    <i name="hartreedc">  -2201.83600407 </i>
    <i name="XCdc">    537.87352786 </i>
    <i name="pawpsdc">   9822.00944300 </i>
    <i name="pawaedc">  -9966.01409178 </i>
    <i name="eentropy">     -0.00000000 </i>
    <i name="bandstr">  -2629.32709482 </i>
    <i name="atom">  12703.13999606 </i>
    <i name="e_fr_energy">   -258.79027726 </i>
    <i name="e_wo_entrp">   -258.79027726 </i>
    <i name="e_0_energy">   -258.79027726 </i>
   </energy>
  </scstep>
  <structure>
   <crystal>
    <varray name="basis" >
     <v>       9.66044995       0.00000000       0.00000000 </v>
     <v>       0.00000000       9.66044995       0.00000000 </v>
     <v>       0.00000000       0.00000000       9.66044995 </v>
    </varray>
    <i name="volume">    901.55466491 </i>
    <varray name="rec_basis" >
     <v>       0.10351485       0.00000000       0.00000000 </v>
     <v>       0.00000000       0.10351485       0.00000000 </v>
     <v>       0.00000000       0.00000000       0.10351485 </v>
    </varray>
   </crystal>
   <varray name="positions" >
    <v>       0.96525442       0.34559580       0.31525099 </v>
    <v>       0.98772277       0.71234954       0.71057776 </v>
    <v>       0.04481296       0.31763131       0.65811297 </v>
    <v>       0.01398256       0.70302418       0.28645322 </v>
    <v>       0.16765109       0.19143997       0.95720816 </v>
    <v>       0.17790785       0.81662937       0.02433652 </v>
    <v>       0.81552104       0.19806362       0.01478542 </v>
    <v>       0.81430688       0.82727726       0.96761083 </v>
    <v>       0.19948203       0.99559452       0.22775243 </v>
    <v>       0.33096541       0.02270795       0.69854043 </v>
    <v>       0.68673985       0.95565504       0.66731302 </v>
    <v>       0.81443181       0.02256823       0.21990422 </v>
    <v>       0.20845971       0.68745163       0.47550328 </v>
    <v>       0.31228455       0.21736045       0.51343051 </v>
    <v>       0.79131111       0.66278504       0.52559847 </v>
    <v>       0.72166744       0.20007842       0.47657346 </v>
    <v>       0.30210331       0.48122266       0.79100337 </v>
    <v>       0.32477769       0.54791956       0.16333207 </v>
    <v>       0.67248870       0.46972326       0.16971954 </v>
    <v>       0.71981930       0.51298490       0.81016772 </v>
    <v>       0.49253175       0.28957397       0.80926745 </v>
    <v>       0.46734449       0.83122344       0.33111050 </v>
    <v>       0.52225988       0.20294486       0.28318065 </v>
    <v>       0.52980775       0.70367260       0.82113507 </v>
    <v>       0.50694911       0.50729699       0.49184785 </v>
    <v>       0.50121968       0.99974268       0.00336152 </v>
    <v>       0.00744706       0.49948571       0.99843645 </v>
    <v>       0.00286278       0.00343964       0.51420118 </v>
    <v>       0.14017392       0.88315156       0.62101671 </v>
    <v>       0.10687243       0.14474919       0.39213840 </v>
    <v>       0.87307943       0.87668961       0.40182430 </v>
    <v>       0.88242532       0.11780844       0.64523124 </v>
    <v>       0.86905581       0.61801575       0.10784294 </v>
    <v>       0.90556685       0.36826439       0.86592857 </v>
    <v>       0.13241644       0.62660586       0.88260173 </v>
    <v>       0.12944317       0.38439145       0.12688705 </v>
    <v>       0.63372144       0.10263501       0.87199979 </v>
    <v>       0.62113895       0.88240916       0.13266357 </v>
    <v>       0.37291019       0.13364165       0.10751017 </v>
    <v>       0.37472459       0.87597535       0.88604749 </v>
    <v>       0.61919606       0.62895346       0.35923774 </v>
    <v>       0.63231979       0.38430280       0.61237771 </v>
    <v>       0.39510033       0.63493194       0.62000998 </v>
    <v>       0.37892602       0.39448502       0.36504354 </v>
    <v>       0.75560653       0.74113502       0.75086819 </v>
    <v>       0.75281846       0.25316841       0.24332162 </v>
    <v>       0.24508470       0.76192619       0.24970467 </v>
    <v>       0.26388930       0.25165318       0.74338258 </v>
    <v>       0.99788967       0.00187845       0.03543877 </v>
    <v>       0.00579977       0.53083549       0.49786836 </v>
    <v>       0.50220927       0.03596243       0.49272315 </v>
    <v>       0.50896515       0.49489732       0.96529669 </v>
   </varray>
  </structure>
  <varray name="forces" >
   <v>      -0.00038712       0.00098401      -0.00028550 </v>
   <v>       0.00056172       0.00115989       0.00012971 </v>
   <v>       0.00005906       0.00025839      -0.00096407 </v>
   <v>      -0.00063544       0.00050910       0.00029361 </v>
   <v>      -0.00107494       0.00041871      -0.00063479 </v>
   <v>      -0.00131409       0.00047379      -0.00003673 </v>
   <v>      -0.00081032      -0.00038494      -0.00026722 </v>
   <v>      -0.00036780       0.00077204       0.00055363 </v>
   <v>       0.00099423       0.00096225      -0.00027082 </v>
   <v>       0.00136339       0.00009702      -0.00023088 </v>
   <v>       0.00064145      -0.00098385      -0.00177391 </v>
   <v>       0.00082238       0.00017962       0.00038976 </v>
   <v>       0.00010913      -0.00117856      -0.00007790 </v>
   <v>      -0.00056965      -0.00040114      -0.00098985 </v>
   <v>       0.00011363      -0.00285245       0.00098490 </v>
   <v>       0.00003127      -0.00020280       0.00026041 </v>
   <v>       0.00034712       0.00010954      -0.00057318 </v>
   <v>       0.00018807       0.00057276      -0.00086013 </v>
   <v>      -0.00054305       0.00011043       0.00004303 </v>
   <v>      -0.00010355      -0.00065775       0.00135189 </v>
[...]
       <r>     7.9413     9.5950   143.5827 </r>
       <r>     8.1339    12.2439   145.9419 </r>
       <r>     8.3265    17.1648   149.2483 </r>
       <r>     8.5191    13.8268   151.9118 </r>
       <r>     8.7117    14.7438   154.7536 </r>
       <r>     8.9044    14.7205   157.5901 </r>
       <r>     9.0970    19.2666   161.3024 </r>
       <r>     9.2896    21.4431   165.4331 </r>
       <r>     9.4822    14.4719   168.2247 </r>
       <r>     9.6749    18.3610   171.7619 </r>
       <r>     9.8675    15.5358   174.7551 </r>
       <r>    10.0601     6.4587   176.0000 </r>
       <r>    10.2527     0.0000   176.0000 </r>
       <r>    10.4454     0.0000   176.0000 </r>
       <r>    10.6380     0.0000   176.0000 </r>
       <r>    10.8306     0.0000   176.0000 </r>
       <r>    11.0232     0.0000   176.0000 </r>
       <r>    11.2159     0.0000   176.0000 </r>
       <r>    11.4085     0.0000   176.0000 </r>
       <r>    11.6011     0.0000   176.0000 </r>
       <r>    11.7937     0.0000   176.0000 </r>
       <r>    11.9864     0.0000   176.0000 </r>
       <r>    12.1790     0.0000   176.0000 </r>
       <r>    12.3716     0.0000   176.0000 </r>
       <r>    12.5642     0.0000   176.0000 </r>
      </set>
      <set comment="spin 2">
       <r>   -45.2230     0.0000     0.0000 </r>
       <r>   -45.0304     0.0000     0.0000 </r>
       <r>   -44.8378     0.0000     0.0000 </r>
       <r>   -44.6452     0.0000     0.0000 </r>
       <r>   -44.4525     0.0000     0.0000 </r>
       <r>   -44.2599     0.0000     0.0000 </r>
       <r>   -44.0673     0.0000     0.0000 </r>
       <r>   -43.8747     0.0000     0.0000 </r>
       <r>   -43.6820     0.0000     0.0000 </r>
       <r>   -43.4894     0.0000     0.0000 </r>
       <r>   -43.2968     0.0000     0.0000 </r>
       <r>   -43.1042     0.0000     0.0000 </r>
       <r>   -42.9115     0.0000     0.0000 </r>
       <r>   -42.7189     0.0000     0.0000 </r>
       <r>   -42.5263    13.9130     2.6800 </r>
       <r>   -42.3337    56.0130    13.4737 </r>
       <r>   -42.1410    54.6205    24.0000 </r>
       <r>   -41.9484     0.0000    24.0000 </r>
       <r>   -41.7558     0.0000    24.0000 </r>
       <r>   -41.5632     0.0000    24.0000 </r>
       <r>   -41.3705     0.0000    24.0000 </r>
       <r>   -41.1779     0.0000    24.0000 </r>
       <r>   -40.9853     0.0000    24.0000 </r>
       <r>   -40.7927     0.0000    24.0000 </r>
       <r>   -40.6001     0.0000    24.0000 </r>
       <r>   -40.4074     0.0000    24.0000 </r>
       <r>   -40.2148     0.0000    24.0000 </r>
       <r>   -40.0222     0.0000    24.0000 </r>
       <r>   -39.8296     0.0000    24.0000 </r>
       <r>   -39.6369     0.0000    24.0000 </r>
       <r>   -39.4443     0.0000    24.0000 </r>
       <r>   -39.2517     0.0000    24.0000 </r>
       <r>   -39.0591     0.0000    24.0000 </r>
       <r>   -38.8664     0.0000    24.0000 </r>
       <r>   -38.6738     0.0000    24.0000 </r>
       <r>   -38.4812     0.0000    24.0000 </r>
       <r>   -38.2886     0.0000    24.0000 </r>
       <r>   -38.0959     0.0000    24.0000 </r>
       <r>   -37.9033     0.0000    24.0000 </r>
       <r>   -37.7107     0.0000    24.0000 </r>
       <r>   -37.5181     0.0000    24.0000 </r>
       <r>   -37.3254     0.0000    24.0000 </r>
       <r>   -37.1328     0.0000    24.0000 </r>
       <r>   -36.9402     0.0000    24.0000 </r>
       <r>   -36.7476     0.0000    24.0000 </r>
       <r>   -36.5549     0.0000    24.0000 </r>
       <r>   -36.3623     0.0000    24.0000 </r>
       <r>   -36.1697     0.0000    24.0000 </r>
       <r>   -35.9771     0.0000    24.0000 </r>
       <r>   -35.7844     0.0000    24.0000 </r>
       <r>   -35.5918     0.0000    24.0000 </r>
       <r>   -35.3992     0.0000    24.0000 </r>
       <r>   -35.2066     0.0000    24.0000 </r>
       <r>   -35.0139     0.0000    24.0000 </r>
       <r>   -34.8213     0.0000    24.0000 </r>
       <r>   -34.6287     0.0000    24.0000 </r>
       <r>   -34.4361     0.0000    24.0000 </r>
       <r>   -34.2435     0.0000    24.0000 </r>
       <r>   -34.0508     0.0000    24.0000 </r>
       <r>   -33.8582     0.0000    24.0000 </r>
       <r>   -33.6656     0.0000    24.0000 </r>
       <r>   -33.4730     0.0000    24.0000 </r>
       <r>   -33.2803     0.0000    24.0000 </r>
       <r>   -33.0877     0.0000    24.0000 </r>
       <r>   -32.8951     0.0000    24.0000 </r>
       <r>   -32.7025     0.0000    24.0000 </r>
       <r>   -32.5098     0.0000    24.0000 </r>
       <r>   -32.3172     0.0000    24.0000 </r>
       <r>   -32.1246     0.0000    24.0000 </r>
       <r>   -31.9320     0.0000    24.0000 </r>
       <r>   -31.7393     0.0000    24.0000 </r>
       <r>   -31.5467     0.0000    24.0000 </r>
       <r>   -31.3541     0.0000    24.0000 </r>
       <r>   -31.1615     0.0000    24.0000 </r>
       <r>   -30.9688     0.0000    24.0000 </r>
       <r>   -30.7762     0.0000    24.0000 </r>
       <r>   -30.5836     0.0000    24.0000 </r>
       <r>   -30.3910     0.0000    24.0000 </r>
       <r>   -30.1983     0.0000    24.0000 </r>
       <r>   -30.0057     0.0000    24.0000 </r>
       <r>   -29.8131     0.0000    24.0000 </r>
       <r>   -29.6205     0.0000    24.0000 </r>
       <r>   -29.4278     0.0000    24.0000 </r>
       <r>   -29.2352     0.0000    24.0000 </r>
       <r>   -29.0426     0.0000    24.0000 </r>
       <r>   -28.8500     0.0000    24.0000 </r>
       <r>   -28.6573     0.0000    24.0000 </r>
       <r>   -28.4647     0.0000    24.0000 </r>
       <r>   -28.2721     0.0000    24.0000 </r>
       <r>   -28.0795     0.0000    24.0000 </r>
       <r>   -27.8869     0.0000    24.0000 </r>
       <r>   -27.6942     0.0000    24.0000 </r>
       <r>   -27.5016     0.0000    24.0000 </r>
       <r>   -27.3090     0.0000    24.0000 </r>
       <r>   -27.1164     0.0000    24.0000 </r>
       <r>   -26.9237     0.0000    24.0000 </r>
       <r>   -26.7311     0.0000    24.0000 </r>
       <r>   -26.5385     0.0000    24.0000 </r>
       <r>   -26.3459     0.0000    24.0000 </r>
       <r>   -26.1532     0.0000    24.0000 </r>
       <r>   -25.9606     0.0000    24.0000 </r>
       <r>   -25.7680     0.0000    24.0000 </r>
       <r>   -25.5754     0.0000    24.0000 </r>
       <r>   -25.3827     0.0000    24.0000 </r>
       <r>   -25.1901     0.0000    24.0000 </r>
       <r>   -24.9975     0.0000    24.0000 </r>
       <r>   -24.8049     0.0000    24.0000 </r>
       <r>   -24.6122     0.0000    24.0000 </r>
       <r>   -24.4196     0.0000    24.0000 </r>
       <r>   -24.2270     0.0000    24.0000 </r>
       <r>   -24.0344     0.0000    24.0000 </r>
       <r>   -23.8417     0.0000    24.0000 </r>
       <r>   -23.6491     0.0000    24.0000 </r>
       <r>   -23.4565     0.0000    24.0000 </r>
       <r>   -23.2639     0.0000    24.0000 </r>
       <r>   -23.0712     0.0000    24.0000 </r>
       <r>   -22.8786     0.0000    24.0000 </r>
       <r>   -22.6860     0.0000    24.0000 </r>
       <r>   -22.4934     0.0000    24.0000 </r>
       <r>   -22.3008     0.0000    24.0000 </r>
       <r>   -22.1081     0.0000    24.0000 </r>
       <r>   -21.9155     0.0000    24.0000 </r>
       <r>   -21.7229     0.0000    24.0000 </r>
       <r>   -21.5303     0.0000    24.0000 </r>
       <r>   -21.3376     0.0000    24.0000 </r>
       <r>   -21.1450     0.0000    24.0000 </r>
       <r>   -20.9524     0.0000    24.0000 </r>
       <r>   -20.7598     0.0000    24.0000 </r>
       <r>   -20.5671     0.0000    24.0000 </r>
       <r>   -20.3745     0.0000    24.0000 </r>
       <r>   -20.1819     0.0000    24.0000 </r>
       <r>   -19.9893     0.0000    24.0000 </r>
       <r>   -19.7966     0.0000    24.0000 </r>
       <r>   -19.6040     0.0000    24.0000 </r>
       <r>   -19.4114     0.0000    24.0000 </r>
       <r>   -19.2188     0.0000    24.0000 </r>
       <r>   -19.0261     0.0000    24.0000 </r>
       <r>   -18.8335     0.0000    24.0000 </r>
       <r>   -18.6409     0.0000    24.0000 </r>
       <r>   -18.4483     0.0000    24.0000 </r>
       <r>   -18.2556     0.0000    24.0000 </r>
       <r>   -18.0630     0.0000    24.0000 </r>
       <r>   -17.8704     0.0000    24.0000 </r>
       <r>   -17.6778     0.0000    24.0000 </r>
       <r>   -17.4851     0.0000    24.0000 </r>
       <r>   -17.2925     0.0000    24.0000 </r>
       <r>   -17.0999     0.0000    24.0000 </r>
       <r>   -16.9073     0.0000    24.0000 </r>
       <r>   -16.7146     0.0000    24.0000 </r>
       <r>   -16.5220     0.0000    24.0000 </r>
       <r>   -16.3294     0.0000    24.0000 </r>
       <r>   -16.1368     0.0000    24.0000 </r>
       <r>   -15.9442     0.0000    24.0000 </r>
       <r>   -15.7515     0.0000    24.0000 </r>
       <r>   -15.5589     0.0000    24.0000 </r>
       <r>   -15.3663     0.0000    24.0000 </r>
       <r>   -15.1737     0.0000    24.0000 </r>
       <r>   -14.9810     0.0000    24.0000 </r>
       <r>   -14.7884     0.0000    24.0000 </r>
       <r>   -14.5958     0.0000    24.0000 </r>
       <r>   -14.4032     0.0000    24.0000 </r>
       <r>   -14.2105     0.0000    24.0000 </r>
       <r>   -14.0179     0.0000    24.0000 </r>
       <r>   -13.8253     0.0000    24.0000 </r>
       <r>   -13.6327     0.0000    24.0000 </r>
       <r>   -13.4400     0.0000    24.0000 </r>
       <r>   -13.2474     0.0000    24.0000 </r>
       <r>   -13.0548     4.4232    24.8520 </r>
       <r>   -12.8622    16.3425    28.0000 </r>
       <r>   -12.6695     1.1756    28.2264 </r>
       <r>   -12.4769    19.5903    32.0000 </r>
       <r>   -12.2843     0.0000    32.0000 </r>
       <r>   -12.0917     0.0000    32.0000 </r>
       <r>   -11.8990     0.0000    32.0000 </r>
       <r>   -11.7064     0.0000    32.0000 </r>
       <r>   -11.5138     0.0000    32.0000 </r>
       <r>   -11.3212     0.0000    32.0000 </r>
       <r>   -11.1285     0.0000    32.0000 </r>
       <r>   -10.9359     0.0000    32.0000 </r>
       <r>   -10.7433     0.0000    32.0000 </r>
       <r>   -10.5507     0.0000    32.0000 </r>
       <r>   -10.3580     0.0059    32.0011 </r>
       <r>   -10.1654    15.6794    35.0214 </r>
       <r>    -9.9728    22.6384    39.3830 </r>
       <r>    -9.7802    23.9257    43.9937 </r>
       <r>    -9.5876     0.0000    44.0000 </r>
       <r>    -9.3949     0.0000    44.0000 </r>
       <r>    -9.2023     0.0000    44.0000 </r>
       <r>    -9.0097     0.0000    44.0000 </r>
       <r>    -8.8171     0.0000    44.0000 </r>
       <r>    -8.6244     0.0000    44.0000 </r>
       <r>    -8.4318     0.0000    44.0000 </r>
       <r>    -8.2392    20.2711    47.9047 </r>
       <r>    -8.0466     0.4434    48.0000 </r>
       <r>    -7.8539     0.0000    48.0000 </r>
       <r>    -7.6613     0.0000    48.0000 </r>
       <r>    -7.4687     0.0000    48.0000 </r>
       <r>    -7.2761     0.0000    48.0000 </r>
       <r>    -7.0834     0.0000    48.0000 </r>
       <r>    -6.8908     0.0000    48.0000 </r>
       <r>    -6.6982     0.0000    48.0000 </r>
       <r>    -6.5056     0.0000    48.0000 </r>
       <r>    -6.3129     0.0000    48.0000 </r>
       <r>    -6.1203     3.0742    48.5922 </r>
       <r>    -5.9277     2.1173    49.0000 </r>
       <r>    -5.7351     1.1266    49.2170 </r>
       <r>    -5.5424    14.3582    51.9827 </r>
       <r>    -5.3498     0.0703    52.0000 </r>
       <r>    -5.1572     0.0000    52.0000 </r>
       <r>    -4.9646     0.0000    52.0000 </r>
       <r>    -4.7719     0.0000    52.0000 </r>
       <r>    -4.5793     0.0000    52.0000 </r>
       <r>    -4.3867     0.0000    52.0000 </r>
       <r>    -4.1941     0.0000    52.0000 </r>
       <r>    -4.0014     0.0000    52.0000 </r>
       <r>    -3.8088     0.0000    52.0000 </r>
       <r>    -3.6162     0.0000    52.0000 </r>
       <r>    -3.4236     0.0000    52.0000 </r>
       <r>    -3.2310     2.8450    52.5480 </r>
       <r>    -3.0383    12.7294    55.0000 </r>
       <r>    -2.8457     2.4660    55.4750 </r>
       <r>    -2.6531    11.9084    57.7689 </r>
       <r>    -2.4605    11.0123    59.8938 </r>
       <r>    -2.2678    16.7678    63.1265 </r>
       <r>    -2.0752     4.5279    64.0000 </r>
       <r>    -1.8826     0.0000    64.0000 </r>
       <r>    -1.6900     0.0000    64.0000 </r>
       <r>    -1.4973    15.1338    66.9151 </r>
       <r>    -1.3047    16.3815    70.0738 </r>
       <r>    -1.1121    21.0423    74.1310 </r>
       <r>    -0.9195     9.7027    76.0000 </r>
       <r>    -0.7268     0.0000    76.0000 </r>
       <r>    -0.5342     7.2621    77.3989 </r>
       <r>    -0.3416    11.7255    79.6575 </r>
       <r>    -0.1490    10.9811    81.7727 </r>
       <r>     0.0437    27.5550    87.0805 </r>
       <r>     0.2363    25.1316    91.9260 </r>
       <r>     0.4289    16.5038    95.1083 </r>
       <r>     0.6215     4.6283    96.0000 </r>
       <r>     0.8142     8.1859    97.5768 </r>
       <r>     1.0068    20.1484   101.4588 </r>
       <r>     1.1994    23.7961   106.0440 </r>
       <r>     1.3920    27.9651   111.4316 </r>
       <r>     1.5847    28.7103   116.9627 </r>
       <r>     1.7773    15.4264   119.9378 </r>
       <r>     1.9699     0.3176   120.0000 </r>
       <r>     2.1625     0.0000   120.0000 </r>
       <r>     2.3551     0.0000   120.0000 </r>
       <r>     2.5478     0.0000   120.0000 </r>
       <r>     2.7404     0.0000   120.0000 </r>
       <r>     2.9330     0.0000   120.0000 </r>
       <r>     3.1256     0.0000   120.0000 </r>
       <r>     3.3183     0.0000   120.0000 </r>
       <r>     3.5109     0.0000   120.0000 </r>
       <r>     3.7035     0.0000   120.0000 </r>
       <r>     3.8961     0.0000   120.0000 </r>
       <r>     4.0888     0.0000   120.0000 </r>
       <r>     4.2814     0.0000   120.0000 </r>
       <r>     4.4740     4.9930   120.9618 </r>
       <r>     4.6666     0.1824   121.0000 </r>
       <r>     4.8593     0.0000   121.0000 </r>
       <r>     5.0519     0.0000   121.0000 </r>
       <r>     5.2445     2.9449   121.5673 </r>
       <r>     5.4371    12.5224   123.9794 </r>
       <r>     5.6298     0.0994   124.0000 </r>
       <r>     5.8224     0.0001   124.0000 </r>
       <r>     6.0150     9.3584   125.8027 </r>
       <r>     6.2076    15.8162   128.8500 </r>
       <r>     6.4003     5.9699   130.0000 </r>
       <r>     6.5929     8.2700   131.5930 </r>
       <r>     6.7855     8.8304   133.2947 </r>
       <r>     6.9781    14.0416   135.9995 </r>
       <r>     7.1708     5.0438   136.9716 </r>
       <r>     7.3634     0.1734   137.0089 </r>
       <r>     7.5560    12.2748   139.3733 </r>
       <r>     7.7486    12.2304   141.7318 </r>
       <r>     7.9413     9.5950   143.5827 </r>
       <r>     8.1339    12.2439   145.9419 </r>
       <r>     8.3265    17.1648   149.2483 </r>
       <r>     8.5191    13.8268   151.9118 </r>
       <r>     8.7117    14.7438   154.7536 </r>
       <r>     8.9044    14.7205   157.5901 </r>
       <r>     9.0970    19.2666   161.3024 </r>
       <r>     9.2896    21.4431   165.4331 </r>
       <r>     9.4822    14.4735   168.2250 </r>
       <r>     9.6749    18.3310   171.7564 </r>
       <r>     9.8675    16.4511   174.9260 </r>
       <r>    10.0601     5.5705   176.0000 </r>
       <r>    10.2527     0.0000   176.0000 </r>
       <r>    10.4454     0.0000   176.0000 </r>
       <r>    10.6380     0.0000   176.0000 </r>
       <r>    10.8306     0.0000   176.0000 </r>
       <r>    11.0232     0.0000   176.0000 </r>
       <r>    11.2159     0.0000   176.0000 </r>
       <r>    11.4085     0.0000   176.0000 </r>
       <r>    11.6011     0.0000   176.0000 </r>
       <r>    11.7937     0.0000   176.0000 </r>
       <r>    11.9864     0.0000   176.0000 </r>
       <r>    12.1790     0.0000   176.0000 </r>
       <r>    12.3716     0.0000   176.0000 </r>
       <r>    12.5642     0.0000   176.0000 </r>
      </set>
     </set>
    </array>
   </total>
  </dos>
 </calculation>
 <structure name="finalpos" >
  <crystal>
   <varray name="basis" >
    <v>       9.66044995       0.00000000       0.00000000 </v>
    <v>       0.00000000       9.66044995       0.00000000 </v>
    <v>       0.00000000       0.00000000       9.66044995 </v>
   </varray>
   <i name="volume">    901.55466491 </i>
   <varray name="rec_basis" >
    <v>       0.10351485       0.00000000       0.00000000 </v>
    <v>       0.00000000       0.10351485       0.00000000 </v>
    <v>       0.00000000       0.00000000       0.10351485 </v>
   </varray>
  </crystal>
  <varray name="positions" >
   <v>       0.96525344       0.34559825       0.31525022 </v>
   <v>       0.98772423       0.71235266       0.71057802 </v>
   <v>       0.04481312       0.31763191       0.65811057 </v>
   <v>       0.01398082       0.70302554       0.28645397 </v>
   <v>       0.16764830       0.19144109       0.95720653 </v>
   <v>       0.17790403       0.81663076       0.02433647 </v>
   <v>       0.81551866       0.19806252       0.01478466 </v>
   <v>       0.81430589       0.82727927       0.96761231 </v>
   <v>       0.19948492       0.99559736       0.22775158 </v>
   <v>       0.33096934       0.02270827       0.69853976 </v>
   <v>       0.68674158       0.95565236       0.66730824 </v>
   <v>       0.81443380       0.02256861       0.21990514 </v>
   <v>       0.20845995       0.68744854       0.47550300 </v>
   <v>       0.31228308       0.21735940       0.51342789 </v>
   <v>       0.79131147       0.66277681       0.52560126 </v>
   <v>       0.72166757       0.20007782       0.47657409 </v>
   <v>       0.30210415       0.48122286       0.79100197 </v>
   <v>       0.32477814       0.54792097       0.16333003 </v>
   <v>       0.67248738       0.46972358       0.16971967 </v>
   <v>       0.71981898       0.51298303       0.81017164 </v>
   <v>       0.49253249       0.28957410       0.80926693 </v>
   <v>       0.46734415       0.83122375       0.33111193 </v>
   <v>       0.52225875       0.20294500       0.28318106 </v>
   <v>       0.52980802       0.70367239       0.82113860 </v>
   <v>       0.50694957       0.50729792       0.49184523 </v>
   <v>       0.50122029       0.99974199       0.00336315 </v>
   <v>       0.00744770       0.49948560       0.99843937 </v>
   <v>       0.00286239       0.00343867       0.51420131 </v>
   <v>       0.14017876       0.88315076       0.62101612 </v>
   <v>       0.10687081       0.14475171       0.39213454 </v>
   <v>       0.87307400       0.87668640       0.40182725 </v>
   <v>       0.88242611       0.11780818       0.64523431 </v>
   <v>       0.86905340       0.61801727       0.10784389 </v>
   <v>       0.90556765       0.36826096       0.86592701 </v>
   <v>       0.13241885       0.62660749       0.88260044 </v>
   <v>       0.12944494       0.38439120       0.12688859 </v>
   <v>       0.63372293       0.10263288       0.87199543 </v>
   <v>       0.62113940       0.88240891       0.13266634 </v>
   <v>       0.37290914       0.13364737       0.10750840 </v>
   <v>       0.37472117       0.87597326       0.88604824 </v>
   <v>       0.61919668       0.62895438       0.35923661 </v>
   <v>       0.63232421       0.38430143       0.61237989 </v>
   <v>       0.39510128       0.63493633       0.62001229 </v>
   <v>       0.37892357       0.39448585       0.36504275 </v>
   <v>       0.75560727       0.74113361       0.75086996 </v>
   <v>       0.75281759       0.25316919       0.24332141 </v>
   <v>       0.24508411       0.76192765       0.24970470 </v>
   <v>       0.26388958       0.25165326       0.74338087 </v>
   <v>       0.99788821       0.00187930       0.03543750 </v>
   <v>       0.00580051       0.53083328       0.49786879 </v>
   <v>       0.50220952       0.03596187       0.49272196 </v>
   <v>       0.50896469       0.49489616       0.96529818 </v>
  </varray>
 </structure>
</modeling>
