unknown system                          
           1
     9.660450    0.000000    0.000000
     0.000000    9.660450    0.000000
     0.000000    0.000000    9.660450
   Li   P    S    Cl
    24     4    20     4
Direct configuration=     1
   0.96525541  0.34559298  0.31525182
   0.98772048  0.71234566  0.71057728
   0.04481289  0.31763049  0.65811569
   0.01398475  0.70302246  0.28645220
   0.16765453  0.19143847  0.95721038
   0.17791193  0.81662803  0.02433728
   0.81552385  0.19806470  0.01478675
   0.81430809  0.82727469  0.96760897
   0.19947878  0.99559082  0.22775320
   0.33096120  0.02270773  0.69854119
   0.68673769  0.95565802  0.66731881
   0.81442933  0.02256770  0.21990303
   0.20845928  0.68745525  0.47550311
   0.31228654  0.21736161  0.51343401
   0.79131052  0.66279437  0.52559510
   0.72166755  0.20007867  0.47657238
   0.30210227  0.48122198  0.79100532
   0.32477730  0.54791783  0.16333474
   0.67249017  0.46972281  0.16971944
   0.71981970  0.51298758  0.81016360
   0.49253055  0.28957362  0.80926848
   0.46734501  0.83122283  0.33110873
   0.52226160  0.20294464  0.28318018
   0.52980795  0.70367272  0.82113103
   0.50694833  0.50729842  0.49183918
   0.50122247  0.99974120  0.00336402
   0.00744786  0.49948480  0.99844205
   0.00286056  0.00344003  0.51420410
   0.14016323  0.88315658  0.62101324
   0.10687173  0.14474239  0.39214579
   0.87309068  0.87669833  0.40182474
   0.88242955  0.11780399  0.64522119
   0.86906503  0.61800895  0.10783660
   0.90556745  0.36827105  0.86593221
   0.13241092  0.62660109  0.88260501
   0.12943419  0.38439817  0.12687757
   0.63371565  0.10263474  0.87200834
   0.62113258  0.88241606  0.13265303
   0.37291509  0.13363099  0.10750892
   0.37473169  0.87598094  0.88604901
   0.61918880  0.62894495  0.35924757
   0.63231274  0.38430592  0.61237414
   0.39510148  0.63492405  0.62000538
   0.37893564  0.39448949  0.36505147
   0.75560561  0.74113590  0.75086605
   0.75281930  0.25316661  0.24332216
   0.24508442  0.76192506  0.24970473
   0.26388989  0.25165337  0.74338399
   0.99789061  0.00187670  0.03544235
   0.00579870  0.53084025  0.49786798
   0.50220874  0.03596522  0.49272470
   0.50896626  0.49489879  0.96529182
Direct configuration=     2
   0.96525499  0.34559417  0.31525147
   0.98772144  0.71234729  0.71057748
   0.04481292  0.31763083  0.65811455
   0.01398383  0.70302318  0.28645263
   0.16765309  0.19143910  0.95720945
   0.17791022  0.81662859  0.02433696
   0.81552267  0.19806425  0.01478619
   0.81430758  0.82727577  0.96760975
   0.19948014  0.99559237  0.22775288
   0.33096297  0.02270782  0.69854087
   0.68673859  0.95565677  0.66731638
   0.81443037  0.02256792  0.21990353
   0.20845946  0.68745373  0.47550318
   0.31228570  0.21736112  0.51343254
   0.79131077  0.66279045  0.52559652
   0.72166750  0.20007856  0.47657283
   0.30210271  0.48122227  0.79100450
   0.32477746  0.54791856  0.16333362
   0.67248955  0.46972300  0.16971948
   0.71981953  0.51298645  0.81016533
   0.49253105  0.28957377  0.80926804
   0.46734479  0.83122309  0.33110947
   0.52226088  0.20294473  0.28318038
   0.52980786  0.70367267  0.82113272
   0.50694866  0.50729782  0.49184282
   0.50122130  0.99974182  0.00336297
   0.00744752  0.49948518  0.99843970
   0.00286149  0.00343987  0.51420287
   0.14016772  0.88315447  0.62101470
   0.10687202  0.14474524  0.39214269
   0.87308596  0.87669467  0.40182456
   0.88242777  0.11780586  0.64522541
   0.86906116  0.61801180  0.10783926
   0.90556720  0.36826826  0.86593068
   0.13241323  0.62660309  0.88260363
   0.12943796  0.38439535  0.12688155
   0.63371808  0.10263485  0.87200475
   0.62113525  0.88241316  0.13265746
   0.37291303  0.13363546  0.10750944
   0.37472871  0.87597860  0.88604837
   0.61919185  0.62894852  0.35924345
   0.63231570  0.38430461  0.61237564
   0.39510100  0.63492736  0.62000731
   0.37893160  0.39448761  0.36504814
   0.75560599  0.74113553  0.75086695
   0.75281895  0.25316736  0.24332193
   0.24508454  0.76192553  0.24970471
   0.26388964  0.25165329  0.74338340
   0.99789021  0.00187743  0.03544085
   0.00579915  0.53083825  0.49786814
   0.50220896  0.03596405  0.49272405
   0.50896580  0.49489817  0.96529386
Direct configuration=     3
   0.96525470  0.34559501  0.31525122
   0.98772213  0.71234846  0.71057763
   0.04481294  0.31763108  0.65811373
   0.01398317  0.70302370  0.28645294
   0.16765205  0.19143955  0.95720878
   0.17790899  0.81662899  0.02433673
   0.81552183  0.19806393  0.01478579
   0.81430722  0.82727654  0.96761031
   0.19948112  0.99559348  0.22775265
   0.33096423  0.02270789  0.69854064
   0.68673924  0.95565587  0.66731464
   0.81443112  0.02256808  0.21990389
   0.20845959  0.68745264  0.47550323
   0.31228511  0.21736077  0.51343149
   0.79131094  0.66278765  0.52559753
   0.72166747  0.20007849  0.47657316
   0.30210302  0.48122247  0.79100391
   0.32477758  0.54791907  0.16333282
   0.67248911  0.46972313  0.16971951
   0.71981941  0.51298565  0.81016656
   0.49253141  0.28957387  0.80926773
   0.46734464  0.83122327  0.33111001
   0.52226036  0.20294480  0.28318052
   0.52980780  0.70367263  0.82113394
   0.50694889  0.50729739  0.49184542
   0.50122046  0.99974226  0.00336222
   0.00744728  0.49948545  0.99843802
   0.00286216  0.00343975  0.51420200
   0.14017093  0.88315296  0.62101574
   0.10687223  0.14474729  0.39214047
   0.87308258  0.87669205  0.40182442
   0.88242650  0.11780720  0.64522843
   0.86905839  0.61801385  0.10784116
   0.90556702  0.36826626  0.86592959
   0.13241489  0.62660452  0.88260265
   0.12944066  0.38439333  0.12688440
   0.63371982  0.10263493  0.87200219
   0.62113717  0.88241109  0.13266062
   0.37291156  0.13363867  0.10750982
   0.37472658  0.87597692  0.88604791
   0.61919403  0.62895108  0.35924049
   0.63231782  0.38430367  0.61237671
   0.39510065  0.63492973  0.62000869
   0.37892871  0.39448627  0.36504576
   0.75560627  0.74113527  0.75086759
   0.75281869  0.25316791  0.24332177
   0.24508462  0.76192587  0.24970469
   0.26388946  0.25165323  0.74338297
   0.99788993  0.00187796  0.03543977
   0.00579947  0.53083682  0.49786825
   0.50220912  0.03596321  0.49272359
   0.50896546  0.49489773  0.96529533
Direct configuration=     4
   0.96525411  0.34559671  0.31525073
   0.98772350  0.71235079  0.71057792
   0.04481298  0.31763158  0.65811209
   0.01398186  0.70302473  0.28645355
   0.16764998  0.19144045  0.95720745
   0.17790654  0.81662980  0.02433628
   0.81552014  0.19806328  0.01478499
   0.81430649  0.82727809  0.96761143
   0.19948307  0.99559571  0.22775219
   0.33096676  0.02270802  0.69854019
   0.68674054  0.95565408  0.66731116
   0.81443261  0.02256840  0.21990460
   0.20845985  0.68745047  0.47550334
   0.31228392  0.21736007  0.51342938
   0.79131130  0.66278204  0.52559956
   0.72166741  0.20007834  0.47657381
   0.30210364  0.48122287  0.79100274
   0.32477781  0.54792011  0.16333122
   0.67248823  0.46972340  0.16971957
   0.71981917  0.51298403  0.81016904
   0.49253214  0.28957408  0.80926711
   0.46734433  0.83122364  0.33111107
   0.52225933  0.20294493  0.28318080
   0.52980769  0.70367256  0.82113637
   0.50694936  0.50729653  0.49185063
   0.50121879  0.99974316  0.00336072
   0.00744681  0.49948600  0.99843466
   0.00286349  0.00343951  0.51420024
   0.14017736  0.88314995  0.62101783
   0.10687265  0.14475138  0.39213602
   0.87307581  0.87668681  0.40182416
   0.88242396  0.11780987  0.64523447
   0.86905285  0.61801793  0.10784498
   0.90556666  0.36826226  0.86592740
   0.13241821  0.62660739  0.88260068
   0.12944606  0.38438929  0.12689009
   0.63372330  0.10263510  0.87199705
   0.62114099  0.88240694  0.13266696
   0.37290861  0.13364507  0.10751057
   0.37472231  0.87597355  0.88604700
   0.61919840  0.62895619  0.35923459
   0.63232205  0.38430180  0.61237885
   0.39509996  0.63493447  0.62001145
   0.37892294  0.39448359  0.36504099
   0.75560682  0.74113474  0.75086888
   0.75281819  0.25316899  0.24332145
   0.24508479  0.76192655  0.24970465
   0.26388910  0.25165312  0.74338212
   0.99788936  0.00187901  0.03543762
   0.00580011  0.53083397  0.49786848
   0.50220944  0.03596154  0.49272266
   0.50896480  0.49489684  0.96529826
Direct configuration=     5
   0.96525442  0.34559580  0.31525099
   0.98772277  0.71234954  0.71057776
   0.04481296  0.31763131  0.65811297
   0.01398256  0.70302418  0.28645322
   0.16765109  0.19143997  0.95720816
   0.17790785  0.81662937  0.02433652
   0.81552104  0.19806362  0.01478542
   0.81430688  0.82727726  0.96761083
   0.19948203  0.99559452  0.22775243
   0.33096541  0.02270795  0.69854043
   0.68673985  0.95565504  0.66731302
   0.81443181  0.02256823  0.21990422
   0.20845971  0.68745163  0.47550328
   0.31228455  0.21736045  0.51343051
   0.79131111  0.66278504  0.52559847
   0.72166744  0.20007842  0.47657346
   0.30210331  0.48122266  0.79100337
   0.32477769  0.54791956  0.16333207
   0.67248870  0.46972326  0.16971954
   0.71981930  0.51298490  0.81016772
   0.49253175  0.28957397  0.80926745
   0.46734449  0.83122344  0.33111050
   0.52225988  0.20294486  0.28318065
   0.52980775  0.70367260  0.82113507
   0.50694911  0.50729699  0.49184785
   0.50121968  0.99974268  0.00336152
   0.00744706  0.49948571  0.99843645
   0.00286278  0.00343964  0.51420118
   0.14017392  0.88315156  0.62101671
   0.10687243  0.14474919  0.39213840
   0.87307943  0.87668961  0.40182430
   0.88242532  0.11780844  0.64523124
   0.86905581  0.61801575  0.10784294
   0.90556685  0.36826439  0.86592857
   0.13241644  0.62660586  0.88260173
   0.12944317  0.38439145  0.12688705
   0.63372144  0.10263501  0.87199979
   0.62113895  0.88240916  0.13266357
   0.37291019  0.13364165  0.10751017
   0.37472459  0.87597535  0.88604749
   0.61919606  0.62895346  0.35923774
   0.63231979  0.38430280  0.61237771
   0.39510033  0.63493194  0.62000998
   0.37892602  0.39448502  0.36504354
   0.75560653  0.74113502  0.75086819
   0.75281846  0.25316841  0.24332162
   0.24508470  0.76192619  0.24970467
   0.26388930  0.25165318  0.74338258
   0.99788967  0.00187845  0.03543877
   0.00579977  0.53083549  0.49786836
   0.50220927  0.03596243  0.49272315
   0.50896515  0.49489732  0.96529669
Direct configuration=     6
   0.96525424  0.34559634  0.31525084
   0.98772320  0.71235028  0.71057786
   0.04481297  0.31763147  0.65811245
   0.01398214  0.70302451  0.28645342
   0.16765043  0.19144026  0.95720774
   0.17790707  0.81662962  0.02433638
   0.81552051  0.19806342  0.01478516
   0.81430665  0.82727775  0.96761119
   0.19948264  0.99559522  0.22775229
   0.33096621  0.02270799  0.69854029
   0.68674026  0.95565447  0.66731192
   0.81443228  0.02256833  0.21990445
   0.20845979  0.68745094  0.47550332
   0.31228418  0.21736022  0.51342984
   0.79131122  0.66278326  0.52559912
   0.72166742  0.20007837  0.47657367
   0.30210351  0.48122278  0.79100299
   0.32477776  0.54791988  0.16333157
   0.67248842  0.46972334  0.16971955
   0.71981922  0.51298439  0.81016850
   0.49253198  0.28957404  0.80926725
   0.46734439  0.83122356  0.33111084
   0.52225955  0.20294490  0.28318074
   0.52980771  0.70367257  0.82113584
   0.50694926  0.50729672  0.49184950
   0.50121915  0.99974296  0.00336104
   0.00744691  0.49948588  0.99843539
   0.00286320  0.00343956  0.51420063
   0.14017596  0.88315060  0.62101737
   0.10687256  0.14475049  0.39213699
   0.87307729  0.87668795  0.40182422
   0.88242451  0.11780929  0.64523315
   0.86905405  0.61801704  0.10784415
   0.90556674  0.36826313  0.86592788
   0.13241749  0.62660676  0.88260111
   0.12944488  0.38439017  0.12688885
   0.63372254  0.10263506  0.87199817
   0.62114016  0.88240785  0.13266558
   0.37290926  0.13364368  0.10751041
   0.37472324  0.87597429  0.88604720
   0.61919745  0.62895508  0.35923587
   0.63232113  0.38430220  0.61237838
   0.39510011  0.63493344  0.62001085
   0.37892420  0.39448417  0.36504203
   0.75560670  0.74113485  0.75086860
   0.75281830  0.25316875  0.24332152
   0.24508475  0.76192640  0.24970465
   0.26388918  0.25165314  0.74338231
   0.99788949  0.00187878  0.03543809
   0.00579997  0.53083459  0.49786843
   0.50220937  0.03596190  0.49272286
   0.50896494  0.49489704  0.96529762
Direct configuration=     7
   0.96525430  0.34559617  0.31525089
   0.98772306  0.71235004  0.71057783
   0.04481297  0.31763142  0.65811261
   0.01398228  0.70302440  0.28645335
   0.16765065  0.19144017  0.95720788
   0.17790732  0.81662954  0.02433642
   0.81552068  0.19806348  0.01478524
   0.81430673  0.82727759  0.96761107
   0.19948244  0.99559499  0.22775234
   0.33096595  0.02270798  0.69854033
   0.68674013  0.95565465  0.66731228
   0.81443213  0.02256830  0.21990437
   0.20845977  0.68745116  0.47550331
   0.31228430  0.21736030  0.51343006
   0.79131118  0.66278384  0.52559891
   0.72166743  0.20007839  0.47657360
   0.30210344  0.48122274  0.79100311
   0.32477774  0.54791978  0.16333173
   0.67248851  0.46972331  0.16971955
   0.71981925  0.51298455  0.81016824
   0.49253191  0.28957402  0.80926731
   0.46734443  0.83122352  0.33111073
   0.52225966  0.20294489  0.28318071
   0.52980772  0.70367258  0.82113559
   0.50694921  0.50729680  0.49184896
   0.50121933  0.99974287  0.00336120
   0.00744696  0.49948583  0.99843573
   0.00286306  0.00343959  0.51420081
   0.14017530  0.88315091  0.62101716
   0.10687251  0.14475007  0.39213745
   0.87307798  0.87668849  0.40182425
   0.88242477  0.11780902  0.64523253
   0.86905462  0.61801662  0.10784376
   0.90556677  0.36826354  0.86592810
   0.13241715  0.62660647  0.88260131
   0.12944433  0.38439058  0.12688827
   0.63372219  0.10263505  0.87199869
   0.62113976  0.88240827  0.13266493
   0.37290956  0.13364302  0.10751033
   0.37472368  0.87597463  0.88604729
   0.61919700  0.62895455  0.35923648
   0.63232069  0.38430240  0.61237817
   0.39510018  0.63493295  0.62001057
   0.37892479  0.39448445  0.36504252
   0.75560665  0.74113491  0.75086847
   0.75281835  0.25316864  0.24332155
   0.24508474  0.76192633  0.24970466
   0.26388922  0.25165315  0.74338240
   0.99788954  0.00187867  0.03543831
   0.00579991  0.53083488  0.49786841
   0.50220934  0.03596207  0.49272295
   0.50896501  0.49489713  0.96529732
Direct configuration=     8
   0.96525426  0.34559628  0.31525085
   0.98772316  0.71235020  0.71057785
   0.04481297  0.31763145  0.65811250
   0.01398219  0.70302447  0.28645340
   0.16765050  0.19144023  0.95720779
   0.17790716  0.81662959  0.02433639
   0.81552057  0.19806344  0.01478519
   0.81430668  0.82727770  0.96761115
   0.19948257  0.99559514  0.22775230
   0.33096612  0.02270799  0.69854030
   0.68674021  0.95565453  0.66731204
   0.81443223  0.02256832  0.21990442
   0.20845979  0.68745102  0.47550331
   0.31228422  0.21736025  0.51342992
   0.79131121  0.66278345  0.52559905
   0.72166742  0.20007838  0.47657365
   0.30210348  0.48122277  0.79100304
   0.32477775  0.54791985  0.16333162
   0.67248845  0.46972333  0.16971955
   0.71981923  0.51298444  0.81016841
   0.49253195  0.28957403  0.80926727
   0.46734441  0.83122355  0.33111080
   0.52225959  0.20294490  0.28318073
   0.52980772  0.70367258  0.82113576
   0.50694924  0.50729675  0.49184932
   0.50121921  0.99974293  0.00336110
   0.00744693  0.49948586  0.99843550
   0.00286315  0.00343957  0.51420069
   0.14017574  0.88315071  0.62101730
   0.10687254  0.14475035  0.39213714
   0.87307752  0.87668813  0.40182423
   0.88242460  0.11780920  0.64523294
   0.86905424  0.61801690  0.10784402
   0.90556675  0.36826327  0.86592795
   0.13241738  0.62660666  0.88260117
   0.12944470  0.38439031  0.12688866
   0.63372242  0.10263506  0.87199834
   0.62114003  0.88240799  0.13266536
   0.37290936  0.13364346  0.10751038
   0.37472339  0.87597440  0.88604723
   0.61919729  0.62895490  0.35923608
   0.63232098  0.38430227  0.61237831
   0.39510013  0.63493327  0.62001076
   0.37892440  0.39448426  0.36504219
   0.75560669  0.74113487  0.75086856
   0.75281831  0.25316872  0.24332153
   0.24508475  0.76192638  0.24970466
   0.26388919  0.25165314  0.74338234
   0.99788951  0.00187875  0.03543817
   0.00579995  0.53083469  0.49786842
   0.50220936  0.03596196  0.49272289
   0.50896497  0.49489707  0.96529752
Direct configuration=     9
   0.96525344  0.34559825  0.31525022
   0.98772423  0.71235266  0.71057802
   0.04481312  0.31763191  0.65811057
   0.01398082  0.70302554  0.28645397
   0.16764830  0.19144109  0.95720653
   0.17790403  0.81663076  0.02433647
   0.81551866  0.19806252  0.01478466
   0.81430589  0.82727927  0.96761231
   0.19948492  0.99559736  0.22775158
   0.33096934  0.02270827  0.69853976
   0.68674158  0.95565236  0.66730824
   0.81443380  0.02256861  0.21990514
   0.20845995  0.68744854  0.47550300
   0.31228308  0.21735940  0.51342789
   0.79131147  0.66277681  0.52560126
   0.72166757  0.20007782  0.47657409
   0.30210415  0.48122286  0.79100197
   0.32477814  0.54792097  0.16333003
   0.67248738  0.46972358  0.16971967
   0.71981898  0.51298303  0.81017164
   0.49253249  0.28957410  0.80926693
   0.46734415  0.83122375  0.33111193
   0.52225875  0.20294500  0.28318106
   0.52980802  0.70367239  0.82113860
   0.50694957  0.50729792  0.49184523
   0.50122029  0.99974199  0.00336315
   0.00744770  0.49948560  0.99843937
   0.00286239  0.00343867  0.51420131
   0.14017876  0.88315076  0.62101612
   0.10687081  0.14475171  0.39213454
   0.87307400  0.87668640  0.40182725
   0.88242611  0.11780818  0.64523431
   0.86905340  0.61801727  0.10784389
   0.90556765  0.36826096  0.86592701
   0.13241885  0.62660749  0.88260044
   0.12944494  0.38439120  0.12688859
   0.63372293  0.10263288  0.87199543
   0.62113940  0.88240891  0.13266634
   0.37290914  0.13364737  0.10750840
   0.37472117  0.87597326  0.88604824
   0.61919668  0.62895438  0.35923661
   0.63232421  0.38430143  0.61237989
   0.39510128  0.63493633  0.62001229
   0.37892357  0.39448585  0.36504275
   0.75560727  0.74113361  0.75086996
   0.75281759  0.25316919  0.24332141
   0.24508411  0.76192765  0.24970470
   0.26388958  0.25165326  0.74338087
   0.99788821  0.00187930  0.03543750
   0.00580051  0.53083328  0.49786879
   0.50220952  0.03596187  0.49272196
   0.50896469  0.49489616  0.96529818
