  52  52   0  16
  0.1732202E+02  0.9657558E-09  0.9657558E-09  0.9657558E-09  0.2000000E-15
  1.000000000000000E-004
  CAR 
 unknown system                          
     12.63436089    -45.23490804  301      2.07321931      1.00000000
    -45.235  0.0000E+00  0.0000E+00  0.0000E+00  0.0000E+00
    -45.042  0.0000E+00  0.0000E+00  0.0000E+00  0.0000E+00
    -44.849  0.0000E+00  0.0000E+00  0.0000E+00  0.0000E+00
    -44.656  0.0000E+00  0.0000E+00  0.0000E+00  0.0000E+00
    -44.463  0.0000E+00  0.0000E+00  0.0000E+00  0.0000E+00
    -44.270  0.0000E+00  0.0000E+00  0.0000E+00  0.0000E+00
    -44.078  0.0000E+00  0.0000E+00  0.0000E+00  0.0000E+00
    -43.885  0.0000E+00  0.0000E+00  0.0000E+00  0.0000E+00
    -43.692  0.0000E+00  0.0000E+00  0.0000E+00  0.0000E+00
    -43.499  0.0000E+00  0.0000E+00  0.0000E+00  0.0000E+00
    -43.306  0.0000E+00  0.0000E+00  0.0000E+00  0.0000E+00
    -43.113  0.0000E+00  0.0000E+00  0.0000E+00  0.0000E+00
    -42.920  0.0000E+00  0.0000E+00  0.0000E+00  0.0000E+00
    -42.727  0.1860E-10  0.1860E-10  0.3589E-11  0.3588E-11
    -42.534  0.6742E-02  0.6742E-02  0.1301E-02  0.1301E-02
    -42.341  0.7256E-01  0.7256E-01  0.1530E-01  0.1530E-01
    -42.149  0.4498E-01  0.4498E-01  0.2399E-01  0.2399E-01
    -41.956  0.7223E-04  0.7223E-04  0.2400E-01  0.2400E-01
    -41.763  0.0000E+00  0.0000E+00  0.2400E-01  0.2400E-01
    -41.570  0.0000E+00  0.0000E+00  0.2400E-01  0.2400E-01
    -41.377  0.0000E+00  0.0000E+00  0.2400E-01  0.2400E-01
    -41.184  0.0000E+00  0.0000E+00  0.2400E-01  0.2400E-01
    -40.991  0.0000E+00  0.0000E+00  0.2400E-01  0.2400E-01
    -40.798  0.0000E+00  0.0000E+00  0.2400E-01  0.2400E-01
    -40.605  0.0000E+00  0.0000E+00  0.2400E-01  0.2400E-01
    -40.412  0.0000E+00  0.0000E+00  0.2400E-01  0.2400E-01
    -40.220  0.0000E+00  0.0000E+00  0.2400E-01  0.2400E-01
    -40.027  0.0000E+00  0.0000E+00  0.2400E-01  0.2400E-01
    -39.834  0.0000E+00  0.0000E+00  0.2400E-01  0.2400E-01
    -39.641  0.0000E+00  0.0000E+00  0.2400E-01  0.2400E-01
    -39.448  0.0000E+00  0.0000E+00  0.2400E-01  0.2400E-01
    -39.255  0.0000E+00  0.0000E+00  0.2400E-01  0.2400E-01
    -39.062  0.0000E+00  0.0000E+00  0.2400E-01  0.2400E-01
    -38.869  0.0000E+00  0.0000E+00  0.2400E-01  0.2400E-01
    -38.676  0.0000E+00  0.0000E+00  0.2400E-01  0.2400E-01
    -38.483  0.0000E+00  0.0000E+00  0.2400E-01  0.2400E-01
    -38.291  0.0000E+00  0.0000E+00  0.2400E-01  0.2400E-01
    -38.098  0.0000E+00  0.0000E+00  0.2400E-01  0.2400E-01
    -37.905  0.0000E+00  0.0000E+00  0.2400E-01  0.2400E-01
    -37.712  0.0000E+00  0.0000E+00  0.2400E-01  0.2400E-01
    -37.519  0.0000E+00  0.0000E+00  0.2400E-01  0.2400E-01
    -37.326  0.0000E+00  0.0000E+00  0.2400E-01  0.2400E-01
    -37.133  0.0000E+00  0.0000E+00  0.2400E-01  0.2400E-01
    -36.940  0.0000E+00  0.0000E+00  0.2400E-01  0.2400E-01
    -36.747  0.0000E+00  0.0000E+00  0.2400E-01  0.2400E-01
    -36.555  0.0000E+00  0.0000E+00  0.2400E-01  0.2400E-01
    -36.362  0.0000E+00  0.0000E+00  0.2400E-01  0.2400E-01
    -36.169  0.0000E+00  0.0000E+00  0.2400E-01  0.2400E-01
    -35.976  0.0000E+00  0.0000E+00  0.2400E-01  0.2400E-01
    -35.783  0.0000E+00  0.0000E+00  0.2400E-01  0.2400E-01
    -35.590  0.0000E+00  0.0000E+00  0.2400E-01  0.2400E-01
    -35.397  0.0000E+00  0.0000E+00  0.2400E-01  0.2400E-01
    -35.204  0.0000E+00  0.0000E+00  0.2400E-01  0.2400E-01
    -35.011  0.0000E+00  0.0000E+00  0.2400E-01  0.2400E-01
    -34.818  0.0000E+00  0.0000E+00  0.2400E-01  0.2400E-01
    -34.626  0.0000E+00  0.0000E+00  0.2400E-01  0.2400E-01
    -34.433  0.0000E+00  0.0000E+00  0.2400E-01  0.2400E-01
    -34.240  0.0000E+00  0.0000E+00  0.2400E-01  0.2400E-01
    -34.047  0.0000E+00  0.0000E+00  0.2400E-01  0.2400E-01
    -33.854  0.0000E+00  0.0000E+00  0.2400E-01  0.2400E-01
    -33.661  0.0000E+00  0.0000E+00  0.2400E-01  0.2400E-01
    -33.468  0.0000E+00  0.0000E+00  0.2400E-01  0.2400E-01
    -33.275  0.0000E+00  0.0000E+00  0.2400E-01  0.2400E-01
    -33.082  0.0000E+00  0.0000E+00  0.2400E-01  0.2400E-01
    -32.889  0.0000E+00  0.0000E+00  0.2400E-01  0.2400E-01
    -32.697  0.0000E+00  0.0000E+00  0.2400E-01  0.2400E-01
    -32.504  0.0000E+00  0.0000E+00  0.2400E-01  0.2400E-01
    -32.311  0.0000E+00  0.0000E+00  0.2400E-01  0.2400E-01
    -32.118  0.0000E+00  0.0000E+00  0.2400E-01  0.2400E-01
    -31.925  0.0000E+00  0.0000E+00  0.2400E-01  0.2400E-01
    -31.732  0.0000E+00  0.0000E+00  0.2400E-01  0.2400E-01
    -31.539  0.0000E+00  0.0000E+00  0.2400E-01  0.2400E-01
    -31.346  0.0000E+00  0.0000E+00  0.2400E-01  0.2400E-01
    -31.153  0.0000E+00  0.0000E+00  0.2400E-01  0.2400E-01
    -30.960  0.0000E+00  0.0000E+00  0.2400E-01  0.2400E-01
    -30.768  0.0000E+00  0.0000E+00  0.2400E-01  0.2400E-01
    -30.575  0.0000E+00  0.0000E+00  0.2400E-01  0.2400E-01
    -30.382  0.0000E+00  0.0000E+00  0.2400E-01  0.2400E-01
    -30.189  0.0000E+00  0.0000E+00  0.2400E-01  0.2400E-01
    -29.996  0.0000E+00  0.0000E+00  0.2400E-01  0.2400E-01
    -29.803  0.0000E+00  0.0000E+00  0.2400E-01  0.2400E-01
    -29.610  0.0000E+00  0.0000E+00  0.2400E-01  0.2400E-01
    -29.417  0.0000E+00  0.0000E+00  0.2400E-01  0.2400E-01
    -29.224  0.0000E+00  0.0000E+00  0.2400E-01  0.2400E-01
    -29.032  0.0000E+00  0.0000E+00  0.2400E-01  0.2400E-01
    -28.839  0.0000E+00  0.0000E+00  0.2400E-01  0.2400E-01
    -28.646  0.0000E+00  0.0000E+00  0.2400E-01  0.2400E-01
    -28.453  0.0000E+00  0.0000E+00  0.2400E-01  0.2400E-01
    -28.260  0.0000E+00  0.0000E+00  0.2400E-01  0.2400E-01
    -28.067  0.0000E+00  0.0000E+00  0.2400E-01  0.2400E-01
    -27.874  0.0000E+00  0.0000E+00  0.2400E-01  0.2400E-01
    -27.681  0.0000E+00  0.0000E+00  0.2400E-01  0.2400E-01
    -27.488  0.0000E+00  0.0000E+00  0.2400E-01  0.2400E-01
    -27.295  0.0000E+00  0.0000E+00  0.2400E-01  0.2400E-01
    -27.103  0.0000E+00  0.0000E+00  0.2400E-01  0.2400E-01
    -26.910  0.0000E+00  0.0000E+00  0.2400E-01  0.2400E-01
    -26.717  0.0000E+00  0.0000E+00  0.2400E-01  0.2400E-01
    -26.524  0.0000E+00  0.0000E+00  0.2400E-01  0.2400E-01
    -26.331  0.0000E+00  0.0000E+00  0.2400E-01  0.2400E-01
    -26.138  0.0000E+00  0.0000E+00  0.2400E-01  0.2400E-01
    -25.945  0.0000E+00  0.0000E+00  0.2400E-01  0.2400E-01
    -25.752  0.0000E+00  0.0000E+00  0.2400E-01  0.2400E-01
    -25.559  0.0000E+00  0.0000E+00  0.2400E-01  0.2400E-01
    -25.366  0.0000E+00  0.0000E+00  0.2400E-01  0.2400E-01
    -25.174  0.0000E+00  0.0000E+00  0.2400E-01  0.2400E-01
    -24.981  0.0000E+00  0.0000E+00  0.2400E-01  0.2400E-01
    -24.788  0.0000E+00  0.0000E+00  0.2400E-01  0.2400E-01
    -24.595  0.0000E+00  0.0000E+00  0.2400E-01  0.2400E-01
    -24.402  0.0000E+00  0.0000E+00  0.2400E-01  0.2400E-01
    -24.209  0.0000E+00  0.0000E+00  0.2400E-01  0.2400E-01
    -24.016  0.0000E+00  0.0000E+00  0.2400E-01  0.2400E-01
    -23.823  0.0000E+00  0.0000E+00  0.2400E-01  0.2400E-01
    -23.630  0.0000E+00  0.0000E+00  0.2400E-01  0.2400E-01
    -23.437  0.0000E+00  0.0000E+00  0.2400E-01  0.2400E-01
    -23.245  0.0000E+00  0.0000E+00  0.2400E-01  0.2400E-01
    -23.052  0.0000E+00  0.0000E+00  0.2400E-01  0.2400E-01
    -22.859  0.0000E+00  0.0000E+00  0.2400E-01  0.2400E-01
    -22.666  0.0000E+00  0.0000E+00  0.2400E-01  0.2400E-01
    -22.473  0.0000E+00  0.0000E+00  0.2400E-01  0.2400E-01
    -22.280  0.0000E+00  0.0000E+00  0.2400E-01  0.2400E-01
    -22.087  0.0000E+00  0.0000E+00  0.2400E-01  0.2400E-01
    -21.894  0.0000E+00  0.0000E+00  0.2400E-01  0.2400E-01
    -21.701  0.0000E+00  0.0000E+00  0.2400E-01  0.2400E-01
    -21.509  0.0000E+00  0.0000E+00  0.2400E-01  0.2400E-01
    -21.316  0.0000E+00  0.0000E+00  0.2400E-01  0.2400E-01
    -21.123  0.0000E+00  0.0000E+00  0.2400E-01  0.2400E-01
    -20.930  0.0000E+00  0.0000E+00  0.2400E-01  0.2400E-01
    -20.737  0.0000E+00  0.0000E+00  0.2400E-01  0.2400E-01
    -20.544  0.0000E+00  0.0000E+00  0.2400E-01  0.2400E-01
    -20.351  0.0000E+00  0.0000E+00  0.2400E-01  0.2400E-01
    -20.158  0.0000E+00  0.0000E+00  0.2400E-01  0.2400E-01
    -19.965  0.0000E+00  0.0000E+00  0.2400E-01  0.2400E-01
    -19.772  0.0000E+00  0.0000E+00  0.2400E-01  0.2400E-01
    -19.580  0.0000E+00  0.0000E+00  0.2400E-01  0.2400E-01
    -19.387  0.0000E+00  0.0000E+00  0.2400E-01  0.2400E-01
    -19.194  0.0000E+00  0.0000E+00  0.2400E-01  0.2400E-01
    -19.001  0.0000E+00  0.0000E+00  0.2400E-01  0.2400E-01
    -18.808  0.0000E+00  0.0000E+00  0.2400E-01  0.2400E-01
    -18.615  0.0000E+00  0.0000E+00  0.2400E-01  0.2400E-01
    -18.422  0.0000E+00  0.0000E+00  0.2400E-01  0.2400E-01
    -18.229  0.0000E+00  0.0000E+00  0.2400E-01  0.2400E-01
    -18.036  0.0000E+00  0.0000E+00  0.2400E-01  0.2400E-01
    -17.843  0.0000E+00  0.0000E+00  0.2400E-01  0.2400E-01
    -17.651  0.0000E+00  0.0000E+00  0.2400E-01  0.2400E-01
    -17.458  0.0000E+00  0.0000E+00  0.2400E-01  0.2400E-01
    -17.265  0.0000E+00  0.0000E+00  0.2400E-01  0.2400E-01
    -17.072  0.0000E+00  0.0000E+00  0.2400E-01  0.2400E-01
    -16.879  0.0000E+00  0.0000E+00  0.2400E-01  0.2400E-01
    -16.686  0.0000E+00  0.0000E+00  0.2400E-01  0.2400E-01
    -16.493  0.0000E+00  0.0000E+00  0.2400E-01  0.2400E-01
    -16.300  0.0000E+00  0.0000E+00  0.2400E-01  0.2400E-01
    -16.107  0.0000E+00  0.0000E+00  0.2400E-01  0.2400E-01
    -15.914  0.0000E+00  0.0000E+00  0.2400E-01  0.2400E-01
    -15.722  0.0000E+00  0.0000E+00  0.2400E-01  0.2400E-01
    -15.529  0.0000E+00  0.0000E+00  0.2400E-01  0.2400E-01
    -15.336  0.0000E+00  0.0000E+00  0.2400E-01  0.2400E-01
    -15.143  0.0000E+00  0.0000E+00  0.2400E-01  0.2400E-01
    -14.950  0.0000E+00  0.0000E+00  0.2400E-01  0.2400E-01
    -14.757  0.0000E+00  0.0000E+00  0.2400E-01  0.2400E-01
    -14.564  0.0000E+00  0.0000E+00  0.2400E-01  0.2400E-01
    -14.371  0.0000E+00  0.0000E+00  0.2400E-01  0.2400E-01
    -14.178  0.0000E+00  0.0000E+00  0.2400E-01  0.2400E-01
    -13.986  0.0000E+00  0.0000E+00  0.2400E-01  0.2400E-01
    -13.793  0.0000E+00  0.0000E+00  0.2400E-01  0.2400E-01
    -13.600  0.0000E+00  0.0000E+00  0.2400E-01  0.2400E-01
    -13.407  0.0000E+00  0.0000E+00  0.2400E-01  0.2400E-01
    -13.214  0.0000E+00  0.0000E+00  0.2400E-01  0.2400E-01
    -13.021  0.4027E-02  0.4027E-02  0.2478E-01  0.2478E-01
    -12.828  0.1671E-01  0.1671E-01  0.2800E-01  0.2800E-01
    -12.635  0.3873E-02  0.3873E-02  0.2875E-01  0.2875E-01
    -12.442  0.1676E-01  0.1676E-01  0.3198E-01  0.3198E-01
    -12.249  0.1069E-03  0.1069E-03  0.3200E-01  0.3200E-01
    -12.057  0.0000E+00  0.0000E+00  0.3200E-01  0.3200E-01
    -11.864  0.0000E+00  0.0000E+00  0.3200E-01  0.3200E-01
    -11.671  0.0000E+00  0.0000E+00  0.3200E-01  0.3200E-01
    -11.478  0.0000E+00  0.0000E+00  0.3200E-01  0.3200E-01
    -11.285  0.0000E+00  0.0000E+00  0.3200E-01  0.3200E-01
    -11.092  0.0000E+00  0.0000E+00  0.3200E-01  0.3200E-01
    -10.899  0.0000E+00  0.0000E+00  0.3200E-01  0.3200E-01
    -10.706  0.0000E+00  0.0000E+00  0.3200E-01  0.3200E-01
    -10.513  0.0000E+00  0.0000E+00  0.3200E-01  0.3200E-01
    -10.320  0.3735E-04  0.3735E-04  0.3201E-01  0.3201E-01
    -10.128  0.1578E-01  0.1578E-01  0.3505E-01  0.3505E-01
     -9.935  0.2902E-01  0.2902E-01  0.4065E-01  0.4065E-01
     -9.742  0.1732E-01  0.1732E-01  0.4400E-01  0.4400E-01
     -9.549  0.0000E+00  0.0000E+00  0.4400E-01  0.4400E-01
     -9.356  0.0000E+00  0.0000E+00  0.4400E-01  0.4400E-01
     -9.163  0.0000E+00  0.0000E+00  0.4400E-01  0.4400E-01
     -8.970  0.0000E+00  0.0000E+00  0.4400E-01  0.4400E-01
     -8.777  0.0000E+00  0.0000E+00  0.4400E-01  0.4400E-01
     -8.584  0.0000E+00  0.0000E+00  0.4400E-01  0.4400E-01
     -8.391  0.1242E-03  0.1242E-03  0.4402E-01  0.4402E-01
     -8.199  0.2055E-01  0.2055E-01  0.4799E-01  0.4799E-01
     -8.006  0.1711E-04  0.1711E-04  0.4800E-01  0.4800E-01
     -7.813  0.0000E+00  0.0000E+00  0.4800E-01  0.4800E-01
     -7.620  0.0000E+00  0.0000E+00  0.4800E-01  0.4800E-01
     -7.427  0.0000E+00  0.0000E+00  0.4800E-01  0.4800E-01
     -7.234  0.0000E+00  0.0000E+00  0.4800E-01  0.4800E-01
     -7.041  0.0000E+00  0.0000E+00  0.4800E-01  0.4800E-01
     -6.848  0.0000E+00  0.0000E+00  0.4800E-01  0.4800E-01
     -6.655  0.0000E+00  0.0000E+00  0.4800E-01  0.4800E-01
     -6.462  0.0000E+00  0.0000E+00  0.4800E-01  0.4800E-01
     -6.270  0.7194E-19  0.7194E-19  0.4800E-01  0.4800E-01
     -6.077  0.3704E-02  0.3704E-02  0.4871E-01  0.4871E-01
     -5.884  0.1480E-02  0.1480E-02  0.4900E-01  0.4900E-01
     -5.691  0.1363E-02  0.1363E-02  0.4926E-01  0.4926E-01
     -5.498  0.1419E-01  0.1419E-01  0.5200E-01  0.5200E-01
     -5.305  0.0000E+00  0.0000E+00  0.5200E-01  0.5200E-01
     -5.112  0.0000E+00  0.0000E+00  0.5200E-01  0.5200E-01
     -4.919  0.0000E+00  0.0000E+00  0.5200E-01  0.5200E-01
     -4.726  0.0000E+00  0.0000E+00  0.5200E-01  0.5200E-01
     -4.534  0.0000E+00  0.0000E+00  0.5200E-01  0.5200E-01
     -4.341  0.0000E+00  0.0000E+00  0.5200E-01  0.5200E-01
     -4.148  0.0000E+00  0.0000E+00  0.5200E-01  0.5200E-01
     -3.955  0.0000E+00  0.0000E+00  0.5200E-01  0.5200E-01
     -3.762  0.0000E+00  0.0000E+00  0.5200E-01  0.5200E-01
     -3.569  0.0000E+00  0.0000E+00  0.5200E-01  0.5200E-01
     -3.376  0.4504E-16  0.4504E-16  0.5200E-01  0.5200E-01
     -3.183  0.6299E-02  0.6299E-02  0.5322E-01  0.5322E-01
     -2.990  0.9253E-02  0.9253E-02  0.5500E-01  0.5500E-01
     -2.797  0.4331E-02  0.4331E-02  0.5584E-01  0.5584E-01
     -2.605  0.1056E-01  0.1056E-01  0.5787E-01  0.5787E-01
     -2.412  0.1327E-01  0.1327E-01  0.6043E-01  0.6043E-01
     -2.219  0.1847E-01  0.1847E-01  0.6400E-01  0.6400E-01
     -2.026  0.0000E+00  0.0000E+00  0.6400E-01  0.6400E-01
     -1.833  0.0000E+00  0.0000E+00  0.6400E-01  0.6400E-01
     -1.640  0.6436E-06  0.6436E-06  0.6400E-01  0.6400E-01
     -1.447  0.1542E-01  0.1542E-01  0.6698E-01  0.6698E-01
     -1.254  0.1922E-01  0.1922E-01  0.7069E-01  0.7069E-01
     -1.061  0.2226E-01  0.2226E-01  0.7499E-01  0.7499E-01
     -0.868  0.5213E-02  0.5213E-02  0.7600E-01  0.7600E-01
     -0.676  0.8563E-08  0.8563E-08  0.7600E-01  0.7600E-01
     -0.483  0.1019E-01  0.1019E-01  0.7797E-01  0.7797E-01
     -0.290  0.1208E-01  0.1208E-01  0.8030E-01  0.8030E-01
     -0.097  0.1066E-01  0.1066E-01  0.8236E-01  0.8236E-01
      0.096  0.3015E-01  0.3015E-01  0.8817E-01  0.8817E-01
      0.289  0.2375E-01  0.2375E-01  0.9276E-01  0.9276E-01
      0.482  0.1679E-01  0.1679E-01  0.9600E-01  0.9600E-01
      0.675  0.3827E-03  0.3827E-03  0.9607E-01  0.9607E-01
      0.868  0.1280E-01  0.1280E-01  0.9854E-01  0.9854E-01
      1.061  0.2306E-01  0.2306E-01  0.1030E+00  0.1030E+00
      1.253  0.2319E-01  0.2319E-01  0.1075E+00  0.1075E+00
      1.446  0.2506E-01  0.2506E-01  0.1123E+00  0.1123E+00
      1.639  0.2708E-01  0.2708E-01  0.1175E+00  0.1175E+00
      1.832  0.1205E-01  0.1205E-01  0.1199E+00  0.1199E+00
      2.025  0.7205E-03  0.7205E-03  0.1200E+00  0.1200E+00
      2.218  0.0000E+00  0.0000E+00  0.1200E+00  0.1200E+00
      2.411  0.0000E+00  0.0000E+00  0.1200E+00  0.1200E+00
      2.604  0.0000E+00  0.0000E+00  0.1200E+00  0.1200E+00
      2.797  0.0000E+00  0.0000E+00  0.1200E+00  0.1200E+00
      2.989  0.0000E+00  0.0000E+00  0.1200E+00  0.1200E+00
      3.182  0.0000E+00  0.0000E+00  0.1200E+00  0.1200E+00
      3.375  0.0000E+00  0.0000E+00  0.1200E+00  0.1200E+00
      3.568  0.0000E+00  0.0000E+00  0.1200E+00  0.1200E+00
      3.761  0.0000E+00  0.0000E+00  0.1200E+00  0.1200E+00
      3.954  0.0000E+00  0.0000E+00  0.1200E+00  0.1200E+00
      4.147  0.0000E+00  0.0000E+00  0.1200E+00  0.1200E+00
      4.340  0.7441E-08  0.7441E-08  0.1200E+00  0.1200E+00
      4.533  0.5171E-02  0.5171E-02  0.1210E+00  0.1210E+00
      4.726  0.0000E+00  0.0000E+00  0.1210E+00  0.1210E+00
      4.918  0.0000E+00  0.0000E+00  0.1210E+00  0.1210E+00
      5.111  0.2395E-12  0.2395E-12  0.1210E+00  0.1210E+00
      5.304  0.5760E-02  0.5760E-02  0.1221E+00  0.1221E+00
      5.497  0.9789E-02  0.9789E-02  0.1240E+00  0.1240E+00
      5.690  0.0000E+00  0.0000E+00  0.1240E+00  0.1240E+00
      5.883  0.3287E-03  0.3287E-03  0.1241E+00  0.1241E+00
      6.076  0.1301E-01  0.1301E-01  0.1266E+00  0.1266E+00
      6.269  0.1652E-01  0.1652E-01  0.1298E+00  0.1298E+00
      6.462  0.1803E-02  0.1803E-02  0.1301E+00  0.1301E+00
      6.655  0.1340E-01  0.1340E-01  0.1327E+00  0.1327E+00
      6.847  0.8954E-02  0.8954E-02  0.1344E+00  0.1344E+00
      7.040  0.8535E-02  0.8535E-02  0.1361E+00  0.1361E+00
      7.233  0.4810E-02  0.4810E-02  0.1370E+00  0.1370E+00
      7.426  0.4749E-02  0.4749E-02  0.1379E+00  0.1379E+00
      7.619  0.9050E-02  0.9050E-02  0.1397E+00  0.1397E+00
      7.812  0.1254E-01  0.1254E-01  0.1421E+00  0.1421E+00
      8.005  0.1304E-01  0.1304E-01  0.1446E+00  0.1446E+00
      8.198  0.1331E-01  0.1331E-01  0.1472E+00  0.1472E+00
      8.391  0.1474E-01  0.1474E-01  0.1500E+00  0.1500E+00
      8.584  0.1366E-01  0.1366E-01  0.1526E+00  0.1526E+00
      8.776  0.1655E-01  0.1655E-01  0.1558E+00  0.1558E+00
      8.969  0.1591E-01  0.1591E-01  0.1589E+00  0.1589E+00
      9.162  0.1913E-01  0.1913E-01  0.1626E+00  0.1626E+00
      9.355  0.1839E-01  0.1840E-01  0.1662E+00  0.1662E+00
      9.548  0.1800E-01  0.1802E-01  0.1696E+00  0.1696E+00
      9.741  0.1607E-01  0.1592E-01  0.1727E+00  0.1727E+00
      9.934  0.1518E-01  0.1510E-01  0.1757E+00  0.1756E+00
     10.127  0.1712E-02  0.1928E-02  0.1760E+00  0.1760E+00
     10.320  0.0000E+00  0.0000E+00  0.1760E+00  0.1760E+00
     10.512  0.0000E+00  0.0000E+00  0.1760E+00  0.1760E+00
     10.705  0.0000E+00  0.0000E+00  0.1760E+00  0.1760E+00
     10.898  0.0000E+00  0.0000E+00  0.1760E+00  0.1760E+00
     11.091  0.0000E+00  0.0000E+00  0.1760E+00  0.1760E+00
     11.284  0.0000E+00  0.0000E+00  0.1760E+00  0.1760E+00
     11.477  0.0000E+00  0.0000E+00  0.1760E+00  0.1760E+00
     11.670  0.0000E+00  0.0000E+00  0.1760E+00  0.1760E+00
     11.863  0.0000E+00  0.0000E+00  0.1760E+00  0.1760E+00
     12.056  0.0000E+00  0.0000E+00  0.1760E+00  0.1760E+00
     12.249  0.0000E+00  0.0000E+00  0.1760E+00  0.1760E+00
     12.441  0.0000E+00  0.0000E+00  0.1760E+00  0.1760E+00
     12.634  0.0000E+00  0.0000E+00  0.1760E+00  0.1760E+00
