       N       E                     dE             d eps       ncg     rms          rms(c)
DAV:   1     0.158672243501E+04    0.15867E+04   -0.11384E+05  3096   0.126E+03
DAV:   2    -0.557287218915E+02   -0.16425E+04   -0.15432E+04  3840   0.361E+02
DAV:   3    -0.228061108324E+03   -0.17233E+03   -0.17029E+03  3744   0.117E+02
DAV:   4    -0.241549058184E+03   -0.13488E+02   -0.13465E+02  4752   0.334E+01
DAV:   5    -0.241769716678E+03   -0.22066E+00   -0.22056E+00  4456   0.452E+00
DAV:   6    -0.241780734575E+03   -0.11018E-01   -0.11017E-01  4648   0.111E+00
DAV:   7    -0.241781101571E+03   -0.36700E-03   -0.36697E-03  4552   0.211E-01
DAV:   8    -0.241781122946E+03   -0.21375E-04   -0.21374E-04  4600   0.606E-02
DAV:   9    -0.241781124313E+03   -0.13675E-05   -0.13671E-05  4432   0.134E-02
DAV:  10    -0.241781124373E+03   -0.59652E-07   -0.60488E-07  2656   0.427E-03    0.641E+01
RMM:  11    -0.236088400903E+03    0.56927E+01   -0.46855E+01  2816   0.193E+01    0.330E+01
RMM:  12    -0.255970818454E+03   -0.19882E+02   -0.21413E+01  2948   0.135E+01    0.203E+01
RMM:  13    -0.258452581360E+03   -0.24818E+01   -0.88243E+00  2897   0.538E+00    0.676E+00
RMM:  14    -0.258647537496E+03   -0.19496E+00   -0.19456E+00  3737   0.339E+00    0.321E+00
RMM:  15    -0.258623172577E+03    0.24365E-01   -0.33362E-01  3074   0.164E+00    0.676E-01
RMM:  16    -0.258642871644E+03   -0.19699E-01   -0.10009E-01  3068   0.871E-01    0.308E-01
RMM:  17    -0.258648719231E+03   -0.58476E-02   -0.24824E-02  3446   0.450E-01    0.171E-01
RMM:  18    -0.258649940266E+03   -0.12210E-02   -0.67255E-03  3340   0.210E-01    0.880E-02
RMM:  19    -0.258650390099E+03   -0.44983E-03   -0.20149E-03  3956   0.113E-01    0.423E-02
RMM:  20    -0.258650475914E+03   -0.85815E-04   -0.48316E-04  3834   0.478E-02    0.257E-02
RMM:  21    -0.258650491668E+03   -0.15754E-04   -0.14200E-04  3370   0.272E-02    0.100E-02
RMM:  22    -0.258650497991E+03   -0.63236E-05   -0.51219E-05  3802   0.155E-02    0.636E-03
RMM:  23    -0.258650497671E+03    0.32043E-06   -0.13797E-05  2951   0.820E-03    0.291E-03
RMM:  24    -0.258650496872E+03    0.79888E-06   -0.51209E-06  2221   0.621E-03
   1 F= -.27223960E+03 E0= -.27223960E+03  d E =-.272240E+03  mag=    -0.0004
       N       E                     dE             d eps       ncg     rms          rms(c)
DAV:   1    -0.258650499395E+03   -0.17238E-05   -0.33702E-05  3256   0.122E-02    0.175E-03
RMM:   2    -0.258650499724E+03   -0.32981E-06   -0.16489E-06  1891   0.467E-03
   2 F= -.27223960E+03 E0= -.27223960E+03  d E =-.129099E-05  mag=    -0.0001
       N       E                     dE             d eps       ncg     rms          rms(c)
DAV:   1    -0.258650500671E+03   -0.12764E-05   -0.74347E-06  2920   0.625E-03    0.723E-04
RMM:   2    -0.258650500746E+03   -0.75288E-07   -0.59805E-07  1839   0.318E-03
   3 F= -.27223960E+03 E0= -.27223960E+03  d E =-.162094E-05  mag=    -0.0000
       N       E                     dE             d eps       ncg     rms          rms(c)
DAV:   1    -0.258650502279E+03   -0.16082E-05   -0.25128E-05  3336   0.101E-02    0.897E-04
RMM:   2    -0.258650502440E+03   -0.16121E-06   -0.11696E-06  1786   0.423E-03
   4 F= -.27223961E+03 E0= -.27223961E+03  d E =-.193913E-05  mag=    -0.0000
       N       E                     dE             d eps       ncg     rms          rms(c)
DAV:   1    -0.258650503322E+03   -0.10429E-05   -0.56904E-05  3272   0.135E-02    0.956E-04
RMM:   2    -0.258650503505E+03   -0.18316E-06   -0.17990E-06  1779   0.512E-03
   5 F= -.27223961E+03 E0= -.27223961E+03  d E =-.681986E-06  mag=    -0.0000
       N       E                     dE             d eps       ncg     rms          rms(c)
DAV:   1    -0.258650504323E+03   -0.10011E-05   -0.58933E-05  3320   0.139E-02    0.880E-04
RMM:   2    -0.258650504519E+03   -0.19619E-06   -0.18848E-06  1791   0.522E-03
   6 F= -.27223961E+03 E0= -.27223961E+03  d E =-.131683E-05  mag=    -0.0000
