 vasp.6.4.1 05Apr23 (build Jun 07 2023 15:38:11) complex                        
  
 executed on             LinuxIFC date 2023.10.23  15:06:32
 running  128 mpi-ranks, with    1 threads/rank, on    1 nodes
 distrk:  each k-point on  128 cores,    1 groups
 distr:  one band on NCORE=  32 cores,    4 groups


--------------------------------------------------------------------------------------------------------


 INCAR:
   GGA = PE
   PREC = Accu
   EDIFF = 1.e-6
   EDIFFG = -1.e-3
   ENCUT = 520.
   NELM = 100
   NELMDL = -10
   LASPH = .TRUE.
   LREAL = Auto
   LMAXMIX = 4
   ISPIN = 2
   LDIAG = .TRUE.
   LPLANE = .TRUE.
   IVDW = 12
   SIGMA = 0.03
   ISMEAR = 0
   NSW = 1000    number of steps for IOM
   IBRION = 2    ionic relax: 0-MD 1-quasi-New 2-CG
   ISIF = 2    ionic relaxation + stress tensor calcn.
   LCHARG = .FALSE.
   LWAVE = .FALSE.
   ALGO = F
   KPAR = 1
   NPAR = 4
   POTIM = 0.2

 POTCAR:    PAW_PBE Li_sv_GW 25Mar2010            
 POTCAR:    PAW_PBE P_GW 19Mar2012                
 POTCAR:    PAW_PBE S_GW 19Mar2012                
 POTCAR:    PAW_PBE Cl_GW 19Mar2012               
 -----------------------------------------------------------------------------
|                                                                             |
|           W    W    AA    RRRRR   N    N  II  N    N   GGGG   !!!           |
|           W    W   A  A   R    R  NN   N  II  NN   N  G    G  !!!           |
|           W    W  A    A  R    R  N N  N  II  N N  N  G       !!!           |
|           W WW W  AAAAAA  RRRRR   N  N N  II  N  N N  G  GGG   !            |
|           WW  WW  A    A  R   R   N   NN  II  N   NN  G    G                |
|           W    W  A    A  R    R  N    N  II  N    N   GGGG   !!!           |
|                                                                             |
|     You use a magnetic or noncollinear calculation, but did not specify     |
|     the initial magnetic moment with the MAGMOM tag. Note that a            |
|     default of 1 will be used for all atoms. This ferromagnetic setup       |
|     may break the symmetry of the crystal, in particular it may rule        |
|     out finding an antiferromagnetic solution. Thence, we recommend         |
|     setting the initial magnetic moment manually or verifying carefully     |
|     that this magnetic setup is desired.                                    |
|                                                                             |
 -----------------------------------------------------------------------------

 POTCAR:    PAW_PBE Li_sv_GW 25Mar2010            
   SHA256 =  24a6ace15a582615486b36ce4dc781b048409f4015b7684ed1273ae395fa2fdc Li_sv_GW/POTCAR       
   COPYR  = (c) Copyright 25Mar2010 Georg Kresse                                                    
   COPYR  = This file is part of the software VASP. Any use, copying, and all other rights are regul
   COPYR  = If you do not have a valid VASP license, you may not use, copy or distribute this file. 
   VRHFIN =Li: 1s2s                                                                                 
   LEXCH  = PE                                                                                      
   EATOM  =   200.9989 eV,   14.7730 Ry                                                             
                                                                                                    
   TITEL  = PAW_PBE Li_sv_GW 25Mar2010                                                              
   LULTRA =        F    use ultrasoft PP ?                                                          
   IUNSCR =        0    unscreen: 0-lin 1-nonlin 2-no                                               
   RPACOR =    0.000    partial core radius                                                         
   POMASS =    7.010; ZVAL   =    3.000    mass and valenz                                          
   RCORE  =    1.500    outmost cutoff radius                                                       
   RWIGS  =    1.600; RWIGS  =    0.847    wigner-seitz radius (au A)                               
   ENMAX  =  433.699; ENMIN  =  325.274 eV                                                          
   RCLOC  =    1.003    cutoff for local pot                                                        
   LCOR   =        T    correct aug charges                                                         
   LPAW   =        T    paw PP                                                                      
   EAUG   = 1041.699                                                                                
   RMAX   =    1.536    core radius for proj-oper                                                   
   RAUG   =    1.300    factor for augmentation sphere                                              
   RDEP   =    1.520    radius for radial grids                                                     
   RDEPT  =    1.300    core radius for aug-charge                                                  
                                                                                                    
   Atomic configuration                                                                             
    4 entries                                                                                       
     n  l   j            E        occ.                                                              
     1  0  0.50       -53.3604   2.0000                                                             
     1  0  0.50       -52.0001   0.0000                                                             
     2  1  0.50        -1.5636   1.0000                                                             
     3  2  1.50        -1.3606   0.0000                                                             
   Description                                                                                      
     l       E           TYP  RCUT    TYP  RCUT                                                     
     0    -53.3603633     23  1.200                                                                 
     0    -52.0001064     23  1.200                                                                 
     0    176.8757380     23  1.300                                                                 
     1     -1.5635925     23  1.500                                                                 
     1    108.8466080     23  1.500                                                                 
     2     81.6349560     23  1.500                                                                 
  local pseudopotential read in
  kinetic energy density of atom read in
  atomic valenz-charges read in
  non local Contribution for L=           0  read in
    real space projection operators read in
  non local Contribution for L=           0  read in
    real space projection operators read in
  non local Contribution for L=           0  read in
    real space projection operators read in
  non local Contribution for L=           1  read in
    real space projection operators read in
  non local Contribution for L=           1  read in
    real space projection operators read in
  non local Contribution for L=           2  read in
    real space projection operators read in
    PAW grid and wavefunctions read in
 
   number of l-projection  operators is LMAX  =           6
   number of lm-projection operators is LMMAX =          14
 
 POTCAR:    PAW_PBE P_GW 19Mar2012                
   SHA256 =  715c28f2291d37b61637ce89646c59f66f71c8b8d8bfba631e5feb9f7b42defe P_GW/POTCAR           
   COPYR  = (c) Copyright 19Mar2012 Georg Kresse                                                    
   COPYR  = This file is part of the software VASP. Any use, copying, and all other rights are regul
   COPYR  = If you do not have a valid VASP license, you may not use, copy or distribute this file. 
   VRHFIN =P : s2p3                                                                                 
   LEXCH  = PE                                                                                      
   EATOM  =   176.0430 eV,   12.9388 Ry                                                             
                                                                                                    
   TITEL  = PAW_PBE P_GW 19Mar2012                                                                  
   LULTRA =        F    use ultrasoft PP ?                                                          
   IUNSCR =        1    unscreen: 0-lin 1-nonlin 2-no                                               
   RPACOR =    1.400    partial core radius                                                         
   POMASS =   30.974; ZVAL   =    5.000    mass and valenz                                          
   RCORE  =    2.000    outmost cutoff radius                                                       
   RWIGS  =    1.900; RWIGS  =    1.005    wigner-seitz radius (au A)                               
   ENMAX  =  255.040; ENMIN  =  191.280 eV                                                          
   ICORE  =        3    local potential                                                             
   LCOR   =        T    correct aug charges                                                         
   LPAW   =        T    paw PP                                                                      
   EAUG   =  499.732                                                                                
   DEXC   =    0.000                                                                                
   RMAX   =    2.047    core radius for proj-oper                                                   
   RAUG   =    1.300    factor for augmentation sphere                                              
   RDEP   =    2.059    radius for radial grids                                                     
   RDEPT  =    1.900    core radius for aug-charge                                                  
                                                                                                    
   Atomic configuration                                                                             
    7 entries                                                                                       
     n  l   j            E        occ.                                                              
     1  0  0.50     -2084.0982   2.0000                                                             
     2  0  0.50      -173.9859   2.0000                                                             
     2  1  1.50      -124.4865   6.0000                                                             
     3  0  0.50       -13.9692   2.0000                                                             
     3  1  0.50        -5.5067   3.0000                                                             
     3  2  1.50        -6.8029   0.0000                                                             
     4  3  2.50        -1.3606   0.0000                                                             
   Description                                                                                      
     l       E           TYP  RCUT    TYP  RCUT                                                     
     0    -13.9691528     23  1.900                                                                 
     0    102.0436950     23  1.900                                                                 
     1     -5.5066939     23  1.900                                                                 
     1    102.0436950     23  1.900                                                                 
     2     -8.1634956     23  2.000                                                                 
     2     81.6349560     23  2.000                                                                 
     3     27.2116520     23  2.000                                                                 
  local pseudopotential read in
  partial core-charges read in
  partial kinetic energy density read in
  kinetic energy density of atom read in
  atomic valenz-charges read in
  non local Contribution for L=           0  read in
    real space projection operators read in
  non local Contribution for L=           0  read in
    real space projection operators read in
  non local Contribution for L=           1  read in
    real space projection operators read in
  non local Contribution for L=           1  read in
    real space projection operators read in
  non local Contribution for L=           2  read in
    real space projection operators read in
  non local Contribution for L=           2  read in
    real space projection operators read in
    PAW grid and wavefunctions read in
 
   number of l-projection  operators is LMAX  =           6
   number of lm-projection operators is LMMAX =          18
 
 POTCAR:    PAW_PBE S_GW 19Mar2012                
   SHA256 =  357db9cfb0783579b2eebe03197c2d807131fea8ea663b1fcfb6ce2fa75af011 S_GW/POTCAR           
   COPYR  = (c) Copyright 19Mar2012 Georg Kresse                                                    
   COPYR  = This file is part of the software VASP. Any use, copying, and all other rights are regul
   COPYR  = If you do not have a valid VASP license, you may not use, copy or distribute this file. 
   VRHFIN =S : s2p4                                                                                 
   LEXCH  = PE                                                                                      
   EATOM  =   276.8230 eV,   20.3459 Ry                                                             
                                                                                                    
   TITEL  = PAW_PBE S_GW 19Mar2012                                                                  
   LULTRA =        F    use ultrasoft PP ?                                                          
   IUNSCR =        1    unscreen: 0-lin 1-nonlin 2-no                                               
   RPACOR =    1.400    partial core radius                                                         
   POMASS =   32.066; ZVAL   =    6.000    mass and valenz                                          
   RCORE  =    1.900    outmost cutoff radius                                                       
   RWIGS  =    1.900; RWIGS  =    1.005    wigner-seitz radius (au A)                               
   ENMAX  =  258.689; ENMIN  =  194.016 eV                                                          
   ICORE  =        3    local potential                                                             
   LCOR   =        T    correct aug charges                                                         
   LPAW   =        T    paw PP                                                                      
   EAUG   =  488.319                                                                                
   DEXC   =    0.000                                                                                
   RMAX   =    1.942    core radius for proj-oper                                                   
   RAUG   =    1.300    factor for augmentation sphere                                              
   RDEP   =    1.954    radius for radial grids                                                     
   RDEPT  =    1.900    core radius for aug-charge                                                  
                                                                                                    
   Atomic configuration                                                                             
    7 entries                                                                                       
     n  l   j            E        occ.                                                              
     1  0  0.50     -2405.8406   2.0000                                                             
     2  0  0.50      -211.7007   2.0000                                                             
     2  1  1.50      -156.4958   6.0000                                                             
     3  0  0.50       -17.2562   2.0000                                                             
     3  1  0.50        -7.0085   4.0000                                                             
     3  2  1.50        -8.1635   0.0000                                                             
     4  3  2.50        -1.3606   0.0000                                                             
   Description                                                                                      
     l       E           TYP  RCUT    TYP  RCUT                                                     
     0    -17.2561639     23  1.700                                                                 
     0     88.4378690     23  1.900                                                                 
     1     -7.0085399     23  1.900                                                                 
     1     88.4378690     23  1.900                                                                 
     2    -10.8846608     23  1.900                                                                 
     2     54.4233040     23  1.900                                                                 
     3     27.2116520     23  1.800                                                                 
  local pseudopotential read in
  partial core-charges read in
  partial kinetic energy density read in
  kinetic energy density of atom read in
  atomic valenz-charges read in
  non local Contribution for L=           0  read in
    real space projection operators read in
  non local Contribution for L=           0  read in
    real space projection operators read in
  non local Contribution for L=           1  read in
    real space projection operators read in
  non local Contribution for L=           1  read in
    real space projection operators read in
  non local Contribution for L=           2  read in
    real space projection operators read in
  non local Contribution for L=           2  read in
    real space projection operators read in
    PAW grid and wavefunctions read in
 
   number of l-projection  operators is LMAX  =           6
   number of lm-projection operators is LMMAX =          18
 
 POTCAR:    PAW_PBE Cl_GW 19Mar2012               
   SHA256 =  3ef3b3169d6a9a89979f58b4cf17d927a58518fc660d8883d88cacaee8175441 Cl_GW/POTCAR          
   COPYR  = (c) Copyright 19Mar2012 Georg Kresse                                                    
   COPYR  = This file is part of the software VASP. Any use, copying, and all other rights are regul
   COPYR  = If you do not have a valid VASP license, you may not use, copy or distribute this file. 
   VRHFIN =Cl: s2p5                                                                                 
   LEXCH  = PE                                                                                      
   EATOM  =   409.7259 eV,   30.1140 Ry                                                             
                                                                                                    
   TITEL  = PAW_PBE Cl_GW 19Mar2012                                                                 
   LULTRA =        F    use ultrasoft PP ?                                                          
   IUNSCR =        1    unscreen: 0-lin 1-nonlin 2-no                                               
   RPACOR =    1.400    partial core radius                                                         
   POMASS =   35.453; ZVAL   =    7.000    mass and valenz                                          
   RCORE  =    1.900    outmost cutoff radius                                                       
   RWIGS  =    1.900; RWIGS  =    1.005    wigner-seitz radius (au A)                               
   ENMAX  =  262.472; ENMIN  =  196.854 eV                                                          
   ICORE  =        3    local potential                                                             
   LCOR   =        T    correct aug charges                                                         
   LPAW   =        T    paw PP                                                                      
   EAUG   =  456.703                                                                                
   DEXC   =    0.000                                                                                
   RMAX   =    1.945    core radius for proj-oper                                                   
   RAUG   =    1.300    factor for augmentation sphere                                              
   RDEP   =    2.020    radius for radial grids                                                     
   RDEPT  =    1.900    core radius for aug-charge                                                  
                                                                                                    
   Atomic configuration                                                                             
    7 entries                                                                                       
     n  l   j            E        occ.                                                              
     1  0  0.50     -2751.1850   2.0000                                                             
     2  0  0.50      -252.6861   2.0000                                                             
     2  1  1.50      -191.6157   6.0000                                                             
     3  0  0.50       -20.6916   2.0000                                                             
     3  1  0.50        -8.5949   5.0000                                                             
     3  2  1.50        -9.5241   0.0000                                                             
     4  3  2.50        -9.5241   0.0000                                                             
   Description                                                                                      
     l       E           TYP  RCUT    TYP  RCUT                                                     
     0    -20.6915657     23  1.700                                                                 
     0     95.2407820     23  1.800                                                                 
     1     -8.5948577     23  1.900                                                                 
     1     95.2407820     23  1.900                                                                 
     2    -10.8846608     23  1.900                                                                 
     2     54.4233040     23  1.900                                                                 
     3     27.2116520     23  1.900                                                                 
  local pseudopotential read in
  partial core-charges read in
  partial kinetic energy density read in
  kinetic energy density of atom read in
  atomic valenz-charges read in
  non local Contribution for L=           0  read in
    real space projection operators read in
  non local Contribution for L=           0  read in
    real space projection operators read in
  non local Contribution for L=           1  read in
    real space projection operators read in
  non local Contribution for L=           1  read in
    real space projection operators read in
  non local Contribution for L=           2  read in
    real space projection operators read in
  non local Contribution for L=           2  read in
    real space projection operators read in
    PAW grid and wavefunctions read in
 
   number of l-projection  operators is LMAX  =           6
   number of lm-projection operators is LMMAX =          18
 
 Optimization of the real space projectors (new method)

 maximal supplied QI-value         = 25.13
 optimisation between [QCUT,QGAM] = [ 11.56, 23.12] = [ 37.43,149.72] Ry 
 Optimized for a Real-space Cutoff    1.28 Angstroem

   l    n(q)    QCUT    max X(q) W(low)/X(q) W(high)/X(q)  e(spline) 
   0      9    11.561    87.733    0.11E-03    0.32E-04    0.56E-06
   0      9    11.561    82.800    0.11E-03    0.35E-04    0.56E-06
   0      9    11.561     2.509    0.22E-03    0.42E-04    0.79E-06
   1      8    11.561    12.580    0.94E-04    0.26E-03    0.21E-06
   1      8    11.561     1.319    0.33E-04    0.15E-03    0.19E-06
   2      8    11.561     1.993    0.36E-04    0.89E-04    0.26E-06
 Optimization of the real space projectors (new method)

 maximal supplied QI-value         = 18.90
 optimisation between [QCUT,QGAM] = [ 11.53, 23.24] = [ 37.21,151.29] Ry 
 Optimized for a Real-space Cutoff    1.21 Angstroem

   l    n(q)    QCUT    max X(q) W(low)/X(q) W(high)/X(q)  e(spline) 
   0      8    11.527     8.355    0.73E-04    0.70E-04    0.26E-07
   0      8    11.527     1.401    0.17E-03    0.17E-03    0.63E-07
   1      8    11.527     4.747    0.13E-03    0.17E-03    0.11E-06
   1      8    11.527     2.025    0.16E-03    0.18E-03    0.12E-06
   2      7    11.527     3.169    0.51E-04    0.25E-03    0.60E-07
   2      7    11.527     3.441    0.82E-04    0.22E-03    0.14E-06
 Optimization of the real space projectors (new method)

 maximal supplied QI-value         = 19.84
 optimisation between [QCUT,QGAM] = [ 11.51, 23.22] = [ 37.09,150.92] Ry 
 Optimized for a Real-space Cutoff    1.49 Angstroem

   l    n(q)    QCUT    max X(q) W(low)/X(q) W(high)/X(q)  e(spline) 
   0     10    11.508     7.541    0.34E-04    0.13E-04    0.69E-07
   0     10    11.508     1.809    0.49E-04    0.27E-04    0.14E-06
   1     10    11.508     4.107    0.27E-05    0.41E-05    0.14E-06
   1     10    11.508     2.196    0.26E-05    0.25E-05    0.22E-06
   2      9    11.508     4.265    0.18E-03    0.11E-03    0.81E-06
   2      9    11.508     1.925    0.97E-04    0.76E-04    0.47E-06
 Optimization of the real space projectors (new method)

 maximal supplied QI-value         = 19.84
 optimisation between [QCUT,QGAM] = [ 11.51, 23.22] = [ 37.09,150.92] Ry 
 Optimized for a Real-space Cutoff    1.21 Angstroem

   l    n(q)    QCUT    max X(q) W(low)/X(q) W(high)/X(q)  e(spline) 
   0      8    11.508     6.761    0.57E-04    0.57E-04    0.35E-07
   0      8    11.508     1.642    0.14E-03    0.14E-03    0.91E-07
   1      8    11.508     3.519    0.20E-04    0.72E-04    0.47E-07
   1      8    11.508     2.150    0.27E-04    0.11E-03    0.89E-07
   2      7    11.508     2.976    0.19E-03    0.33E-03    0.16E-06
   2      7    11.508     1.494    0.14E-03    0.29E-03    0.14E-06
  PAW_PBE Li_sv_GW 25Mar2010            :
 energy of atom  1       EATOM= -200.9989
 kinetic energy error for atom=    0.0127 (will be added to EATOM!!)
  PAW_PBE P_GW 19Mar2012                :
 energy of atom  2       EATOM= -176.0430
 kinetic energy error for atom=    0.0011 (will be added to EATOM!!)
  PAW_PBE S_GW 19Mar2012                :
 energy of atom  3       EATOM= -276.8230
 kinetic energy error for atom=    0.0024 (will be added to EATOM!!)
  PAW_PBE Cl_GW 19Mar2012               :
 energy of atom  4       EATOM= -409.7259
 kinetic energy error for atom=    0.0030 (will be added to EATOM!!)
 
 
 POSCAR: Li24 P4 S20 Cl4
  positions in direct lattice
  velocities in cartesian coordinates
 exchange correlation table for  LEXCH =        8
   RHO(1)=    0.500       N(1)  =     2000
   RHO(2)=  100.500       N(2)  =     4000

 VTST: version 4.1, (05/19/21)

 CHAIN: initializing optimizer
 
 OPT: Using VASP Conjugate-Gradient optimizer
 CHAIN: Read ICHAIN            0
 
 POSCAR: Li24 P4 S20 Cl4
  positions in direct lattice
  velocities in cartesian coordinates
 


--------------------------------------------------------------------------------------------------------


 ion  position               nearest neighbor table
   1  0.958  0.317  0.331-
   2  0.994  0.701  0.696-
   3  0.029  0.276  0.684-
   4  0.073  0.788  0.079-
   5  0.182  0.190  0.974-
   6  0.345  0.649  0.048-
   7  0.796  0.215  0.020-
   8  0.695  0.678  0.967-
   9  0.200  0.989  0.225-
  10  0.322  0.026  0.730-
  11  0.832  0.962  0.826-
  12  0.825  0.021  0.215-
  13  0.275  0.800  0.482-
  14  0.330  0.215  0.526-
  15  0.728  0.822  0.524-
  16  0.666  0.171  0.467-
  17  0.214  0.479  0.701-
  18  0.169  0.548  0.322-
  19  0.714  0.482  0.210-
  20  0.790  0.516  0.670-
  21  0.478  0.326  0.833-
  22  0.486  0.812  0.299-
  23  0.515  0.304  0.189-
  24  0.536  0.804  0.718-
  25  0.500  0.507  0.499-  44 2.05  41 2.05  43 2.05  42 2.06
  26  0.507  0.993  0.007-  38 2.05  40 2.05  37 2.05  39 2.06
  27  0.005  0.496  0.002-  36 2.05  34 2.05  33 2.05  35 2.07
  28  0.005  0.001  0.509-  31 2.03  32 2.06  29 2.06  30 2.06
  29  0.127  0.898  0.650-  28 2.06
  30  0.124  0.141  0.400-  28 2.06
  31  0.917  0.862  0.378-  28 2.03
  32  0.858  0.109  0.620-  28 2.06
  33  0.888  0.626  0.123-  27 2.05
  34  0.887  0.380  0.869-  27 2.05
  35  0.137  0.622  0.891-  27 2.07
  36  0.117  0.375  0.134-  27 2.05
  37  0.621  0.112  0.872-  26 2.05
  38  0.641  0.877  0.123-  26 2.05
  39  0.379  0.118  0.123-  26 2.06
  40  0.383  0.859  0.898-  26 2.05
  41  0.636  0.628  0.390-  25 2.05
  42  0.606  0.364  0.617-  25 2.06
  43  0.385  0.631  0.627-  25 2.05
  44  0.371  0.400  0.369-  25 2.05
  45  0.764  0.743  0.747-
  46  0.743  0.247  0.252-
  47  0.257  0.759  0.247-
  48  0.259  0.253  0.755-
  49  0.995  0.018  0.022-
  50  0.015  0.493  0.533-
  51  0.492  0.977  0.515-
  52  0.532  0.491  0.019-
 
  LATTYP: Found a simple cubic cell.
 ALAT       =     9.6575578268
  
  Lattice vectors:
  
 A1 = (   9.6575578268,   0.0000000000,   0.0000000000)
 A2 = (   0.0000000000,   9.6575578268,   0.0000000000)
 A3 = (   0.0000000000,   0.0000000000,   9.6575578268)


Analysis of symmetry for initial positions (statically):
=====================================================================
 Subroutine PRICEL returns:
 Original cell was already a primitive cell.
 

 Routine SETGRP: Setting up the symmetry group for a 
 simple cubic supercell.


 Subroutine GETGRP returns: Found  1 space group operations
 (whereof  1 operations were pure point group operations)
 out of a pool of 48 trial point group operations.


The static configuration has the point symmetry C_1 .


Analysis of symmetry for dynamics (positions and initial velocities):
=====================================================================
 Subroutine PRICEL returns:
 Original cell was already a primitive cell.
 

 Routine SETGRP: Setting up the symmetry group for a 
 simple cubic supercell.


 Subroutine GETGRP returns: Found  1 space group operations
 (whereof  1 operations were pure point group operations)
 out of a pool of 48 trial point group operations.


The dynamic configuration has the point symmetry C_1 .


Analysis of structural, dynamic, and magnetic symmetry:
=====================================================================
 Subroutine PRICEL returns:
 Original cell was already a primitive cell.
 

 Routine SETGRP: Setting up the symmetry group for a 
 simple cubic supercell.


 Subroutine GETGRP returns: Found  1 space group operations
 (whereof  1 operations were pure point group operations)
 out of a pool of 48 trial point group operations.


The overall configuration has the point symmetry C_1 .


 Subroutine INISYM returns: Found  1 space group operations
 (whereof  1 operations are pure point group operations),
 and found     1 'primitive' translations


----------------------------------------------------------------------------------------

                                     Primitive cell                                     

  volume of cell :     900.7452

  direct lattice vectors                    reciprocal lattice vectors
     9.657557827  0.000000000  0.000000000     0.103545846  0.000000000  0.000000000
     0.000000000  9.657557827  0.000000000     0.000000000  0.103545846  0.000000000
     0.000000000  0.000000000  9.657557827     0.000000000  0.000000000  0.103545846

  length of vectors
     9.657557827  9.657557827  9.657557827     0.103545846  0.103545846  0.103545846

  position of ions in fractional coordinates (direct lattice)
     0.958351885  0.316861000  0.331037063
     0.994308317  0.701413901  0.696156316
     0.028586707  0.275732997  0.683862753
     0.073167096  0.787555442  0.079104269
     0.181777637  0.190065231  0.974191975
     0.344726634  0.648796606  0.047631681
     0.795902325  0.215109397  0.020253914
     0.694830716  0.678272633  0.967478016
     0.199590203  0.988520942  0.224895892
     0.321956877  0.026146562  0.730399316
     0.831985856  0.961663824  0.825711269
     0.824702836  0.020528215  0.214744996
     0.274913360  0.800223355  0.482005905
     0.329629860  0.215287657  0.525674246
     0.727510060  0.822424140  0.523887119
     0.666062232  0.171086609  0.467353900
     0.213561693  0.479440755  0.701193136
     0.168640767  0.548175200  0.321654765
     0.714266429  0.481857891  0.209614097
     0.789861744  0.515681781  0.669812635
     0.478204094  0.325629683  0.833453421
     0.486326622  0.811950771  0.299226700
     0.514618192  0.303523954  0.189076274
     0.536044845  0.803564558  0.718186148
     0.500229859  0.506667420  0.498753289
     0.507235348  0.993416034  0.006885264
     0.004553248  0.495982958  0.002150347
     0.004895767  0.001171048  0.509173915
     0.127356683  0.897839494  0.649839449
     0.124007148  0.140657689  0.400181936
     0.917430530  0.861989753  0.377868351
     0.858012495  0.108713848  0.619670961
     0.887844155  0.626377497  0.122524496
     0.886884389  0.380455065  0.868582798
     0.137061868  0.622381081  0.891084710
     0.116961302  0.374524108  0.134474445
     0.620972275  0.112017461  0.871915423
     0.641069096  0.876810803  0.123466355
     0.379198948  0.118039045  0.122722387
     0.382859484  0.859388248  0.898405625
     0.635869290  0.628469680  0.389903080
     0.606177169  0.364054123  0.616503053
     0.385009997  0.631098256  0.626755944
     0.370835744  0.400138256  0.368655289
     0.764259149  0.743319639  0.747369637
     0.742723681  0.246713348  0.251510084
     0.256918728  0.758854128  0.246944401
     0.258747480  0.253291936  0.755047401
     0.994621437  0.018147170  0.022211628
     0.015224947  0.492724704  0.532858414
     0.492105505  0.977216676  0.515245756
     0.531712388  0.490817459  0.019283531

  ion indices of the primitive-cell ions
   primitive index   ion index
                 1           1
                 2           2
                 3           3
                 4           4
                 5           5
                 6           6
                 7           7
                 8           8
                 9           9
                10          10
                11          11
                12          12
                13          13
                14          14
                15          15
                16          16
                17          17
                18          18
                19          19
                20          20
                21          21
                22          22
                23          23
                24          24
                25          25
                26          26
                27          27
                28          28
                29          29
                30          30
                31          31
                32          32
                33          33
                34          34
                35          35
                36          36
                37          37
                38          38
                39          39
                40          40
                41          41
                42          42
                43          43
                44          44
                45          45
                46          46
                47          47
                48          48
                49          49
                50          50
                51          51
                52          52

----------------------------------------------------------------------------------------

 
 
 KPOINTS: Automatic mesh                          

Automatic generation of k-mesh.
 Grid dimensions read from file:
 generate k-points for:    2    2    2

 Generating k-lattice:

  Cartesian coordinates                     Fractional coordinates (reciprocal lattice)
     0.051772923  0.000000000  0.000000000     0.500000000  0.000000000  0.000000000
     0.000000000  0.051772923  0.000000000     0.000000000  0.500000000  0.000000000
     0.000000000  0.000000000  0.051772923     0.000000000  0.000000000  0.500000000

  Length of vectors
     0.051772923  0.051772923  0.051772923

  Shift w.r.t. Gamma in fractional coordinates (k-lattice)
     0.500000000  0.500000000  0.500000000

 
 Subroutine IBZKPT returns following result:
 ===========================================
 
 Found      4 irreducible k-points:
 
 Following reciprocal coordinates:
            Coordinates               Weight
  0.250000  0.250000  0.250000      2.000000
 -0.250000  0.250000  0.250000      2.000000
 -0.250000 -0.250000  0.250000      2.000000
  0.250000 -0.250000  0.250000      2.000000
 
 Following cartesian coordinates:
            Coordinates               Weight
  0.025886  0.025886  0.025886      2.000000
 -0.025886  0.025886  0.025886      2.000000
 -0.025886 -0.025886  0.025886      2.000000
  0.025886 -0.025886  0.025886      2.000000
 


--------------------------------------------------------------------------------------------------------




 Dimension of arrays:
   k-points           NKPTS =      4   k-points in BZ     NKDIM =      4   number of bands    NBANDS=    176
   number of dos      NEDOS =    301   number of ions     NIONS =     52
   non local maximal  LDIM  =      6   non local SUM 2l+1 LMDIM =     18
   total plane-waves  NPLWV = 373248
   max r-space proj   IRMAX =   5781   max aug-charges    IRDMAX=  17686
   dimension x,y,z NGX =    72 NGY =   72 NGZ =   72
   dimension x,y,z NGXF=   144 NGYF=  144 NGZF=  144
   support grid    NGXF=   144 NGYF=  144 NGZF=  144
   ions per type =              24   4  20   4
   NGX,Y,Z   is equivalent  to a cutoff of  12.39, 12.39, 12.39 a.u.
   NGXF,Y,Z  is equivalent  to a cutoff of  24.79, 24.79, 24.79 a.u.

 SYSTEM =  unknown system                          
 POSCAR =  Li24 P4 S20 Cl4                         

 Startparameter for this run:
   NWRITE =      2    write-flag & timer
   PREC   = accu      normal or accurate (medium, high low for compatibility)
   ISTART =      0    job   : 0-new  1-cont  2-samecut
   ICHARG =      2    charge: 1-file 2-atom 10-const
   ISPIN  =      2    spin polarized calculation?
   LNONCOLLINEAR =      F non collinear calculations
   LSORBIT =      F    spin-orbit coupling
   INIWAV =      1    electr: 0-lowe 1-rand  2-diag
   LASPH  =      T    aspherical Exc in radial PAW
 Electronic Relaxation 1
   ENCUT  =  520.0 eV  38.22 Ry    6.18 a.u.  17.96 17.96 17.96*2*pi/ulx,y,z
   ENINI  =  520.0     initial cutoff
   ENAUG  = 1041.7 eV  augmentation charge cutoff
   NELM   =    100;   NELMIN=  2; NELMDL=-10     # of ELM steps 
   EDIFF  = 0.1E-05   stopping-criterion for ELM
   LREAL  =      T    real-space projection
   NLSPLINE    = F    spline interpolate recip. space projectors
   LCOMPAT=      F    compatible to vasp.4.4
   GGA_COMPAT  = T    GGA compatible to vasp.4.4-vasp.4.6
   LMAXPAW     = -100 max onsite density
   LMAXMIX     =    4 max onsite mixed and CHGCAR
   VOSKOWN=      0    Vosko Wilk Nusair interpolation
   ROPT   =   -0.00025  -0.00025  -0.00025  -0.00025
 Ionic relaxation
   EDIFFG = -.1E-02   stopping-criterion for IOM
   NSW    =   1000    number of steps for IOM
   NBLOCK =      1;   KBLOCK =   1000    inner block; outer block 
   IBRION =      2    ionic relax: 0-MD 1-quasi-New 2-CG
   NFREE  =      1    steps in history (QN), initial steepest desc. (CG)
   ISIF   =      2    stress and relaxation
   IWAVPR =     11    prediction:  0-non 1-charg 2-wave 3-comb
   ISYM   =      2    0-nonsym 1-usesym 2-fastsym
   LCORR  =      T    Harris-Foulkes like correction to forces

   POTIM  = 0.2000    time-step for ionic-motion
   TEIN   =    0.0    initial temperature
   TEBEG  =    0.0;   TEEND  =   0.0 temperature during run
   SMASS  =  -3.00    Nose mass-parameter (am)
   estimated Nose-frequenzy (Omega)   =  0.10E-29 period in steps = 0.31E+47 mass=  -0.213E-26a.u.
   SCALEE = 1.0000    scale energy and forces
   NPACO  =    256;   APACO  = 10.0  distance and # of slots for P.C.
   PSTRESS=    0.0 pullay stress

  Mass of Ions in am
   POMASS =   7.01 30.97 32.07 35.45
  Ionic Valenz
   ZVAL   =   3.00  5.00  6.00  7.00
  Atomic Wigner-Seitz radii
   RWIGS  =  -1.00 -1.00 -1.00 -1.00
  virtual crystal weights 
   VCA    =   1.00  1.00  1.00  1.00
   NELECT =     240.0000    total number of electrons
   NUPDOWN=      -1.0000    fix difference up-down

 DOS related values:
   EMIN   =  10.00;   EMAX   =-10.00  energy-range for DOS
   EFERMI =   0.00;   METHOD = LEGACY      
   ISMEAR =     0;   SIGMA  =   0.03  broadening in eV -4-tet -1-fermi 0-gaus

 Electronic relaxation 2 (details)
   IALGO  =     68    algorithm
   LDIAG  =      T    sub-space diagonalisation (order eigenvalues)
   LSUBROT=      F    optimize rotation matrix (better conditioning)
   TURBO    =      0    0=normal 1=particle mesh
   IRESTART =      0    0=no restart 2=restart with 2 vectors
   NREBOOT  =      0    no. of reboots
   NMIN     =      0    reboot dimension
   EREF     =   0.00    reference energy to select bands
   IMIX   =      4    mixing-type and parameters
     AMIX     =   0.40;   BMIX     =  1.00
     AMIX_MAG =   1.60;   BMIX_MAG =  1.00
     AMIN     =   0.10
     WC   =   100.;   INIMIX=   1;  MIXPRE=   1;  MAXMIX= -45

 Intra band minimization:
   WEIMIN = 0.0010     energy-eigenvalue tresh-hold
   EBREAK =  0.14E-08  absolut break condition
   DEPER  =   0.30     relativ break condition  

   TIME   =   0.40     timestep for ELM

  volume/ion in A,a.u.               =      17.32       116.89
  Fermi-wavevector in a.u.,A,eV,Ry     =   1.053444  1.990720 15.098974  1.109743
  Thomas-Fermi vector in A             =   2.188565
 
 Write flags
   LWAVE        =      F    write WAVECAR
   LDOWNSAMPLE  =      F    k-point downsampling of WAVECAR
   LCHARG       =      F    write CHGCAR
   LVTOT        =      F    write LOCPOT, total local potential
   LVHAR        =      F    write LOCPOT, Hartree potential only
   LELF         =      F    write electronic localiz. function (ELF)
   LORBIT       =      0    0 simple, 1 ext, 2 COOP (PROOUT), +10 PAW based schemes


 Dipole corrections
   LMONO  =      F    monopole corrections only (constant potential shift)
   LDIPOL =      F    correct potential (dipole corrections)
   IDIPOL =      0    1-x, 2-y, 3-z, 4-all directions 
   EPSILON=  1.0000000 bulk dielectric constant

 Exchange correlation treatment:
   GGA     =    PE    GGA type
   LEXCH   =     8    internal setting for exchange type
   LIBXC   =     F    Libxc                    
   VOSKOWN =     0    Vosko Wilk Nusair interpolation
   LHFCALC =     F    Hartree Fock is set to
   LHFONE  =     F    Hartree Fock one center treatment
   AEXX    =    0.0000 exact exchange contribution

 Linear response parameters
   LEPSILON=     F    determine dielectric tensor
   LRPA    =     F    only Hartree local field effects (RPA)
   LNABLA  =     F    use nabla operator in PAW spheres
   LVEL    =     F    velocity operator in full k-point grid
   CSHIFT  =0.1000    complex shift for real part using Kramers Kronig
   OMEGAMAX=  -1.0    maximum frequency
   DEG_THRESHOLD= 0.2000000E-02 threshold for treating states as degnerate
   RTIME   =   -0.100 relaxation time in fs
  (WPLASMAI=    0.000 imaginary part of plasma frequency in eV, 0.658/RTIME)
   DFIELD  = 0.0000000 0.0000000 0.0000000 field for delta impulse in time
 
  Optional k-point grid parameters
   LKPOINTS_OPT  =     F    use optional k-point grid
   KPOINTS_OPT_MODE=     1    mode for optional k-point grid
 
 Orbital magnetization related:
   ORBITALMAG=     F  switch on orbital magnetization
   LCHIMAG   =     F  perturbation theory with respect to B field
   DQ        =  0.001000  dq finite difference perturbation B field
   LLRAUG    =     F  two centre corrections for induced B field
   LBONE     =     F  B-component reconstruction in AE one-centre
   LVGVCALC  =     T  calculate vGv susceptibility
   LVGVAPPL  =     F  apply vGv susceptibility instead of pGv for G=0

 Random number generation:
   RANDOM_GENERATOR = DEFAULT
   PCG_SEED         = not used


--------------------------------------------------------------------------------------------------------


 conjugate gradient relaxation of ions
 charge density and potential will be updated during run
 spin polarized calculation
 RMM-DIIS sequential band-by-band and
  variant of blocked Davidson during initial phase
 perform sub-space diagonalisation
    before iterative eigenvector-optimisation
 modified Broyden-mixing scheme, WC =      100.0
 initial mixing is a Kerker type mixing with AMIX =  0.4000 and BMIX =      1.0000
 Hartree-type preconditioning will be used
 using additional bands           56
 real space projection scheme for non local part
 use partial core corrections
 calculate Harris-corrections to forces 
   (improved forces if not selfconsistent)
 use gradient corrections 
 use of overlap-Matrix (Vanderbilt PP)
 Gauss-broadening in eV      SIGMA  =   0.03


--------------------------------------------------------------------------------------------------------


  energy-cutoff  :      520.00
  volume of cell :      900.75
      direct lattice vectors                 reciprocal lattice vectors
     9.657557827  0.000000000  0.000000000     0.103545846  0.000000000  0.000000000
     0.000000000  9.657557827  0.000000000     0.000000000  0.103545846  0.000000000
     0.000000000  0.000000000  9.657557827     0.000000000  0.000000000  0.103545846

  length of vectors
     9.657557827  9.657557827  9.657557827     0.103545846  0.103545846  0.103545846


 
 k-points in units of 2pi/SCALE and weight: Automatic mesh                          
   0.02588646  0.02588646  0.02588646       0.250
  -0.02588646  0.02588646  0.02588646       0.250
  -0.02588646 -0.02588646  0.02588646       0.250
   0.02588646 -0.02588646  0.02588646       0.250
 
 k-points in reciprocal lattice and weights: Automatic mesh                          
   0.25000000  0.25000000  0.25000000       0.250
  -0.25000000  0.25000000  0.25000000       0.250
  -0.25000000 -0.25000000  0.25000000       0.250
   0.25000000 -0.25000000  0.25000000       0.250
 
 position of ions in fractional coordinates (direct lattice) 
   0.95835188  0.31686100  0.33103706
   0.99430832  0.70141390  0.69615632
   0.02858671  0.27573300  0.68386275
   0.07316710  0.78755544  0.07910427
   0.18177764  0.19006523  0.97419197
   0.34472663  0.64879661  0.04763168
   0.79590232  0.21510940  0.02025391
   0.69483072  0.67827263  0.96747802
   0.19959020  0.98852094  0.22489589
   0.32195688  0.02614656  0.73039932
   0.83198586  0.96166382  0.82571127
   0.82470284  0.02052821  0.21474500
   0.27491336  0.80022336  0.48200591
   0.32962986  0.21528766  0.52567425
   0.72751006  0.82242414  0.52388712
   0.66606223  0.17108661  0.46735390
   0.21356169  0.47944075  0.70119314
   0.16864077  0.54817520  0.32165477
   0.71426643  0.48185789  0.20961410
   0.78986174  0.51568178  0.66981263
   0.47820409  0.32562968  0.83345342
   0.48632662  0.81195077  0.29922670
   0.51461819  0.30352395  0.18907627
   0.53604484  0.80356456  0.71818615
   0.50022986  0.50666742  0.49875329
   0.50723535  0.99341603  0.00688526
   0.00455325  0.49598296  0.00215035
   0.00489577  0.00117105  0.50917392
   0.12735668  0.89783949  0.64983945
   0.12400715  0.14065769  0.40018194
   0.91743053  0.86198975  0.37786835
   0.85801249  0.10871385  0.61967096
   0.88784415  0.62637750  0.12252450
   0.88688439  0.38045507  0.86858280
   0.13706187  0.62238108  0.89108471
   0.11696130  0.37452411  0.13447445
   0.62097228  0.11201746  0.87191542
   0.64106910  0.87681080  0.12346636
   0.37919895  0.11803905  0.12272239
   0.38285948  0.85938825  0.89840562
   0.63586929  0.62846968  0.38990308
   0.60617717  0.36405412  0.61650305
   0.38501000  0.63109826  0.62675594
   0.37083574  0.40013826  0.36865529
   0.76425915  0.74331964  0.74736964
   0.74272368  0.24671335  0.25151008
   0.25691873  0.75885413  0.24694440
   0.25874748  0.25329194  0.75504740
   0.99462144  0.01814717  0.02221163
   0.01522495  0.49272470  0.53285841
   0.49210550  0.97721668  0.51524576
   0.53171239  0.49081746  0.01928353
 
 position of ions in cartesian coordinates  (Angst):
   9.25533875  3.06010343  3.19700958
   9.60259007  6.77394531  6.72316988
   0.27607778  2.66290737  6.60444409
   0.70661547  7.60586222  0.76395406
   1.75552804  1.83556596  9.40831533
   3.32921741  6.26579074  0.46000571
   7.68647272  2.07743144  0.19560335
   6.71036782  6.55045718  9.34347488
   1.92755393  9.54669816  2.17194509
   3.10931715  0.25251194  7.05387363
   8.03495152  9.28732399  7.97435433
   7.96461533  0.19825242  2.07391222
   2.65499167  7.72820333  4.65499990
   3.18341943  2.07915300  5.07672943
   7.02597048  7.94260869  5.05947014
   6.43253452  1.65227882  4.51349731
   2.06248440  4.63022681  6.77181326
   1.62865796  5.29403369  3.10639949
   6.89806934  4.65357044  2.02436027
   7.62813547  4.98022662  6.46875425
   4.61828369  3.14478750  8.04912461
   4.69672747  7.84146152  2.88979915
   4.96995494  2.93130014  1.82601505
   5.17688408  7.76047119  6.93592425
   4.83099879  4.89316991  4.81673873
   4.89865471  9.59397280  0.06649484
   0.04397325  4.78998410  0.02076710
   0.04728115  0.01130946  4.91737653
   1.22995453  8.67093683  6.27586205
   1.19760620  1.35840976  3.86478018
   8.86013839  8.32471588  3.64928545
   8.28630528  1.04991028  5.98450814
   8.57440627  6.04927690  1.18328741
   8.56513727  3.67426679  8.38838860
   1.32368292  6.01068128  8.60570212
   1.12956054  3.61698823  1.29869473
   5.99707566  1.08181511  8.42057362
   6.19116187  8.46785104  1.19238346
   3.66213577  1.13996890  1.18519855
   3.69748761  8.29959170  8.67640427
   6.14094444  6.06948228  3.76551154
   5.85419106  3.51587374  5.95391388
   3.71825631  6.09486790  6.05293177
   3.58136764  3.86435835  3.56030977
   7.38087692  7.17865239  7.21776549
   7.17289690  2.38264842  2.42897318
   2.48120748  7.32867762  2.38487984
   2.49886875  2.44618152  7.29191394
   9.60561405  0.17525734  0.21451008
   0.14703580  4.75851732  5.14611095
   4.75253737  9.43752656  4.97601568
   5.13504313  4.74009799  0.18623181
 


--------------------------------------------------------------------------------------------------------


 k-point   1 :   0.2500 0.2500 0.2500  plane waves:   24252
 k-point   2 :  -0.2500 0.2500 0.2500  plane waves:   24252
 k-point   3 :  -0.2500-0.2500 0.2500  plane waves:   24252
 k-point   4 :   0.2500-0.2500 0.2500  plane waves:   24252

 maximum and minimum number of plane-waves per node :       778      744

 maximum number of plane-waves:     24252
 maximum index in each direction: 
   IXMAX=   18   IYMAX=   18   IZMAX=   17
   IXMIN=  -18   IYMIN=  -18   IZMIN=  -18


 real space projection operators:
  total allocation   :      28372.09 KBytes
  max/ min on nodes  :       1185.12        755.94


 parallel 3D FFT for wavefunctions:
    minimum data exchange during FFTs selected (reduces bandwidth)
 parallel 3D FFT for charge:
    minimum data exchange during FFTs selected (reduces bandwidth)


 total amount of memory used by VASP MPI-rank0    48197. kBytes
=======================================================================

   base      :      30000. kBytes
   nonlr-proj:       6537. kBytes
   fftplans  :       1747. kBytes
   grid      :       5278. kBytes
   one-center:         62. kBytes
   wavefun   :       4573. kBytes
 
     INWAV:  cpu time      0.0000: real time      0.0000
 Broyden mixing: mesh for mixing (old mesh)
   NGX = 35   NGY = 35   NGZ = 35
  (NGX  =144   NGY  =144   NGZ  =144)
  gives a total of  42875 points

 initial charge density was supplied:
 charge density of overlapping atoms calculated
 number of electron     240.0000000 magnetization      52.0000000
 keeping initial charge density in first step


--------------------------------------------------------------------------------------------------------


 Maximum index for non-local projection operator          634
 Maximum index for augmentation-charges          997 (set IRDMAX)


--------------------------------------------------------------------------------------------------------


 First call to EWALD:  gamma=   0.184
 Maximum number of real-space cells 3x 3x 3
 Maximum number of reciprocal cells 3x 3x 3

    FEWALD:  cpu time      0.0030: real time      0.0033


--------------------------------------- Ionic step        1  -------------------------------------------




--------------------------------------- Iteration      1(   1)  ---------------------------------------


    POTLOK:  cpu time      0.0589: real time      0.0681
    SETDIJ:  cpu time      0.4059: real time      0.4121
     EDDAV:  cpu time      2.2377: real time      2.3109
       DOS:  cpu time      0.0021: real time      0.0037
    --------------------------------------------
      LOOP:  cpu time      2.7047: real time      2.7948

 eigenvalue-minimisations  :  3096
 total energy-change (2. order) : 0.1586722E+04  (-0.1138385E+05)
 number of electron     240.0000000 magnetization      52.0000000
 augmentation part      240.0000000 magnetization      52.0000000

 Free energy of the ion-electron system (eV)
  ---------------------------------------------------
  alpha Z        PSCENC =       301.36991750
  Ewald energy   TEWEN  =     -8827.86808146
  -Hartree energ DENC   =     -2103.66781532
  -exchange      EXHF   =         0.00000000
  -V(xc)+E(xc)   XCENC  =       534.27393410
  PAW double counting   =      8141.38806575    -8271.61346273
  entropy T*S    EENTRO =        -0.00380615
  eigenvalues    EBANDS =      -890.29631275
  atomic energy  EATOM  =     12703.13999606
  Solvation  Ediel_sol  =         0.00000000
  ---------------------------------------------------
  free energy    TOTEN  =      1586.72243501 eV

  energy without entropy =     1586.72624116  energy(sigma->0) =     1586.72433808


--------------------------------------------------------------------------------------------------------




--------------------------------------- Iteration      1(   2)  ---------------------------------------


     EDDAV:  cpu time      2.5939: real time      2.6382
       DOS:  cpu time      0.0004: real time      0.0004
    --------------------------------------------
      LOOP:  cpu time      2.5944: real time      2.6387

 eigenvalue-minimisations  :  3840
 total energy-change (2. order) :-0.1642451E+04  (-0.1543164E+04)
 number of electron     240.0000000 magnetization      52.0000000
 augmentation part      240.0000000 magnetization      52.0000000

 Free energy of the ion-electron system (eV)
  ---------------------------------------------------
  alpha Z        PSCENC =       301.36991750
  Ewald energy   TEWEN  =     -8827.86808146
  -Hartree energ DENC   =     -2103.66781532
  -exchange      EXHF   =         0.00000000
  -V(xc)+E(xc)   XCENC  =       534.27393410
  PAW double counting   =      8141.38806575    -8271.61346273
  entropy T*S    EENTRO =        -0.00000000
  eigenvalues    EBANDS =     -2532.75127580
  atomic energy  EATOM  =     12703.13999606
  Solvation  Ediel_sol  =         0.00000000
  ---------------------------------------------------
  free energy    TOTEN  =       -55.72872189 eV

  energy without entropy =      -55.72872189  energy(sigma->0) =      -55.72872189


--------------------------------------------------------------------------------------------------------




--------------------------------------- Iteration      1(   3)  ---------------------------------------


     EDDAV:  cpu time      2.5368: real time      2.5949
       DOS:  cpu time      0.0004: real time      0.0004
    --------------------------------------------
      LOOP:  cpu time      2.5373: real time      2.5953

 eigenvalue-minimisations  :  3744
 total energy-change (2. order) :-0.1723324E+03  (-0.1702903E+03)
 number of electron     240.0000000 magnetization      52.0000000
 augmentation part      240.0000000 magnetization      52.0000000

 Free energy of the ion-electron system (eV)
  ---------------------------------------------------
  alpha Z        PSCENC =       301.36991750
  Ewald energy   TEWEN  =     -8827.86808146
  -Hartree energ DENC   =     -2103.66781532
  -exchange      EXHF   =         0.00000000
  -V(xc)+E(xc)   XCENC  =       534.27393410
  PAW double counting   =      8141.38806575    -8271.61346273
  entropy T*S    EENTRO =        -0.00000000
  eigenvalues    EBANDS =     -2705.08366223
  atomic energy  EATOM  =     12703.13999606
  Solvation  Ediel_sol  =         0.00000000
  ---------------------------------------------------
  free energy    TOTEN  =      -228.06110832 eV

  energy without entropy =     -228.06110832  energy(sigma->0) =     -228.06110832


--------------------------------------------------------------------------------------------------------




--------------------------------------- Iteration      1(   4)  ---------------------------------------


     EDDAV:  cpu time      3.1027: real time      3.1773
       DOS:  cpu time      0.0004: real time      0.0005
    --------------------------------------------
      LOOP:  cpu time      3.1031: real time      3.1778

 eigenvalue-minimisations  :  4752
 total energy-change (2. order) :-0.1348795E+02  (-0.1346451E+02)
 number of electron     240.0000000 magnetization      52.0000000
 augmentation part      240.0000000 magnetization      52.0000000

 Free energy of the ion-electron system (eV)
  ---------------------------------------------------
  alpha Z        PSCENC =       301.36991750
  Ewald energy   TEWEN  =     -8827.86808146
  -Hartree energ DENC   =     -2103.66781532
  -exchange      EXHF   =         0.00000000
  -V(xc)+E(xc)   XCENC  =       534.27393410
  PAW double counting   =      8141.38806575    -8271.61346273
  entropy T*S    EENTRO =        -0.00000000
  eigenvalues    EBANDS =     -2718.57161209
  atomic energy  EATOM  =     12703.13999606
  Solvation  Ediel_sol  =         0.00000000
  ---------------------------------------------------
  free energy    TOTEN  =      -241.54905818 eV

  energy without entropy =     -241.54905818  energy(sigma->0) =     -241.54905818


--------------------------------------------------------------------------------------------------------




--------------------------------------- Iteration      1(   5)  ---------------------------------------


     EDDAV:  cpu time      2.9376: real time      2.9631
       DOS:  cpu time      0.0004: real time      0.0004
    --------------------------------------------
      LOOP:  cpu time      2.9380: real time      2.9635

 eigenvalue-minimisations  :  4456
 total energy-change (2. order) :-0.2206585E+00  (-0.2205624E+00)
 number of electron     240.0000000 magnetization      52.0000000
 augmentation part      240.0000000 magnetization      52.0000000

 Free energy of the ion-electron system (eV)
  ---------------------------------------------------
  alpha Z        PSCENC =       301.36991750
  Ewald energy   TEWEN  =     -8827.86808146
  -Hartree energ DENC   =     -2103.66781532
  -exchange      EXHF   =         0.00000000
  -V(xc)+E(xc)   XCENC  =       534.27393410
  PAW double counting   =      8141.38806575    -8271.61346273
  entropy T*S    EENTRO =        -0.00000000
  eigenvalues    EBANDS =     -2718.79227059
  atomic energy  EATOM  =     12703.13999606
  Solvation  Ediel_sol  =         0.00000000
  ---------------------------------------------------
  free energy    TOTEN  =      -241.76971668 eV

  energy without entropy =     -241.76971668  energy(sigma->0) =     -241.76971668


--------------------------------------------------------------------------------------------------------




--------------------------------------- Iteration      1(   6)  ---------------------------------------


     EDDAV:  cpu time      3.0423: real time      3.0674
       DOS:  cpu time      0.0004: real time      0.0004
    --------------------------------------------
      LOOP:  cpu time      3.0427: real time      3.0678

 eigenvalue-minimisations  :  4648
 total energy-change (2. order) :-0.1101790E-01  (-0.1101674E-01)
 number of electron     240.0000000 magnetization      52.0000000
 augmentation part      240.0000000 magnetization      52.0000000

 Free energy of the ion-electron system (eV)
  ---------------------------------------------------
  alpha Z        PSCENC =       301.36991750
  Ewald energy   TEWEN  =     -8827.86808146
  -Hartree energ DENC   =     -2103.66781532
  -exchange      EXHF   =         0.00000000
  -V(xc)+E(xc)   XCENC  =       534.27393410
  PAW double counting   =      8141.38806575    -8271.61346273
  entropy T*S    EENTRO =        -0.00000000
  eigenvalues    EBANDS =     -2718.80328849
  atomic energy  EATOM  =     12703.13999606
  Solvation  Ediel_sol  =         0.00000000
  ---------------------------------------------------
  free energy    TOTEN  =      -241.78073458 eV

  energy without entropy =     -241.78073458  energy(sigma->0) =     -241.78073458


--------------------------------------------------------------------------------------------------------




--------------------------------------- Iteration      1(   7)  ---------------------------------------


     EDDAV:  cpu time      2.9938: real time      3.0189
       DOS:  cpu time      0.0004: real time      0.0004
    --------------------------------------------
      LOOP:  cpu time      2.9942: real time      3.0193

 eigenvalue-minimisations  :  4552
 total energy-change (2. order) :-0.3669955E-03  (-0.3669719E-03)
 number of electron     240.0000000 magnetization      52.0000000
 augmentation part      240.0000000 magnetization      52.0000000

 Free energy of the ion-electron system (eV)
  ---------------------------------------------------
  alpha Z        PSCENC =       301.36991750
  Ewald energy   TEWEN  =     -8827.86808146
  -Hartree energ DENC   =     -2103.66781532
  -exchange      EXHF   =         0.00000000
  -V(xc)+E(xc)   XCENC  =       534.27393410
  PAW double counting   =      8141.38806575    -8271.61346273
  entropy T*S    EENTRO =        -0.00000000
  eigenvalues    EBANDS =     -2718.80365548
  atomic energy  EATOM  =     12703.13999606
  Solvation  Ediel_sol  =         0.00000000
  ---------------------------------------------------
  free energy    TOTEN  =      -241.78110157 eV

  energy without entropy =     -241.78110157  energy(sigma->0) =     -241.78110157


--------------------------------------------------------------------------------------------------------




--------------------------------------- Iteration      1(   8)  ---------------------------------------


     EDDAV:  cpu time      3.0209: real time      3.0562
       DOS:  cpu time      0.0004: real time      0.0004
    --------------------------------------------
      LOOP:  cpu time      3.0213: real time      3.0566

 eigenvalue-minimisations  :  4600
 total energy-change (2. order) :-0.2137512E-04  (-0.2137438E-04)
 number of electron     240.0000000 magnetization      52.0000000
 augmentation part      240.0000000 magnetization      52.0000000

 Free energy of the ion-electron system (eV)
  ---------------------------------------------------
  alpha Z        PSCENC =       301.36991750
  Ewald energy   TEWEN  =     -8827.86808146
  -Hartree energ DENC   =     -2103.66781532
  -exchange      EXHF   =         0.00000000
  -V(xc)+E(xc)   XCENC  =       534.27393410
  PAW double counting   =      8141.38806575    -8271.61346273
  entropy T*S    EENTRO =        -0.00000000
  eigenvalues    EBANDS =     -2718.80367686
  atomic energy  EATOM  =     12703.13999606
  Solvation  Ediel_sol  =         0.00000000
  ---------------------------------------------------
  free energy    TOTEN  =      -241.78112295 eV

  energy without entropy =     -241.78112295  energy(sigma->0) =     -241.78112295


--------------------------------------------------------------------------------------------------------




--------------------------------------- Iteration      1(   9)  ---------------------------------------


     EDDAV:  cpu time      3.1977: real time      3.6440
       DOS:  cpu time      0.0007: real time      0.0007
    --------------------------------------------
      LOOP:  cpu time      3.1984: real time      3.6447

 eigenvalue-minimisations  :  4432
 total energy-change (2. order) :-0.1367463E-05  (-0.1367091E-05)
 number of electron     240.0000000 magnetization      52.0000000
 augmentation part      240.0000000 magnetization      52.0000000

 Free energy of the ion-electron system (eV)
  ---------------------------------------------------
  alpha Z        PSCENC =       301.36991750
  Ewald energy   TEWEN  =     -8827.86808146
  -Hartree energ DENC   =     -2103.66781532
  -exchange      EXHF   =         0.00000000
  -V(xc)+E(xc)   XCENC  =       534.27393410
  PAW double counting   =      8141.38806575    -8271.61346273
  entropy T*S    EENTRO =        -0.00000000
  eigenvalues    EBANDS =     -2718.80367822
  atomic energy  EATOM  =     12703.13999606
  Solvation  Ediel_sol  =         0.00000000
  ---------------------------------------------------
  free energy    TOTEN  =      -241.78112431 eV

  energy without entropy =     -241.78112431  energy(sigma->0) =     -241.78112431


--------------------------------------------------------------------------------------------------------




--------------------------------------- Iteration      1(  10)  ---------------------------------------


     EDDAV:  cpu time      2.0266: real time      2.0585
       DOS:  cpu time      0.0004: real time      0.0004
    CHARGE:  cpu time      0.0661: real time      0.0725
    MIXING:  cpu time      0.0022: real time      0.0037
    --------------------------------------------
      LOOP:  cpu time      2.0953: real time      2.1352

 eigenvalue-minimisations  :  2656
 total energy-change (2. order) :-0.5965194E-07  (-0.6048753E-07)
 number of electron     239.9999995 magnetization      27.2566289
 augmentation part        1.4874532 magnetization      27.6988111

 Broyden mixing:
  rms(total) = 0.64130E+01    rms(broyden)= 0.64124E+01
  rms(prec ) = 0.66489E+01
  weight for this iteration     100.00

 Free energy of the ion-electron system (eV)
  ---------------------------------------------------
  alpha Z        PSCENC =       301.36991750
  Ewald energy   TEWEN  =     -8827.86808146
  -Hartree energ DENC   =     -2103.66781532
  -exchange      EXHF   =         0.00000000
  -V(xc)+E(xc)   XCENC  =       534.27393410
  PAW double counting   =      8141.38806575    -8271.61346273
  entropy T*S    EENTRO =        -0.00000000
  eigenvalues    EBANDS =     -2718.80367828
  atomic energy  EATOM  =     12703.13999606
  Solvation  Ediel_sol  =         0.00000000
  ---------------------------------------------------
  free energy    TOTEN  =      -241.78112437 eV

  energy without entropy =     -241.78112437  energy(sigma->0) =     -241.78112437


--------------------------------------------------------------------------------------------------------




--------------------------------------- Iteration      1(  11)  ---------------------------------------


    POTLOK:  cpu time      0.0541: real time      0.0550
    SETDIJ:  cpu time      0.4033: real time      0.4160
    EDDIAG:  cpu time      0.3987: real time      0.4075
  RMM-DIIS:  cpu time      1.1690: real time      1.1798
    ORTHCH:  cpu time      0.0659: real time      0.0666
       DOS:  cpu time      0.0005: real time      0.0005
    CHARGE:  cpu time      0.0681: real time      0.0703
    MIXING:  cpu time      0.0012: real time      0.0028
    --------------------------------------------
      LOOP:  cpu time      2.1608: real time      2.1985

 eigenvalue-minimisations  :  2816
 total energy-change (2. order) : 0.5692723E+01  (-0.4685499E+01)
 number of electron     239.9999995 magnetization      16.3386697
 augmentation part        1.7014125 magnetization      16.5230799

 Broyden mixing:
  rms(total) = 0.33008E+01    rms(broyden)= 0.33006E+01
  rms(prec ) = 0.34151E+01
  weight for this iteration     100.00

 eigenvalues of (default mixing * dielectric matrix)
  average eigenvalue GAMMA=   0.7250
  0.7250

 Free energy of the ion-electron system (eV)
  ---------------------------------------------------
  alpha Z        PSCENC =       301.36991750
  Ewald energy   TEWEN  =     -8827.86808146
  -Hartree energ DENC   =     -2151.82747457
  -exchange      EXHF   =         0.00000000
  -V(xc)+E(xc)   XCENC  =       542.58328490
  PAW double counting   =      8928.13542931    -9064.42213207
  entropy T*S    EENTRO =        -0.00000000
  eigenvalues    EBANDS =     -2667.19934058
  atomic energy  EATOM  =     12703.13999606
  Solvation  Ediel_sol  =         0.00000000
  ---------------------------------------------------
  free energy    TOTEN  =      -236.08840090 eV

  energy without entropy =     -236.08840090  energy(sigma->0) =     -236.08840090


--------------------------------------------------------------------------------------------------------




--------------------------------------- Iteration      1(  12)  ---------------------------------------


    POTLOK:  cpu time      0.0524: real time      0.0533
    SETDIJ:  cpu time      0.4010: real time      0.4032
    EDDIAG:  cpu time      0.3564: real time      0.3587
  RMM-DIIS:  cpu time      1.2268: real time      1.2375
    ORTHCH:  cpu time      0.0669: real time      0.0682
       DOS:  cpu time      0.0005: real time      0.0005
    CHARGE:  cpu time      0.0647: real time      0.0670
    MIXING:  cpu time      0.0011: real time      0.0011
    --------------------------------------------
      LOOP:  cpu time      2.1699: real time      2.1894

 eigenvalue-minimisations  :  2948
 total energy-change (2. order) :-0.1988242E+02  (-0.2141285E+01)
 number of electron     239.9999995 magnetization       0.5256731
 augmentation part        1.8029943 magnetization       0.8667428

 Broyden mixing:
  rms(total) = 0.20310E+01    rms(broyden)= 0.20310E+01
  rms(prec ) = 0.20913E+01
  weight for this iteration     100.00

 eigenvalues of (default mixing * dielectric matrix)
  average eigenvalue GAMMA=   1.1485
  1.6267  0.6704

 Free energy of the ion-electron system (eV)
  ---------------------------------------------------
  alpha Z        PSCENC =       301.36991750
  Ewald energy   TEWEN  =     -8827.86808146
  -Hartree energ DENC   =     -2175.93745910
  -exchange      EXHF   =         0.00000000
  -V(xc)+E(xc)   XCENC  =       536.23745160
  PAW double counting   =      9281.14657464    -9421.02889315
  entropy T*S    EENTRO =        -0.00000000
  eigenvalues    EBANDS =     -2653.03032455
  atomic energy  EATOM  =     12703.13999606
  Solvation  Ediel_sol  =         0.00000000
  ---------------------------------------------------
  free energy    TOTEN  =      -255.97081845 eV

  energy without entropy =     -255.97081845  energy(sigma->0) =     -255.97081845


--------------------------------------------------------------------------------------------------------




--------------------------------------- Iteration      1(  13)  ---------------------------------------


    POTLOK:  cpu time      0.0526: real time      0.0535
    SETDIJ:  cpu time      0.4000: real time      0.4022
    EDDIAG:  cpu time      0.3569: real time      0.3595
  RMM-DIIS:  cpu time      1.2101: real time      1.2216
    ORTHCH:  cpu time      0.0672: real time      0.0675
       DOS:  cpu time      0.0005: real time      0.0005
    CHARGE:  cpu time      0.0652: real time      0.0670
    MIXING:  cpu time      0.0011: real time      0.0012
    --------------------------------------------
      LOOP:  cpu time      2.1537: real time      2.1730

 eigenvalue-minimisations  :  2897
 total energy-change (2. order) :-0.2481763E+01  (-0.8824305E+00)
 number of electron     239.9999995 magnetization      -1.9148363
 augmentation part        1.9044671 magnetization      -1.8096980

 Broyden mixing:
  rms(total) = 0.67568E+00    rms(broyden)= 0.67568E+00
  rms(prec ) = 0.70763E+00
  weight for this iteration     100.00

 eigenvalues of (default mixing * dielectric matrix)
  average eigenvalue GAMMA=   1.3056
  2.5169  0.7472  0.6528

 Free energy of the ion-electron system (eV)
  ---------------------------------------------------
  alpha Z        PSCENC =       301.36991750
  Ewald energy   TEWEN  =     -8827.86808146
  -Hartree energ DENC   =     -2203.29437809
  -exchange      EXHF   =         0.00000000
  -V(xc)+E(xc)   XCENC  =       537.77100559
  PAW double counting   =      9782.32695898    -9926.16625503
  entropy T*S    EENTRO =        -0.00000000
  eigenvalues    EBANDS =     -2625.73174491
  atomic energy  EATOM  =     12703.13999606
  Solvation  Ediel_sol  =         0.00000000
  ---------------------------------------------------
  free energy    TOTEN  =      -258.45258136 eV

  energy without entropy =     -258.45258136  energy(sigma->0) =     -258.45258136


--------------------------------------------------------------------------------------------------------




--------------------------------------- Iteration      1(  14)  ---------------------------------------


    POTLOK:  cpu time      0.0536: real time      0.0546
    SETDIJ:  cpu time      0.4012: real time      0.4030
    EDDIAG:  cpu time      0.3604: real time      0.3626
  RMM-DIIS:  cpu time      1.5528: real time      1.5673
    ORTHCH:  cpu time      0.0670: real time      0.0678
       DOS:  cpu time      0.0005: real time      0.0005
    CHARGE:  cpu time      0.0647: real time      0.0664
    MIXING:  cpu time      0.0010: real time      0.0010
    --------------------------------------------
      LOOP:  cpu time      2.5012: real time      2.5231

 eigenvalue-minimisations  :  3737
 total energy-change (2. order) :-0.1949561E+00  (-0.1945560E+00)
 number of electron     239.9999995 magnetization      -0.8687825
 augmentation part        1.8738921 magnetization      -0.8424835

 Broyden mixing:
  rms(total) = 0.32069E+00    rms(broyden)= 0.32069E+00
  rms(prec ) = 0.35526E+00
  weight for this iteration     100.00

 eigenvalues of (default mixing * dielectric matrix)
  average eigenvalue GAMMA=   1.2689
  2.6224  1.1704  0.6900  0.5926

 Free energy of the ion-electron system (eV)
  ---------------------------------------------------
  alpha Z        PSCENC =       301.36991750
  Ewald energy   TEWEN  =     -8827.86808146
  -Hartree energ DENC   =     -2204.73681747
  -exchange      EXHF   =         0.00000000
  -V(xc)+E(xc)   XCENC  =       538.22614739
  PAW double counting   =      9860.79270727   -10005.44643759
  entropy T*S    EENTRO =        -0.00000000
  eigenvalues    EBANDS =     -2624.12496920
  atomic energy  EATOM  =     12703.13999606
  Solvation  Ediel_sol  =         0.00000000
  ---------------------------------------------------
  free energy    TOTEN  =      -258.64753750 eV

  energy without entropy =     -258.64753750  energy(sigma->0) =     -258.64753750


--------------------------------------------------------------------------------------------------------




--------------------------------------- Iteration      1(  15)  ---------------------------------------


    POTLOK:  cpu time      0.0521: real time      0.0530
    SETDIJ:  cpu time      0.4011: real time      0.4027
    EDDIAG:  cpu time      0.3604: real time      0.3624
  RMM-DIIS:  cpu time      1.3498: real time      1.3755
    ORTHCH:  cpu time      0.0658: real time      0.0662
       DOS:  cpu time      0.0005: real time      0.0005
    CHARGE:  cpu time      0.0657: real time      0.0677
    MIXING:  cpu time      0.0012: real time      0.0012
    --------------------------------------------
      LOOP:  cpu time      2.2966: real time      2.3292

 eigenvalue-minimisations  :  3074
 total energy-change (2. order) : 0.2436492E-01  (-0.3336197E-01)
 number of electron     239.9999995 magnetization      -0.2361425
 augmentation part        1.8246545 magnetization      -0.2099297

 Broyden mixing:
  rms(total) = 0.67595E-01    rms(broyden)= 0.67593E-01
  rms(prec ) = 0.79751E-01
  weight for this iteration     100.00

 eigenvalues of (default mixing * dielectric matrix)
  average eigenvalue GAMMA=   1.2712
  2.5409  1.5792  0.9479  0.6854  0.6025

 Free energy of the ion-electron system (eV)
  ---------------------------------------------------
  alpha Z        PSCENC =       301.36991750
  Ewald energy   TEWEN  =     -8827.86808146
  -Hartree energ DENC   =     -2200.14014935
  -exchange      EXHF   =         0.00000000
  -V(xc)+E(xc)   XCENC  =       537.85807902
  PAW double counting   =      9831.20383080    -9975.66358473
  entropy T*S    EENTRO =        -0.00000000
  eigenvalues    EBANDS =     -2628.52318042
  atomic energy  EATOM  =     12703.13999606
  Solvation  Ediel_sol  =         0.00000000
  ---------------------------------------------------
  free energy    TOTEN  =      -258.62317258 eV

  energy without entropy =     -258.62317258  energy(sigma->0) =     -258.62317258


--------------------------------------------------------------------------------------------------------




--------------------------------------- Iteration      1(  16)  ---------------------------------------


    POTLOK:  cpu time      0.0522: real time      0.0531
    SETDIJ:  cpu time      0.4031: real time      0.4042
    EDDIAG:  cpu time      4.3372: real time      4.3716
  RMM-DIIS:  cpu time      1.2781: real time      1.2892
    ORTHCH:  cpu time      0.0665: real time      0.0678
       DOS:  cpu time      0.0005: real time      0.0005
    CHARGE:  cpu time      0.0661: real time      0.0673
    MIXING:  cpu time      0.0012: real time      0.0012
    --------------------------------------------
      LOOP:  cpu time      6.2048: real time      6.2548

 eigenvalue-minimisations  :  3068
 total energy-change (2. order) :-0.1969907E-01  (-0.1000912E-01)
 number of electron     239.9999995 magnetization      -0.1072965
 augmentation part        1.8025593 magnetization      -0.0931970

 Broyden mixing:
  rms(total) = 0.30844E-01    rms(broyden)= 0.30841E-01
  rms(prec ) = 0.37176E-01
  weight for this iteration     100.00

 eigenvalues of (default mixing * dielectric matrix)
  average eigenvalue GAMMA=   1.2505
  2.4552  1.9418  1.0401  0.6209  0.6986  0.7468

 Free energy of the ion-electron system (eV)
  ---------------------------------------------------
  alpha Z        PSCENC =       301.36991750
  Ewald energy   TEWEN  =     -8827.86808146
  -Hartree energ DENC   =     -2199.60380837
  -exchange      EXHF   =         0.00000000
  -V(xc)+E(xc)   XCENC  =       537.77276498
  PAW double counting   =      9819.60237203    -9963.83170028
  entropy T*S    EENTRO =        -0.00000000
  eigenvalues    EBANDS =     -2629.22433211
  atomic energy  EATOM  =     12703.13999606
[...]
 -0.604   0.621   0.002   0.381  -0.045   0.030   0.003  -0.000   0.000   0.004   0.002   0.004  -0.004  -0.001
 -0.538   0.553   0.002  -0.045   0.401   0.098  -0.000   0.003   0.001  -0.004   0.001  -0.002   0.003  -0.004
 -0.329   0.338   0.001   0.030   0.098   0.748   0.000   0.001   0.006  -0.007  -0.004   0.003  -0.007  -0.006
 -0.005   0.005   0.000   0.003  -0.000   0.000   0.000  -0.000   0.000   0.000   0.000   0.000  -0.000  -0.000
 -0.004   0.004   0.000  -0.000   0.003   0.001  -0.000   0.000   0.000  -0.000   0.000  -0.000   0.000  -0.000
 -0.002   0.002   0.000   0.000   0.001   0.006   0.000   0.000   0.000  -0.000  -0.000   0.000  -0.000  -0.000
  0.004  -0.004  -0.000   0.004  -0.004  -0.007   0.000  -0.000  -0.000   0.000   0.000   0.000  -0.000   0.000
 -0.002   0.002   0.000   0.002   0.001  -0.004   0.000   0.000  -0.000   0.000   0.000   0.000   0.000  -0.000
 -0.012   0.012   0.000   0.004  -0.002   0.003   0.000  -0.000   0.000   0.000   0.000   0.000  -0.000  -0.000
  0.013  -0.013  -0.000  -0.004   0.003  -0.007  -0.000   0.000  -0.000  -0.000   0.000  -0.000   0.000   0.000
  0.022  -0.022  -0.000  -0.001  -0.004  -0.006  -0.000  -0.000  -0.000   0.000  -0.000  -0.000   0.000   0.000
 total augmentation occupancy for first ion, spin component:           2
 -0.000   0.000  -0.000   0.000   0.000  -0.000   0.000   0.000   0.000   0.000   0.000   0.000  -0.000  -0.000
  0.000  -0.000   0.000  -0.000  -0.000   0.000  -0.000  -0.000   0.000  -0.000  -0.000  -0.000   0.000   0.000
 -0.000   0.000   0.000  -0.000  -0.000  -0.000  -0.000  -0.000  -0.000   0.000   0.000  -0.000   0.000   0.000
  0.000  -0.000  -0.000  -0.000   0.000   0.000  -0.000   0.000  -0.000   0.000   0.000  -0.000   0.000   0.000
  0.000  -0.000  -0.000   0.000  -0.000  -0.000   0.000   0.000   0.000  -0.000  -0.000   0.000  -0.000  -0.000
 -0.000   0.000  -0.000   0.000  -0.000  -0.000   0.000  -0.000  -0.000   0.000  -0.000   0.000   0.000  -0.000
  0.000  -0.000  -0.000  -0.000   0.000   0.000  -0.000   0.000   0.000  -0.000  -0.000  -0.000   0.000  -0.000
  0.000  -0.000  -0.000   0.000   0.000  -0.000   0.000   0.000  -0.000   0.000   0.000  -0.000  -0.000  -0.000
  0.000   0.000  -0.000  -0.000   0.000  -0.000   0.000  -0.000   0.000  -0.000  -0.000   0.000   0.000  -0.000
  0.000  -0.000   0.000   0.000  -0.000   0.000  -0.000   0.000  -0.000   0.000   0.000   0.000   0.000   0.000
  0.000  -0.000   0.000   0.000  -0.000  -0.000  -0.000   0.000  -0.000   0.000  -0.000   0.000  -0.000   0.000
  0.000  -0.000  -0.000  -0.000   0.000   0.000  -0.000  -0.000   0.000   0.000   0.000  -0.000   0.000  -0.000
 -0.000   0.000   0.000   0.000  -0.000   0.000   0.000  -0.000   0.000   0.000  -0.000   0.000  -0.000  -0.000
 -0.000   0.000   0.000   0.000  -0.000  -0.000  -0.000  -0.000  -0.000   0.000   0.000  -0.000  -0.000   0.000


------------------------ aborting loop because EDIFF is reached ----------------------------------------


    CHARGE:  cpu time      0.0655: real time      0.0661
    FORLOC:  cpu time      0.0038: real time      0.0039
    FORNL :  cpu time      0.3925: real time      0.3949
    STRESS:  cpu time      1.1704: real time      1.1772
    FORCOR:  cpu time      0.0498: real time      0.0502
    FORHAR:  cpu time      0.0086: real time      0.0087
    MIXING:  cpu time      0.0007: real time      0.0007
    OFIELD:  cpu time      0.0000: real time      0.0000

 ---------------------------------------------------------------------------------------------

         DFTD3 V3.0 Rev 1        
 Edisp (eV)  -13.58910

 E6    (eV) :    -8.3734
 E8    (eV) :    -5.2157
 % E8        : 38.38
    FORVDW:  cpu time      0.2914: real time      0.2934

  FORCE on cell =-STRESS in cart. coord.  units (eV):
  Direction    XX          YY          ZZ          XY          YZ          ZX
  --------------------------------------------------------------------------------------
  Alpha Z   301.36992   301.36992   301.36992
  Ewald   -2951.50093 -2873.06428 -3003.30950    70.16552    -3.40173   -25.57437
  Hartree   734.58490   766.51063   701.13090    30.62220    -5.37236   -13.72339
  E(xc)    -947.82207  -947.64463  -947.85259     0.12239    -0.00951    -0.06076
  Local   -1493.48604 -1596.81979 -1409.23977   -97.46122     9.88869    39.10296
  n-local  1481.47624  1481.97370  1481.13158     1.07751     0.29858    -0.05732
  augment  -357.03408  -356.68738  -356.93257    -0.08921     0.08336     0.07166
  Kinetic  3246.56231  3239.87503  3247.11154    -1.23943    -2.37383    -1.92471
  Fock        0.00000     0.00000     0.00000     0.00000     0.00000     0.00000
  vdW       -14.36301   -14.38353   -14.37603    -0.02864    -0.01477     0.00892
  -------------------------------------------------------------------------------------
  Total      -0.21276     1.12966    -0.96653     3.16912    -0.90156    -2.15700
  in kB      -0.37844     2.00936    -1.71918     5.63700    -1.60363    -3.83670
  external pressure =       -0.03 kB  Pullay stress =        0.00 kB


 VOLUME and BASIS-vectors are now :
 -----------------------------------------------------------------------------
  energy-cutoff  :      520.00
  volume of cell :      900.75
      direct lattice vectors                 reciprocal lattice vectors
     9.657557827  0.000000000  0.000000000     0.103545846  0.000000000  0.000000000
     0.000000000  9.657557827  0.000000000     0.000000000  0.103545846  0.000000000
     0.000000000  0.000000000  9.657557827     0.000000000  0.000000000  0.103545846

  length of vectors
     9.657557827  9.657557827  9.657557827     0.103545846  0.103545846  0.103545846


 FORCES acting on ions
    electron-ion (+dipol)            ewald-force                    non-local-force                 convergence-correction
 -----------------------------------------------------------------------------------------------
   0.597E+01 -.142E+02 -.838E+01   -.688E+01 0.127E+02 0.701E+01   0.910E+00 0.154E+01 0.137E+01   -.114E-03 0.226E-04 0.615E-04
   -.286E+01 0.749E+00 0.600E+01   0.194E+01 0.694E+00 -.502E+01   0.909E+00 -.145E+01 -.981E+00   -.457E-04 -.397E-04 0.546E-04
   0.597E+01 0.461E+01 -.856E+00   -.526E+01 -.517E+01 0.187E+01   -.709E+00 0.560E+00 -.102E+01   -.106E-03 0.199E-04 0.629E-04
   0.185E+01 -.142E+02 0.296E+01   -.136E+01 0.133E+02 -.212E+01   -.489E+00 0.918E+00 -.833E+00   -.927E-04 -.167E-04 0.186E-04
   0.188E+01 0.373E+01 0.124E+01   -.823E+00 -.272E+01 -.206E+01   -.105E+01 -.101E+01 0.823E+00   -.621E-04 -.521E-04 -.112E-03
   -.672E+01 0.156E+02 0.138E+01   0.613E+01 -.145E+02 -.446E+00   0.584E+00 -.109E+01 -.931E+00   0.132E-03 0.398E-04 -.648E-04
   -.242E+01 -.303E+00 0.480E+01   0.148E+01 0.132E+01 -.407E+01   0.936E+00 -.102E+01 -.725E+00   0.288E-05 -.209E-04 -.150E-03
   0.751E+01 0.335E+01 0.358E+01   -.632E+01 -.256E+01 -.443E+01   -.119E+01 -.792E+00 0.861E+00   -.317E-04 -.253E-04 -.534E-04
   0.293E+01 -.569E+01 0.417E+01   -.147E+01 0.474E+01 -.321E+01   -.147E+01 0.948E+00 -.965E+00   0.350E-04 -.311E-04 0.756E-04
   -.363E+01 -.325E+01 0.104E+00   0.214E+01 0.410E+01 0.871E+00   0.150E+01 -.841E+00 -.975E+00   -.293E-05 -.548E-04 -.277E-04
   -.110E+02 -.857E+00 -.989E+01   0.989E+01 -.212E+00 0.846E+01   0.107E+01 0.107E+01 0.144E+01   -.218E-05 0.261E-04 0.632E-04
   0.249E+01 0.190E+01 -.523E+01   -.327E+01 -.162E+01 0.586E+01   0.788E+00 -.279E+00 -.628E+00   -.353E-04 -.113E-03 -.151E-04
   0.541E+01 0.458E+00 0.422E+01   -.609E+01 -.127E+01 -.476E+01   0.673E+00 0.814E+00 0.547E+00   0.363E-04 0.136E-04 0.351E-04
   -.145E+02 0.111E+02 0.939E+01   0.129E+02 -.955E+01 -.863E+01   0.163E+01 -.150E+01 -.753E+00   -.625E-04 0.200E-04 0.363E-04
   0.463E+01 -.795E+01 0.977E+01   -.306E+01 0.638E+01 -.892E+01   -.157E+01 0.158E+01 -.846E+00   -.637E-04 -.359E-04 -.919E-04
   0.949E+01 0.730E+01 0.423E+01   -.819E+01 -.591E+01 -.490E+01   -.130E+01 -.139E+01 0.669E+00   0.919E-04 0.252E-04 -.557E-05
   -.479E+01 -.210E+01 -.225E+01   0.601E+01 0.129E+01 0.300E+01   -.123E+01 0.807E+00 -.751E+00   0.140E-04 0.355E-04 -.116E-04
   0.149E+02 -.249E+01 -.583E+01   -.132E+02 0.357E+01 0.468E+01   -.175E+01 -.108E+01 0.114E+01   0.344E-05 0.765E-04 0.645E-04
   -.419E+01 -.260E+01 -.711E+01   0.505E+01 0.207E+01 0.789E+01   -.861E+00 0.518E+00 -.790E+00   0.371E-04 0.235E-04 -.139E-04
   0.317E+01 0.676E+01 0.773E+01   -.425E+01 -.599E+01 -.671E+01   0.108E+01 -.768E+00 -.103E+01   -.139E-04 -.961E-04 0.929E-04
   -.143E+01 -.116E+02 -.948E+01   0.518E+00 0.107E+02 0.830E+01   0.908E+00 0.884E+00 0.118E+01   0.116E-03 0.559E-04 -.501E-05
   -.426E+01 -.788E+01 -.124E+01   0.362E+01 0.684E+01 -.199E+00   0.638E+00 0.104E+01 0.144E+01   0.388E-04 -.495E-04 0.391E-04
   0.831E+01 0.223E+01 -.418E+00   -.794E+01 -.332E+01 0.109E+01   -.369E+00 0.109E+01 -.680E+00   0.105E-03 0.410E-04 0.812E-06
   -.334E+01 -.509E+00 -.204E+01   0.395E+01 -.717E+00 0.313E+01   -.612E+00 0.123E+01 -.108E+01   -.892E-05 -.513E-04 0.106E-04
   -.771E+01 0.447E+01 0.207E+01   0.755E+01 -.448E+01 -.220E+01   0.167E+00 0.692E-02 0.135E+00   0.691E-04 0.135E-03 -.117E-04
   0.156E+00 -.649E+01 -.981E+01   -.505E-01 0.631E+01 0.968E+01   -.107E+00 0.183E+00 0.130E+00   0.891E-04 -.805E-04 0.490E-04
   -.390E+00 0.923E+01 -.272E+00   0.344E+00 -.936E+01 0.779E+00   0.481E-01 0.138E+00 -.499E+00   -.180E-03 0.194E-04 -.514E-05
   0.244E+01 -.430E+00 0.227E+01   -.286E+01 -.103E+00 -.265E+01   0.422E+00 0.531E+00 0.382E+00   0.205E-04 0.132E-03 0.204E-03
   -.243E+02 0.245E+02 -.604E+02   0.268E+02 -.268E+02 0.646E+02   -.247E+01 0.228E+01 -.424E+01   0.503E-04 0.341E-04 -.997E-04
   -.393E+02 -.461E+02 0.388E+02   0.420E+02 0.497E+02 -.415E+02   -.268E+01 -.354E+01 0.273E+01   -.117E-05 0.199E-05 0.998E-04
   0.196E+02 0.726E+02 0.498E+02   -.204E+02 -.770E+02 -.530E+02   0.807E+00 0.446E+01 0.312E+01   -.317E-03 -.282E-03 -.360E-03
   0.558E+02 -.398E+02 -.331E+02   -.592E+02 0.422E+02 0.358E+02   0.345E+01 -.235E+01 -.271E+01   0.395E-04 0.115E-03 0.723E-04
   0.311E+02 -.458E+02 -.609E+02   -.330E+02 0.491E+02 0.641E+02   0.190E+01 -.335E+01 -.327E+01   -.890E-04 -.294E-04 0.243E-04
   0.487E+02 0.368E+02 0.369E+02   -.523E+02 -.399E+02 -.399E+02   0.352E+01 0.309E+01 0.303E+01   -.148E-03 -.168E-03 -.252E-03
   -.502E+02 -.382E+02 0.283E+02   0.534E+02 0.414E+02 -.304E+02   -.323E+01 -.323E+01 0.211E+01   -.359E-05 0.881E-04 -.129E-03
   -.502E+02 0.392E+02 -.367E+02   0.534E+02 -.422E+02 0.394E+02   -.318E+01 0.302E+01 -.278E+01   -.215E-03 0.149E-03 -.944E-04
   -.292E+02 -.431E+02 0.547E+02   0.315E+02 0.455E+02 -.589E+02   -.229E+01 -.247E+01 0.421E+01   0.328E-03 0.173E-03 -.189E-04
   -.444E+02 0.333E+02 -.416E+02   0.478E+02 -.365E+02 0.442E+02   -.341E+01 0.319E+01 -.260E+01   0.571E-04 -.832E-04 0.682E-05
   0.318E+02 -.413E+02 -.455E+02   -.346E+02 0.450E+02 0.488E+02   0.287E+01 -.363E+01 -.330E+01   0.142E-03 -.898E-04 -.709E-04
   0.531E+02 0.465E+02 0.165E+02   -.567E+02 -.497E+02 -.184E+02   0.354E+01 0.320E+01 0.196E+01   0.839E-04 -.181E-03 -.684E-04
   -.601E+02 -.254E+02 0.352E+02   0.641E+02 0.279E+02 -.381E+02   -.396E+01 -.253E+01 0.289E+01   -.150E-04 0.128E-03 -.555E-04
   -.381E+02 0.470E+02 -.383E+02   0.407E+02 -.506E+02 0.412E+02   -.263E+01 0.357E+01 -.291E+01   0.279E-03 0.574E-04 0.195E-03
   0.284E+02 -.227E+02 -.522E+02   -.311E+02 0.255E+02 0.560E+02   0.271E+01 -.278E+01 -.382E+01   0.378E-04 0.101E-03 0.709E-04
   0.392E+02 0.332E+02 0.528E+02   -.427E+02 -.355E+02 -.562E+02   0.344E+01 0.229E+01 0.340E+01   0.987E-04 0.900E-04 0.321E-04
   -.958E+00 0.596E+01 -.128E+02   0.102E+01 -.605E+01 0.132E+02   -.608E-01 0.873E-01 -.361E+00   -.396E-04 -.128E-03 0.161E-03
   0.352E+01 0.338E+01 -.189E+02   -.359E+01 -.351E+01 0.192E+02   0.601E-01 0.128E+00 -.311E+00   -.519E-04 0.901E-04 -.861E-05
   0.524E+01 0.982E+01 0.120E+00   -.538E+01 -.101E+02 -.133E+00   0.138E+00 0.238E+00 0.778E-02   0.147E-03 0.196E-04 0.935E-04
   -.544E+01 -.128E+01 -.200E+02   0.551E+01 0.131E+01 0.204E+02   -.692E-01 -.294E-01 -.331E+00   -.161E-03 -.855E-05 -.890E-04
   -.127E+02 0.164E+01 0.217E+02   0.129E+02 -.145E+01 -.222E+02   -.232E+00 -.189E+00 0.506E+00   -.388E-03 0.274E-04 -.236E-03
   0.215E+02 -.143E+02 0.432E+02   -.218E+02 0.146E+02 -.438E+02   0.292E+00 -.296E+00 0.597E+00   -.109E-03 -.717E-04 0.173E-03
   -.984E+01 -.316E+02 0.227E+02   0.983E+01 0.319E+02 -.230E+02   0.816E-02 -.306E+00 0.296E+00   -.250E-05 -.367E-03 -.185E-04
   0.185E+02 0.147E+01 0.232E+02   -.186E+02 -.150E+01 -.237E+02   0.134E+00 0.216E-01 0.483E+00   0.154E-03 0.234E-03 -.154E-03
 -----------------------------------------------------------------------------------------------
   0.177E+01 -.351E+01 0.466E+01   -.160E-12 -.171E-13 0.462E-13   -.178E+01 0.350E+01 -.466E+01   -.153E-03 -.805E-04 -.426E-03
 
 
 POSITION                                       TOTAL-FORCE (eV/Angst)
 -----------------------------------------------------------------------------------
      9.25534      3.06008      3.19703         0.000092     -0.000091      0.000043
      9.60258      6.77393      6.72310        -0.000002     -0.000073     -0.000311
      0.27606      2.66290      6.60448        -0.000031     -0.000015      0.000113
      0.70671      7.60586      0.76379         0.000472      0.000001     -0.000786
      1.75557      1.83559      9.40834         0.000162      0.000098      0.000157
      3.32919      6.26569      0.46005        -0.000136     -0.000505      0.000199
      7.68642      2.07741      0.19558        -0.000158     -0.000075     -0.000049
      6.71037      6.55046      9.34346         0.000008      0.000005     -0.000030
      1.92743      9.54670      2.17194        -0.000570      0.000081      0.000022
      3.10935      0.25253      7.05394         0.000145      0.000071      0.000313
      8.03497      9.28729      7.97436         0.000050     -0.000099      0.000040
      7.96466      0.19823      2.07394         0.000155     -0.000029      0.000079
      2.65495      7.72823      4.65500        -0.000126      0.000085      0.000024
      3.18355      2.07914      5.07676         0.000581     -0.000055      0.000118
      7.02599      7.94265      5.05946         0.000011      0.000122      0.000029
      6.43254      1.65226      4.51346         0.000017     -0.000039     -0.000107
      2.06251      4.63022      6.77172         0.000118     -0.000045     -0.000440
      1.62858      5.29408      3.10638        -0.000328      0.000161     -0.000111
      6.89811      4.65358      2.02432         0.000107      0.000016     -0.000072
      7.62809      4.98024      6.46869        -0.000201      0.000065     -0.000320
      4.61827      3.14479      8.04913        -0.000073      0.000009      0.000029
      4.69673      7.84145      2.88979        -0.000015     -0.000027      0.000002
      4.96994      2.93129      1.82605        -0.000107     -0.000051      0.000139
      5.17690      7.76053      6.93595         0.000072      0.000280      0.000117
      4.83098      4.89317      4.81672        -0.000042      0.000065     -0.000026
      4.89863      9.59396      0.06653        -0.000084     -0.000110      0.000142
      0.04398      4.78999      0.02081        -0.000110      0.000017     -0.000166
      0.04732      0.01137      4.91747         0.000140      0.000065      0.000213
      1.22993      8.67097      6.27591         0.000182      0.000003      0.000516
      1.19761      1.35839      3.86489         0.000197      0.000173      0.000276
      8.86022      8.32475      3.64937         0.000094     -0.000233     -0.000014
      8.28629      1.04989      5.98452        -0.000269      0.000217      0.000327
      8.57444      6.04932      1.18324         0.000061      0.000336      0.000043
      8.56510      3.67430      8.38839        -0.000576     -0.000245     -0.000279
      1.32366      6.01059      8.60566         0.000181     -0.000124     -0.000284
      1.12950      3.61703      1.29863        -0.000151      0.000117      0.000023
      5.99701      1.08176      8.42057        -0.000026      0.000029     -0.000277
      6.19115      8.46788      1.19237         0.000271     -0.000151      0.000228
      3.66216      1.13989      1.18522        -0.000108     -0.000037      0.000309
      3.69750      8.29957      8.67647        -0.000197     -0.000325      0.000013
      6.14095      6.06945      3.76554         0.000321      0.000118     -0.000187
      5.85414      3.51587      5.95387        -0.000013     -0.000274      0.000051
      3.71831      6.09488      6.05291        -0.000051      0.000301      0.000127
      3.58136      3.86442      3.56035        -0.000257      0.000058     -0.000051
      7.38088      7.17865      7.21774         0.000006      0.000007     -0.000087
      7.17291      2.38264      2.42895         0.000096     -0.000024     -0.000135
      2.48120      7.32870      2.38487        -0.000037      0.000056     -0.000039
      2.49886      2.44619      7.29192        -0.000039      0.000033      0.000040
      9.60565      0.17527      0.21451         0.000072      0.000015      0.000086
      0.14701      4.75851      5.14608         0.000007     -0.000010     -0.000002
      4.75255      9.43757      4.97601         0.000003      0.000028      0.000036
      5.13505      4.74006      0.18623         0.000091      0.000006     -0.000079
 -----------------------------------------------------------------------------------
    total drift:                               -0.009145     -0.012447     -0.001702


--------------------------------------------------------------------------------------------------------



  FREE ENERGIE OF THE ION-ELECTRON SYSTEM (eV)
  ---------------------------------------------------
  free  energy   TOTEN  =      -272.23960637 eV

  energy  without entropy=     -272.23960637  energy(sigma->0) =     -272.23960637
 
 d Force = 0.2514990E-06[ 0.241E-06, 0.262E-06]  d Energy = 0.6348465E-06-0.383E-06
 d Force =-0.3295462E-02[-0.330E-02,-0.330E-02]  d Ewald  =-0.3295462E-02-0.182E-11


--------------------------------------------------------------------------------------------------------


    POTLOK:  cpu time      0.4566: real time      0.4581


--------------------------------------------------------------------------------------------------------


 stress matrix after NEB project (eV)
     -0.21276      3.16912     -2.15700
      3.16912      1.12966     -0.90156
     -2.15700     -0.90156     -0.96653
  FORCES: max atom, RMS     0.000917    0.000327
  FORCE total and by dimension    0.002357    0.000786
  Stress total and by dimension    5.768290    3.169124


--------------------------------------------------------------------------------------------------------


  
 reached required accuracy - stopping structural energy minimisation
     LOOP+:  cpu time      7.3478: real time      7.4196
    4ORBIT:  cpu time      0.0000: real time      0.0000

 total amount of memory used by VASP MPI-rank0    48197. kBytes
=======================================================================

   base      :      30000. kBytes
   nonlr-proj:       6537. kBytes
   fftplans  :       1747. kBytes
   grid      :       5278. kBytes
   one-center:         62. kBytes
   wavefun   :       4573. kBytes
 
  
  
 General timing and accounting informations for this job:
 ========================================================
  
                  Total CPU time used (sec):      109.357
                            User time (sec):      108.167
                          System time (sec):        1.189
                         Elapsed time (sec):      113.502
  
                   Maximum memory used (kb):      383984.
                   Average memory used (kb):          N/A
  
                          Minor page faults:        60930
                          Major page faults:          137
                 Voluntary context switches:         4312
