<?xml version="1.0" encoding="ISO-8859-1"?>
<modeling>
 <generator>
  <i name="program" type="string">vasp </i>
  <i name="version" type="string">6.4.1  </i>
  <i name="subversion" type="string">05Apr23 (build Jun 07 2023 15:38:11) complex                          parallel </i>
  <i name="platform" type="string">LinuxIFC </i>
  <i name="date" type="string">2023 10 23 </i>
  <i name="time" type="string">15:06:32 </i>
 </generator>
 <incar>
  <i type="string" name="PREC">Accu</i>
  <i type="string" name="ALGO">F</i>
  <i type="logical" name="LDIAG"> T  </i>
  <i type="int" name="ISPIN">     2</i>
  <i type="int" name="NELM">   100</i>
  <i type="int" name="NELMDL">   -10</i>
  <i type="int" name="IBRION">     2</i>
  <i name="EDIFF">      0.00000100</i>
  <i name="EDIFFG">     -0.00100000</i>
  <i type="int" name="NSW">  1000</i>
  <i type="int" name="ISIF">     2</i>
  <i name="ENCUT">    520.00000000</i>
  <i name="POTIM">      0.20000000</i>
  <i type="string" name="LREAL">Auto</i>
  <i type="logical" name="LPLANE"> T  </i>
  <i type="int" name="ISMEAR">     0</i>
  <i name="SIGMA">      0.03000000</i>
  <i type="int" name="LMAXMIX">     4</i>
  <i type="logical" name="LWAVE"> F  </i>
  <i type="logical" name="LCHARG"> F  </i>
  <i type="logical" name="LASPH"> T  </i>
  <i type="string" name="GGA">PE</i>
  <i type="int" name="IVDW">    12</i>
 </incar>
 <primitive_cell>
  <structure name="primitive_cell" >
   <crystal>
    <varray name="basis" >
     <v>       9.65755783       0.00000000       0.00000000 </v>
     <v>       0.00000000       9.65755783       0.00000000 </v>
     <v>       0.00000000       0.00000000       9.65755783 </v>
    </varray>
    <i name="volume">    900.74519025 </i>
    <varray name="rec_basis" >
     <v>       0.10354585       0.00000000       0.00000000 </v>
     <v>       0.00000000       0.10354585       0.00000000 </v>
     <v>       0.00000000       0.00000000       0.10354585 </v>
    </varray>
   </crystal>
   <varray name="positions" >
    <v>       0.95835188       0.31686100       0.33103706 </v>
    <v>       0.99430832       0.70141390       0.69615632 </v>
    <v>       0.02858671       0.27573300       0.68386275 </v>
    <v>       0.07316710       0.78755544       0.07910427 </v>
    <v>       0.18177764       0.19006523       0.97419197 </v>
    <v>       0.34472663       0.64879661       0.04763168 </v>
    <v>       0.79590232       0.21510940       0.02025391 </v>
    <v>       0.69483072       0.67827263       0.96747802 </v>
    <v>       0.19959020       0.98852094       0.22489589 </v>
    <v>       0.32195688       0.02614656       0.73039932 </v>
    <v>       0.83198586       0.96166382       0.82571127 </v>
    <v>       0.82470284       0.02052821       0.21474500 </v>
    <v>       0.27491336       0.80022336       0.48200591 </v>
    <v>       0.32962986       0.21528766       0.52567425 </v>
    <v>       0.72751006       0.82242414       0.52388712 </v>
    <v>       0.66606223       0.17108661       0.46735390 </v>
    <v>       0.21356169       0.47944075       0.70119314 </v>
    <v>       0.16864077       0.54817520       0.32165477 </v>
    <v>       0.71426643       0.48185789       0.20961410 </v>
    <v>       0.78986174       0.51568178       0.66981263 </v>
    <v>       0.47820409       0.32562968       0.83345342 </v>
    <v>       0.48632662       0.81195077       0.29922670 </v>
    <v>       0.51461819       0.30352395       0.18907627 </v>
    <v>       0.53604484       0.80356456       0.71818615 </v>
    <v>       0.50022986       0.50666742       0.49875329 </v>
    <v>       0.50723535       0.99341603       0.00688526 </v>
    <v>       0.00455325       0.49598296       0.00215035 </v>
    <v>       0.00489577       0.00117105       0.50917392 </v>
    <v>       0.12735668       0.89783949       0.64983945 </v>
    <v>       0.12400715       0.14065769       0.40018194 </v>
    <v>       0.91743053       0.86198975       0.37786835 </v>
    <v>       0.85801249       0.10871385       0.61967096 </v>
    <v>       0.88784415       0.62637750       0.12252450 </v>
    <v>       0.88688439       0.38045507       0.86858280 </v>
    <v>       0.13706187       0.62238108       0.89108471 </v>
    <v>       0.11696130       0.37452411       0.13447445 </v>
    <v>       0.62097228       0.11201746       0.87191542 </v>
    <v>       0.64106910       0.87681080       0.12346636 </v>
    <v>       0.37919895       0.11803905       0.12272239 </v>
    <v>       0.38285948       0.85938825       0.89840562 </v>
    <v>       0.63586929       0.62846968       0.38990308 </v>
    <v>       0.60617717       0.36405412       0.61650305 </v>
    <v>       0.38501000       0.63109826       0.62675594 </v>
    <v>       0.37083574       0.40013826       0.36865529 </v>
    <v>       0.76425915       0.74331964       0.74736964 </v>
    <v>       0.74272368       0.24671335       0.25151008 </v>
    <v>       0.25691873       0.75885413       0.24694440 </v>
    <v>       0.25874748       0.25329194       0.75504740 </v>
    <v>       0.99462144       0.01814717       0.02221163 </v>
    <v>       0.01522495       0.49272470       0.53285841 </v>
    <v>       0.49210550       0.97721668       0.51524576 </v>
    <v>       0.53171239       0.49081746       0.01928353 </v>
   </varray>
  </structure>
  <varray name="primitive_index" >
   <v type="int" >        1 </v>
   <v type="int" >        2 </v>
   <v type="int" >        3 </v>
   <v type="int" >        4 </v>
   <v type="int" >        5 </v>
   <v type="int" >        6 </v>
   <v type="int" >        7 </v>
   <v type="int" >        8 </v>
   <v type="int" >        9 </v>
   <v type="int" >       10 </v>
   <v type="int" >       11 </v>
   <v type="int" >       12 </v>
   <v type="int" >       13 </v>
   <v type="int" >       14 </v>
   <v type="int" >       15 </v>
   <v type="int" >       16 </v>
   <v type="int" >       17 </v>
   <v type="int" >       18 </v>
   <v type="int" >       19 </v>
   <v type="int" >       20 </v>
   <v type="int" >       21 </v>
   <v type="int" >       22 </v>
   <v type="int" >       23 </v>
   <v type="int" >       24 </v>
   <v type="int" >       25 </v>
   <v type="int" >       26 </v>
   <v type="int" >       27 </v>
   <v type="int" >       28 </v>
   <v type="int" >       29 </v>
   <v type="int" >       30 </v>
   <v type="int" >       31 </v>
   <v type="int" >       32 </v>
   <v type="int" >       33 </v>
   <v type="int" >       34 </v>
   <v type="int" >       35 </v>
   <v type="int" >       36 </v>
   <v type="int" >       37 </v>
   <v type="int" >       38 </v>
   <v type="int" >       39 </v>
   <v type="int" >       40 </v>
   <v type="int" >       41 </v>
   <v type="int" >       42 </v>
   <v type="int" >       43 </v>
   <v type="int" >       44 </v>
   <v type="int" >       45 </v>
   <v type="int" >       46 </v>
   <v type="int" >       47 </v>
   <v type="int" >       48 </v>
   <v type="int" >       49 </v>
   <v type="int" >       50 </v>
   <v type="int" >       51 </v>
   <v type="int" >       52 </v>
  </varray>
 </primitive_cell>
 <kpoints>
  <generation param="Monkhorst-Pack">
   <v type="int" name="divisions">       2        2        2 </v>
   <v name="usershift">      0.00000000       0.00000000       0.00000000 </v>
   <v name="genvec1">      0.50000000       0.00000000       0.00000000 </v>
   <v name="genvec2">      0.00000000       0.50000000       0.00000000 </v>
   <v name="genvec3">      0.00000000       0.00000000       0.50000000 </v>
   <v name="shift">      0.50000000       0.50000000       0.50000000 </v>
  </generation>
  <varray name="kpointlist" >
   <v>       0.25000000       0.25000000       0.25000000 </v>
   <v>      -0.25000000       0.25000000       0.25000000 </v>
   <v>      -0.25000000      -0.25000000       0.25000000 </v>
   <v>       0.25000000      -0.25000000       0.25000000 </v>
  </varray>
  <varray name="weights" >
   <v>       0.25000000 </v>
   <v>       0.25000000 </v>
   <v>       0.25000000 </v>
   <v>       0.25000000 </v>
  </varray>
 </kpoints>
 <parameters>
  <separator name="general" >
   <i type="string" name="SYSTEM">unknown system</i>
   <i type="logical" name="LCOMPAT"> F  </i>
  </separator>
  <separator name="electronic" >
   <i type="string" name="PREC">accu</i>
   <i name="ENMAX">    520.00000000</i>
   <i name="ENAUG">   1041.69900000</i>
   <i name="EDIFF">      0.00000100</i>
   <i type="int" name="IALGO">    68</i>
   <i type="int" name="IWAVPR">    11</i>
   <i type="int" name="NBANDS">   176</i>
   <i type="int" name="NBANDSLOW">    -1</i>
   <i type="int" name="NBANDSHIGH">    -1</i>
   <i name="NELECT">    240.00000000</i>
   <i type="int" name="TURBO">     0</i>
   <i type="int" name="IRESTART">     0</i>
   <i type="int" name="NREBOOT">     0</i>
   <i type="int" name="NMIN">     0</i>
   <i name="EREF">      0.00000000</i>
   <separator name="electronic smearing" >
    <i type="int" name="ISMEAR">     0</i>
    <i name="SIGMA">      0.03000000</i>
    <i name="KSPACING">      0.50000000</i>
    <i type="logical" name="KGAMMA"> T  </i>
    <i type="logical" name="KBLOWUP"> T  </i>
   </separator>
   <separator name="electronic projectors" >
    <i type="logical" name="LREAL"> T  </i>
    <v name="ROPT">     -0.00025000     -0.00025000     -0.00025000     -0.00025000</v>
    <i type="int" name="LMAXPAW">  -100</i>
    <i type="int" name="LMAXMIX">     4</i>
    <i type="logical" name="NLSPLINE"> F  </i>
   </separator>
   <separator name="electronic startup" >
    <i type="int" name="ISTART">     0</i>
    <i type="int" name="ICHARG">     2</i>
    <i type="int" name="INIWAV">     1</i>
   </separator>
   <separator name="electronic spin" >
    <i type="int" name="ISPIN">     2</i>
    <i type="logical" name="LNONCOLLINEAR"> F  </i>
    <v name="MAGMOM">      1.00000000      1.00000000      1.00000000      1.00000000      1.00000000      1.00000000      1.00000000      1.00000000      1.00000000      1.00000000      1.00000000      1.00000000      1.00000000      1.00000000      1.00000000      1.00000000      1.00000000      1.00000000      1.00000000      1.00000000
      1.00000000      1.00000000      1.00000000      1.00000000      1.00000000      1.00000000      1.00000000      1.00000000      1.00000000      1.00000000      1.00000000      1.00000000      1.00000000      1.00000000      1.00000000      1.00000000      1.00000000      1.00000000      1.00000000      1.00000000
      1.00000000      1.00000000      1.00000000      1.00000000      1.00000000      1.00000000      1.00000000      1.00000000      1.00000000      1.00000000      1.00000000      1.00000000</v>
    <i name="NUPDOWN">     -1.00000000</i>
    <i type="logical" name="LSORBIT"> F  </i>
    <v name="SAXIS">      0.00000000      0.00000000      1.00000000</v>
    <i type="logical" name="LSPIRAL"> F  </i>
    <v name="QSPIRAL">      0.00000000      0.00000000      0.00000000</v>
    <i type="logical" name="LZEROZ"> F  </i>
   </separator>
   <separator name="electronic exchange-correlation" >
    <i type="logical" name="LASPH"> T  </i>
    <i type="logical" name="LMETAGGA"> F  </i>
   </separator>
   <separator name="electronic convergence" >
    <i type="int" name="NELM">   100</i>
    <i type="int" name="NELMDL">   -10</i>
    <i type="int" name="NELMIN">     2</i>
    <i name="ENINI">    520.00000000</i>
    <separator name="electronic convergence detail" >
     <i type="logical" name="LDIAG"> T  </i>
     <i type="logical" name="LSUBROT"> F  </i>
     <i name="WEIMIN">      0.00100000</i>
     <i name="EBREAK">      0.00000000</i>
     <i name="DEPER">      0.30000000</i>
     <i type="int" name="NRMM">     4</i>
     <i name="TIME">      0.40000000</i>
    </separator>
   </separator>
   <separator name="electronic mixer" >
    <i name="AMIX">      0.40000000</i>
    <i name="BMIX">      1.00000000</i>
    <i name="AMIN">      0.10000000</i>
    <i name="AMIX_MAG">      1.60000000</i>
    <i name="BMIX_MAG">      1.00000000</i>
    <separator name="electronic mixer details" >
     <i type="int" name="IMIX">     4</i>
     <i type="logical" name="MIXFIRST"> F  </i>
     <i type="int" name="MAXMIX">   -45</i>
     <i name="WC">    100.00000000</i>
     <i type="int" name="INIMIX">     1</i>
     <i type="int" name="MIXPRE">     1</i>
     <i type="int" name="MREMOVE">     5</i>
    </separator>
   </separator>
   <separator name="electronic dipolcorrection" >
    <i type="logical" name="LDIPOL"> F  </i>
    <i type="logical" name="LMONO"> F  </i>
    <i type="int" name="IDIPOL">     0</i>
    <i name="EPSILON">      1.00000000</i>
    <v name="DIPOL">   -100.00000000   -100.00000000   -100.00000000</v>
    <i name="EFIELD">      0.00000000</i>
   </separator>
  </separator>
  <separator name="grids" >
   <i type="int" name="NGX">    72</i>
   <i type="int" name="NGY">    72</i>
   <i type="int" name="NGZ">    72</i>
   <i type="int" name="NGXF">   144</i>
   <i type="int" name="NGYF">   144</i>
   <i type="int" name="NGZF">   144</i>
   <i type="logical" name="ADDGRID"> F  </i>
  </separator>
  <separator name="ionic" >
   <i type="int" name="NSW">  1000</i>
   <i type="int" name="IBRION">     2</i>
   <i type="int" name="MDALGO">     0</i>
   <i type="int" name="ISIF">     2</i>
   <i name="PSTRESS">      0.00000000</i>
   <i name="EDIFFG">     -0.00100000</i>
   <i type="int" name="NFREE">     1</i>
   <i name="POTIM">      0.20000000</i>
   <i name="SMASS">     -3.00000000</i>
   <i name="SCALEE">      1.00000000</i>
  </separator>
  <separator name="ionic md" >
   <i name="TEBEG">      0.00010000</i>
   <i name="TEEND">      0.00010000</i>
   <i type="int" name="NBLOCK">     1</i>
   <i type="int" name="KBLOCK">  1000</i>
   <i type="int" name="NPACO">   256</i>
   <i name="APACO">     10.00000000</i>
  </separator>
  <separator name="symmetry" >
   <i type="int" name="ISYM">     2</i>
   <i name="SYMPREC">      0.00001000</i>
  </separator>
  <separator name="dos" >
   <i type="int" name="LORBIT">     0</i>
   <v name="RWIGS">     -1.00000000     -1.00000000     -1.00000000     -1.00000000</v>
   <i type="int" name="NEDOS">   301</i>
   <i name="EMIN">     10.00000000</i>
   <i name="EMAX">    -10.00000000</i>
   <i name="EFERMI">      0.00000000</i>
  </separator>
  <separator name="writing" >
   <i type="int" name="NWRITE">     2</i>
   <i type="logical" name="LWAVE"> F  </i>
   <i type="logical" name="LDOWNSAMPLE"> F  </i>
   <i type="logical" name="LCHARG"> F  </i>
   <i type="logical" name="LPARD"> F  </i>
   <i type="logical" name="LVTOT"> F  </i>
   <i type="logical" name="LVHAR"> F  </i>
   <i type="logical" name="LELF"> F  </i>
   <i type="logical" name="LOPTICS"> F  </i>
   <v name="STM">      0.00000000      0.00000000      0.00000000      0.00000000      0.00000000      0.00000000      0.00000000</v>
  </separator>
  <separator name="performance" >
   <i type="int" name="NPAR">     4</i>
   <i type="int" name="NSIM">     4</i>
   <i type="int" name="NBLK">    -1</i>
   <i type="logical" name="LPLANE"> T  </i>
   <i type="logical" name="LSCALAPACK"> T  </i>
   <i type="logical" name="LSCAAWARE"> F  </i>
   <i type="logical" name="LSCALU"> F  </i>
   <i type="logical" name="LASYNC"> F  </i>
   <i type="logical" name="LORBITALREAL"> F  </i>
  </separator>
  <separator name="miscellaneous" >
   <i type="int" name="IDIOT">     3</i>
   <i type="int" name="PHON_NSTRUCT">    -1</i>
   <i type="logical" name="LMUSIC"> F  </i>
   <v name="POMASS">      7.01000000     30.97400000     32.06600000     35.45300000</v>
   <v name="DARWINR">      0.00000000      0.00000000      0.00000000      0.00000000</v>
   <v name="DARWINV">      1.00000000      1.00000000      1.00000000      1.00000000</v>
   <i type="logical" name="LCORR"> T  </i>
  </separator>
  <i type="logical" name="GGA_COMPAT"> T  </i>
  <i type="logical" name="LBERRY"> F  </i>
  <i type="int" name="ICORELEVEL">     0</i>
  <i type="logical" name="LDAU"> F  </i>
  <i type="int" name="I_CONSTRAINED_M">     0</i>
  <separator name="electronic exchange-correlation" >
   <i type="string" name="GGA">PE</i>
   <i type="int" name="VOSKOWN">     0</i>
   <i type="logical" name="LHFCALC"> F  </i>
   <i type="string" name="PRECFOCK"></i>
   <i type="logical" name="LSYMGRAD"> F  </i>
   <i type="logical" name="LHFONE"> F  </i>
   <i type="logical" name="LRHFCALC"> F  </i>
   <i type="logical" name="LTHOMAS"> F  </i>
   <i type="logical" name="LMODELHF"> F  </i>
   <i type="logical" name="LFOCKACE"> F  </i>
   <i name="ENCUT4O">     -1.00000000</i>
   <i type="int" name="EXXOEP">     0</i>
   <i type="int" name="FOURORBIT">     0</i>
   <i name="AEXX">      0.00000000</i>
   <i name="HFALPHA">      0.00000000</i>
   <i name="MCALPHA">      0.00000000</i>
   <i name="ALDAX">      1.00000000</i>
   <i name="AGGAX">      1.00000000</i>
   <i name="ALDAC">      1.00000000</i>
   <i name="AGGAC">      1.00000000</i>
   <i type="int" name="NKREDX">     1</i>
   <i type="int" name="NKREDY">     1</i>
   <i type="int" name="NKREDZ">     1</i>
   <i type="logical" name="SHIFTRED"> F  </i>
   <i type="logical" name="ODDONLY"> F  </i>
   <i type="logical" name="EVENONLY"> F  </i>
   <i type="int" name="LMAXFOCK">     0</i>
   <i type="int" name="NMAXFOCKAE">     0</i>
   <i type="logical" name="LFOCKAEDFT"> F  </i>
   <i name="HFSCREEN">      0.00000000</i>
   <i name="HFSCREENC">      0.00000000</i>
   <i type="int" name="NBANDSGWLOW">     0</i>
  </separator>
  <separator name="vdW DFT" >
   <i type="logical" name="LUSE_VDW"> F  </i>
   <i type="int" name="IVDW_NL">     1</i>
   <i type="logical" name="LSPIN_VDW"> F  </i>
   <i name="Zab_VDW">     -0.84910000</i>
   <i name="PARAM1">      0.12340000</i>
   <i name="PARAM2">      1.00000000</i>
   <i name="PARAM3">      0.00000000</i>
  </separator>
  <separator name="model GW" >
   <i type="int" name="MODEL_GW">     0</i>
   <i name="MODEL_EPS0">     10.39321373</i>
   <i name="MODEL_ALPHA">      1.00000000</i>
  </separator>
  <separator name="linear response parameters" >
   <i type="logical" name="LEPSILON"> F  </i>
   <i type="logical" name="LRPA"> F  </i>
   <i type="logical" name="LNABLA"> F  </i>
   <i type="logical" name="LVEL"> F  </i>
   <i name="CSHIFT">      0.10000000</i>
   <i name="OMEGAMAX">     -1.00000000</i>
   <i name="DEG_THRESHOLD">      0.00200000</i>
   <i name="RTIME">     -0.10000000</i>
   <i name="WPLASMAI">      0.00000000</i>
   <v name="DFIELD">      0.00000000      0.00000000      0.00000000</v>
   <v name="WPLASMA">      0.00000000      0.00000000      0.00000000      0.00000000      0.00000000      0.00000000      0.00000000      0.00000000      0.00000000</v>
  </separator>
  <separator name="orbital magnetization" >
   <i type="logical" name="NUCIND"> F  </i>
   <v name="MAGPOS">      0.00000000      0.00000000      0.00000000</v>
   <i type="logical" name="LNICSALL"> T  </i>
   <i type="logical" name="ORBITALMAG"> F  </i>
   <i type="logical" name="LMAGBLOCH"> F  </i>
   <i type="logical" name="LCHIMAG"> F  </i>
   <i type="logical" name="LGAUGE"> T  </i>
   <i type="int" name="MAGATOM">     0</i>
   <v name="MAGDIPOL">      0.00000000      0.00000000      0.00000000</v>
   <v name="AVECCONST">      0.00000000      0.00000000      0.00000000</v>
  </separator>
  <separator name="response functions" >
   <i type="logical" name="LALL_IN_ONE"> F  </i>
   <i type="int" name="IALL_IN_ONE">    -1</i>
   <i type="int" name="NBANDS_WAVE">    -1</i>
   <i type="logical" name="LFINITE_TEMPERATURE"> F  </i>
   <i type="logical" name="LADDER"> F  </i>
   <i type="logical" name="LRPAFORCE"> F  </i>
   <i type="logical" name="LFXC"> F  </i>
   <i type="logical" name="LHARTREE"> T  </i>
   <i type="int" name="IBSE">     0</i>
   <v type="int" name="KPOINT">    -1     0     0     0</v>
   <i type="logical" name="LTCTC"> F  </i>
   <i type="logical" name="LTCTE"> F  </i>
   <i type="logical" name="LTETE"> F  </i>
   <i type="logical" name="LTRIPLET"> F  </i>
   <i type="logical" name="LFXCEPS"> F  </i>
   <i type="logical" name="LFXHEG"> F  </i>
   <i type="int" name="NATURALO">     2</i>
   <i type="logical" name="LHOLEGF"> F  </i>
   <i type="logical" name="L2ORDER"> F  </i>
   <i type="logical" name="LDMP1"> F  </i>
   <i type="logical" name="LMP2LT"> F  </i>
   <i type="logical" name="LSMP2LT"> F  </i>
   <i type="logical" name="LGWLF"> F  </i>
   <i name="ENCUTGW">     -1.60000002</i>
   <i name="ENCUTGWSOFT">     -1.60000002</i>
   <i name="ENCUTLF">     -1.00000000</i>
   <i type="logical" name="LESF_SPLINES"> F  </i>
   <i type="int" name="LMAXMP2">    -1</i>
   <i name="SCISSOR">      0.00000000</i>
   <i type="int" name="NOMEGA">     0</i>
   <i type="int" name="NOMEGAR">     0</i>
   <i type="int" name="NBANDSGW">    -1</i>
   <i type="int" name="NBANDSO">    -1</i>
   <i type="int" name="NBANDSV">    -1</i>
   <i type="int" name="NELMGW">     1</i>
   <i type="int" name="NELMHF">     1</i>
   <i type="int" name="DIM">     3</i>
   <i type="int" name="IESPILON">     4</i>
   <i type="int" name="ANTIRES">     0</i>
   <i name="OMEGAMAX">    -30.00000000</i>
   <i name="OMEGAMIN">    -30.00000000</i>
   <i name="OMEGATL">   -200.00000000</i>
   <i type="int" name="OMEGAGRID">     0</i>
   <i name="CSHIFT">     -0.10000000</i>
   <i type="logical" name="LSELFENERGY"> F  </i>
   <i type="logical" name="LSPECTRAL"> F  </i>
   <i type="logical" name="LSPECTRALGW"> F  </i>
   <i type="logical" name="LSINGLES"> F  </i>
   <i type="logical" name="LFERMIGW"> F  </i>
   <i type="logical" name="ODDONLYGW"> F  </i>
   <i type="logical" name="EVENONLYGW"> F  </i>
   <i type="int" name="NKREDLFX">     1</i>
   <i type="int" name="NKREDLFY">     1</i>
   <i type="int" name="NKREDLFZ">     1</i>
   <i type="int" name="MAXMEM">  2800</i>
   <i type="int" name="TELESCOPE">     0</i>
   <i type="int" name="NTAUPAR">    -1</i>
   <i type="int" name="NOMEGAPAR">    -1</i>
   <i name="DAMP_NEWTON">      0.80000001</i>
   <i name="LAMBDA">      1.00000000</i>
  </separator>
  <separator name="External order field" >
   <i name="OFIELD_KAPPA">      0.00000000</i>
   <v name="OFIELD_K">      0.00000000      0.00000000      0.00000000</v>
   <i name="OFIELD_Q6_NEAR">      0.00000000</i>
   <i name="OFIELD_Q6_FAR">      0.00000000</i>
   <i name="OFIELD_A">      0.00000000</i>
  </separator>
  <separator name="optional k-points parameters" >
   <i type="int" name="KPOINTS_OPT_MODE">     1</i>
   <i type="logical" name="LKPOINTS_OPT"> F  </i>
  </separator>
 </parameters>
 <atominfo>
  <atoms>      52 </atoms>
  <types>       4 </types>
  <array name="atoms" >
   <dimension dim="1">ion</dimension>
   <field type="string">element</field>
   <field type="int">atomtype</field>
   <set>
    <rc><c>Li</c><c>   1</c></rc>
    <rc><c>Li</c><c>   1</c></rc>
    <rc><c>Li</c><c>   1</c></rc>
    <rc><c>Li</c><c>   1</c></rc>
    <rc><c>Li</c><c>   1</c></rc>
    <rc><c>Li</c><c>   1</c></rc>
    <rc><c>Li</c><c>   1</c></rc>
    <rc><c>Li</c><c>   1</c></rc>
    <rc><c>Li</c><c>   1</c></rc>
    <rc><c>Li</c><c>   1</c></rc>
    <rc><c>Li</c><c>   1</c></rc>
    <rc><c>Li</c><c>   1</c></rc>
    <rc><c>Li</c><c>   1</c></rc>
    <rc><c>Li</c><c>   1</c></rc>
    <rc><c>Li</c><c>   1</c></rc>
    <rc><c>Li</c><c>   1</c></rc>
    <rc><c>Li</c><c>   1</c></rc>
    <rc><c>Li</c><c>   1</c></rc>
    <rc><c>Li</c><c>   1</c></rc>
    <rc><c>Li</c><c>   1</c></rc>
    <rc><c>Li</c><c>   1</c></rc>
    <rc><c>Li</c><c>   1</c></rc>
    <rc><c>Li</c><c>   1</c></rc>
    <rc><c>Li</c><c>   1</c></rc>
    <rc><c>P </c><c>   2</c></rc>
    <rc><c>P </c><c>   2</c></rc>
    <rc><c>P </c><c>   2</c></rc>
    <rc><c>P </c><c>   2</c></rc>
    <rc><c>S </c><c>   3</c></rc>
    <rc><c>S </c><c>   3</c></rc>
    <rc><c>S </c><c>   3</c></rc>
    <rc><c>S </c><c>   3</c></rc>
    <rc><c>S </c><c>   3</c></rc>
    <rc><c>S </c><c>   3</c></rc>
    <rc><c>S </c><c>   3</c></rc>
    <rc><c>S </c><c>   3</c></rc>
    <rc><c>S </c><c>   3</c></rc>
    <rc><c>S </c><c>   3</c></rc>
    <rc><c>S </c><c>   3</c></rc>
    <rc><c>S </c><c>   3</c></rc>
    <rc><c>S </c><c>   3</c></rc>
    <rc><c>S </c><c>   3</c></rc>
    <rc><c>S </c><c>   3</c></rc>
    <rc><c>S </c><c>   3</c></rc>
    <rc><c>S </c><c>   3</c></rc>
    <rc><c>S </c><c>   3</c></rc>
    <rc><c>S </c><c>   3</c></rc>
    <rc><c>S </c><c>   3</c></rc>
    <rc><c>Cl</c><c>   4</c></rc>
    <rc><c>Cl</c><c>   4</c></rc>
    <rc><c>Cl</c><c>   4</c></rc>
    <rc><c>Cl</c><c>   4</c></rc>
   </set>
  </array>
  <array name="atomtypes" >
   <dimension dim="1">type</dimension>
   <field type="int">atomspertype</field>
   <field type="string">element</field>
   <field>mass</field>
   <field>valence</field>
   <field type="string">pseudopotential</field>
   <set>
    <rc><c>  24</c><c>Li</c><c>      7.01000000</c><c>      3.00000000</c><c>  PAW_PBE Li_sv_GW 25Mar2010            </c></rc>
    <rc><c>   4</c><c>P </c><c>     30.97400000</c><c>      5.00000000</c><c>  PAW_PBE P_GW 19Mar2012                </c></rc>
    <rc><c>  20</c><c>S </c><c>     32.06600000</c><c>      6.00000000</c><c>  PAW_PBE S_GW 19Mar2012                </c></rc>
    <rc><c>   4</c><c>Cl</c><c>     35.45300000</c><c>      7.00000000</c><c>  PAW_PBE Cl_GW 19Mar2012               </c></rc>
   </set>
  </array>
 </atominfo>
 <structure name="initialpos" >
  <crystal>
   <varray name="basis" >
    <v>       9.65755783       0.00000000       0.00000000 </v>
    <v>       0.00000000       9.65755783       0.00000000 </v>
    <v>       0.00000000       0.00000000       9.65755783 </v>
   </varray>
   <i name="volume">    900.74519025 </i>
   <varray name="rec_basis" >
    <v>       0.10354585       0.00000000       0.00000000 </v>
    <v>       0.00000000       0.10354585       0.00000000 </v>
    <v>       0.00000000       0.00000000       0.10354585 </v>
   </varray>
  </crystal>
  <varray name="positions" >
   <v>       0.95835188       0.31686100       0.33103706 </v>
   <v>       0.99430832       0.70141390       0.69615632 </v>
   <v>       0.02858671       0.27573300       0.68386275 </v>
   <v>       0.07316710       0.78755544       0.07910427 </v>
   <v>       0.18177764       0.19006523       0.97419197 </v>
   <v>       0.34472663       0.64879661       0.04763168 </v>
   <v>       0.79590232       0.21510940       0.02025391 </v>
   <v>       0.69483072       0.67827263       0.96747802 </v>
   <v>       0.19959020       0.98852094       0.22489589 </v>
   <v>       0.32195688       0.02614656       0.73039932 </v>
   <v>       0.83198586       0.96166382       0.82571127 </v>
   <v>       0.82470284       0.02052821       0.21474500 </v>
   <v>       0.27491336       0.80022336       0.48200591 </v>
   <v>       0.32962986       0.21528766       0.52567425 </v>
   <v>       0.72751006       0.82242414       0.52388712 </v>
   <v>       0.66606223       0.17108661       0.46735390 </v>
   <v>       0.21356169       0.47944075       0.70119314 </v>
   <v>       0.16864077       0.54817520       0.32165477 </v>
   <v>       0.71426643       0.48185789       0.20961410 </v>
   <v>       0.78986174       0.51568178       0.66981263 </v>
   <v>       0.47820409       0.32562968       0.83345342 </v>
   <v>       0.48632662       0.81195077       0.29922670 </v>
   <v>       0.51461819       0.30352395       0.18907627 </v>
   <v>       0.53604484       0.80356456       0.71818615 </v>
   <v>       0.50022986       0.50666742       0.49875329 </v>
   <v>       0.50723535       0.99341603       0.00688526 </v>
   <v>       0.00455325       0.49598296       0.00215035 </v>
   <v>       0.00489577       0.00117105       0.50917392 </v>
   <v>       0.12735668       0.89783949       0.64983945 </v>
   <v>       0.12400715       0.14065769       0.40018194 </v>
   <v>       0.91743053       0.86198975       0.37786835 </v>
   <v>       0.85801249       0.10871385       0.61967096 </v>
   <v>       0.88784415       0.62637750       0.12252450 </v>
   <v>       0.88688439       0.38045507       0.86858280 </v>
   <v>       0.13706187       0.62238108       0.89108471 </v>
   <v>       0.11696130       0.37452411       0.13447445 </v>
   <v>       0.62097228       0.11201746       0.87191542 </v>
   <v>       0.64106910       0.87681080       0.12346636 </v>
   <v>       0.37919895       0.11803905       0.12272239 </v>
   <v>       0.38285948       0.85938825       0.89840562 </v>
   <v>       0.63586929       0.62846968       0.38990308 </v>
   <v>       0.60617717       0.36405412       0.61650305 </v>
   <v>       0.38501000       0.63109826       0.62675594 </v>
   <v>       0.37083574       0.40013826       0.36865529 </v>
   <v>       0.76425915       0.74331964       0.74736964 </v>
   <v>       0.74272368       0.24671335       0.25151008 </v>
   <v>       0.25691873       0.75885413       0.24694440 </v>
   <v>       0.25874748       0.25329194       0.75504740 </v>
   <v>       0.99462144       0.01814717       0.02221163 </v>
   <v>       0.01522495       0.49272470       0.53285841 </v>
   <v>       0.49210550       0.97721668       0.51524576 </v>
   <v>       0.53171239       0.49081746       0.01928353 </v>
  </varray>
 </structure>
 <calculation>
  <scstep>
   <time name="dav">    2.24    2.31</time>
   <time name="total">    2.70    2.79</time>
   <energy>
    <i name="alphaZ">    301.36991750 </i>
    <i name="ewald">  -8827.86808146 </i>
    <i name="hartreedc">  -2103.66781532 </i>
    <i name="XCdc">    534.27393410 </i>
    <i name="pawpsdc">   8141.38806575 </i>
    <i name="pawaedc">  -8271.61346273 </i>
    <i name="eentropy">     -0.00380615 </i>
    <i name="bandstr">   -890.29631275 </i>
    <i name="atom">  12703.13999606 </i>
    <i name="e_fr_energy">   1586.72243501 </i>
    <i name="e_wo_entrp">   1586.72624116 </i>
    <i name="e_0_energy">   1586.72433808 </i>
   </energy>
  </scstep>
  <scstep>
   <time name="dav">    2.59    2.64</time>
   <time name="total">    2.59    2.64</time>
   <energy>
    <i name="e_fr_energy">    -55.72872189 </i>
    <i name="e_wo_entrp">    -55.72872189 </i>
    <i name="e_0_energy">    -55.72872189 </i>
   </energy>
  </scstep>
  <scstep>
   <time name="dav">    2.54    2.59</time>
   <time name="total">    2.54    2.60</time>
   <energy>
    <i name="e_fr_energy">   -228.06110832 </i>
    <i name="e_wo_entrp">   -228.06110832 </i>
    <i name="e_0_energy">   -228.06110832 </i>
   </energy>
  </scstep>
  <scstep>
   <time name="dav">    3.10    3.18</time>
   <time name="total">    3.10    3.18</time>
   <energy>
    <i name="e_fr_energy">   -241.54905818 </i>
    <i name="e_wo_entrp">   -241.54905818 </i>
    <i name="e_0_energy">   -241.54905818 </i>
   </energy>
  </scstep>
  <scstep>
   <time name="dav">    2.94    2.96</time>
   <time name="total">    2.94    2.96</time>
   <energy>
    <i name="e_fr_energy">   -241.76971668 </i>
    <i name="e_wo_entrp">   -241.76971668 </i>
    <i name="e_0_energy">   -241.76971668 </i>
   </energy>
  </scstep>
  <scstep>
   <time name="dav">    3.04    3.07</time>
   <time name="total">    3.04    3.07</time>
   <energy>
    <i name="e_fr_energy">   -241.78073458 </i>
    <i name="e_wo_entrp">   -241.78073458 </i>
    <i name="e_0_energy">   -241.78073458 </i>
   </energy>
  </scstep>
  <scstep>
   <time name="dav">    2.99    3.02</time>
   <time name="total">    2.99    3.02</time>
   <energy>
    <i name="e_fr_energy">   -241.78110157 </i>
    <i name="e_wo_entrp">   -241.78110157 </i>
    <i name="e_0_energy">   -241.78110157 </i>
   </energy>
  </scstep>
  <scstep>
   <time name="dav">    3.02    3.06</time>
   <time name="total">    3.02    3.06</time>
   <energy>
    <i name="e_fr_energy">   -241.78112295 </i>
    <i name="e_wo_entrp">   -241.78112295 </i>
    <i name="e_0_energy">   -241.78112295 </i>
   </energy>
  </scstep>
  <scstep>
   <time name="dav">    3.20    3.64</time>
   <time name="total">    3.20    3.64</time>
   <energy>
    <i name="e_fr_energy">   -241.78112431 </i>
    <i name="e_wo_entrp">   -241.78112431 </i>
    <i name="e_0_energy">   -241.78112431 </i>
   </energy>
  </scstep>
  <scstep>
   <time name="dav">    2.03    2.06</time>
   <time name="total">    2.10    2.14</time>
   <energy>
    <i name="e_fr_energy">   -241.78112437 </i>
    <i name="e_wo_entrp">   -241.78112437 </i>
    <i name="e_0_energy">   -241.78112437 </i>
   </energy>
  </scstep>
  <scstep>
   <time name="diag">    0.40    0.41</time>
   <time name="diis">    1.17    1.18</time>
   <time name="orth">    0.07    0.07</time>
   <time name="total">    2.16    2.20</time>
   <energy>
    <i name="e_fr_energy">   -236.08840090 </i>
    <i name="e_wo_entrp">   -236.08840090 </i>
    <i name="e_0_energy">   -236.08840090 </i>
   </energy>
  </scstep>
  <scstep>
   <time name="diag">    0.36    0.36</time>
   <time name="diis">    1.23    1.24</time>
   <time name="orth">    0.07    0.07</time>
   <time name="total">    2.17    2.19</time>
   <energy>
    <i name="e_fr_energy">   -255.97081845 </i>
    <i name="e_wo_entrp">   -255.97081845 </i>
    <i name="e_0_energy">   -255.97081845 </i>
   </energy>
  </scstep>
  <scstep>
   <time name="diag">    0.36    0.36</time>
   <time name="diis">    1.21    1.22</time>
   <time name="orth">    0.07    0.07</time>
   <time name="total">    2.15    2.17</time>
   <energy>
    <i name="e_fr_energy">   -258.45258136 </i>
    <i name="e_wo_entrp">   -258.45258136 </i>
    <i name="e_0_energy">   -258.45258136 </i>
   </energy>
  </scstep>
  <scstep>
   <time name="diag">    0.36    0.36</time>
   <time name="diis">    1.55    1.57</time>
   <time name="orth">    0.07    0.07</time>
   <time name="total">    2.50    2.52</time>
   <energy>
    <i name="e_fr_energy">   -258.64753750 </i>
    <i name="e_wo_entrp">   -258.64753750 </i>
    <i name="e_0_energy">   -258.64753750 </i>
   </energy>
  </scstep>
  <scstep>
   <time name="diag">    0.36    0.36</time>
   <time name="diis">    1.35    1.38</time>
   <time name="orth">    0.07    0.07</time>
   <time name="total">    2.30    2.33</time>
   <energy>
    <i name="e_fr_energy">   -258.62317258 </i>
    <i name="e_wo_entrp">   -258.62317258 </i>
    <i name="e_0_energy">   -258.62317258 </i>
   </energy>
  </scstep>
  <scstep>
   <time name="diag">    4.34    4.37</time>
   <time name="diis">    1.28    1.29</time>
   <time name="orth">    0.07    0.07</time>
   <time name="total">    6.20    6.25</time>
   <energy>
    <i name="e_fr_energy">   -258.64287164 </i>
    <i name="e_wo_entrp">   -258.64287164 </i>
    <i name="e_0_energy">   -258.64287164 </i>
   </energy>
  </scstep>
  <scstep>
   <time name="diag">    0.36    0.36</time>
   <time name="diis">    1.43    1.44</time>
   <time name="orth">    0.07    0.07</time>
   <time name="total">    2.37    2.39</time>
   <energy>
    <i name="e_fr_energy">   -258.64871923 </i>
    <i name="e_wo_entrp">   -258.64871923 </i>
    <i name="e_0_energy">   -258.64871923 </i>
   </energy>
  </scstep>
  <scstep>
   <time name="diag">    0.36    0.36</time>
   <time name="diis">    1.44    1.47</time>
   <time name="orth">    0.07    0.07</time>
   <time name="total">    2.39    2.42</time>
   <energy>
    <i name="e_fr_energy">   -258.64994027 </i>
    <i name="e_wo_entrp">   -258.64994027 </i>
    <i name="e_0_energy">   -258.64994027 </i>
   </energy>
  </scstep>
  <scstep>
   <time name="diag">    0.36    0.36</time>
   <time name="diis">    1.65    1.67</time>
   <time name="orth">    0.06    0.07</time>
   <time name="total">    2.60    2.83</time>
   <energy>
    <i name="e_fr_energy">   -258.65039010 </i>
    <i name="e_wo_entrp">   -258.65039010 </i>
    <i name="e_0_energy">   -258.65039010 </i>
   </energy>
  </scstep>
  <scstep>
   <time name="diag">    0.36    0.36</time>
   <time name="diis">    1.59    1.61</time>
   <time name="orth">    0.07    0.07</time>
   <time name="total">    2.54    2.56</time>
   <energy>
    <i name="e_fr_energy">   -258.65047591 </i>
    <i name="e_wo_entrp">   -258.65047591 </i>
    <i name="e_0_energy">   -258.65047591 </i>
   </energy>
  </scstep>
  <scstep>
   <time name="diag">    0.35    0.36</time>
   <time name="diis">    1.40    1.41</time>
   <time name="orth">    0.07    0.07</time>
   <time name="total">    2.34    2.36</time>
   <energy>
    <i name="e_fr_energy">   -258.65049167 </i>
    <i name="e_wo_entrp">   -258.65049167 </i>
    <i name="e_0_energy">   -258.65049167 </i>
   </energy>
  </scstep>
  <scstep>
   <time name="diag">    0.36    0.36</time>
   <time name="diis">    1.60    1.62</time>
   <time name="orth">    0.07    0.07</time>
   <time name="total">    2.55    2.57</time>
   <energy>
    <i name="e_fr_energy">   -258.65049799 </i>
    <i name="e_wo_entrp">   -258.65049799 </i>
    <i name="e_0_energy">   -258.65049799 </i>
   </energy>
  </scstep>
  <scstep>
   <time name="diag">    0.36    0.36</time>
   <time name="diis">    1.44    1.45</time>
   <time name="orth">    0.07    0.07</time>
   <time name="total">    2.38    2.40</time>
   <energy>
    <i name="e_fr_energy">   -258.65049767 </i>
    <i name="e_wo_entrp">   -258.65049767 </i>
    <i name="e_0_energy">   -258.65049767 </i>
   </energy>
  </scstep>
  <scstep>
   <time name="diag">    0.36    0.36</time>
   <time name="diis">    0.95    0.96</time>
   <time name="orth">    0.07    0.07</time>
   <time name="total">    2.06    2.07</time>
   <energy>
    <i name="alphaZ">    301.36991750 </i>
    <i name="ewald">  -8827.86808146 </i>
    <i name="hartreedc">  -2202.18726429 </i>
    <i name="XCdc">    537.86801760 </i>
    <i name="pawpsdc">   9817.22693449 </i>
    <i name="pawaedc">  -9961.21382218 </i>
    <i name="eentropy">     -0.00000000 </i>
    <i name="bandstr">  -2626.98619460 </i>
    <i name="atom">  12703.13999606 </i>
    <i name="e_fr_energy">   -258.65049687 </i>
    <i name="e_wo_entrp">   -258.65049687 </i>
    <i name="e_0_energy">   -258.65049687 </i>
   </energy>
  </scstep>
  <structure>
   <crystal>
    <varray name="basis" >
     <v>       9.65755783       0.00000000       0.00000000 </v>
     <v>       0.00000000       9.65755783       0.00000000 </v>
     <v>       0.00000000       0.00000000       9.65755783 </v>
    </varray>
    <i name="volume">    900.74519025 </i>
    <varray name="rec_basis" >
     <v>       0.10354585       0.00000000       0.00000000 </v>
     <v>       0.00000000       0.10354585       0.00000000 </v>
     <v>       0.00000000       0.00000000       0.10354585 </v>
    </varray>
   </crystal>
   <varray name="positions" >
    <v>       0.95835188       0.31686100       0.33103706 </v>
    <v>       0.99430832       0.70141390       0.69615632 </v>
    <v>       0.02858671       0.27573300       0.68386275 </v>
    <v>       0.07316710       0.78755544       0.07910427 </v>
    <v>       0.18177764       0.19006523       0.97419197 </v>
    <v>       0.34472663       0.64879661       0.04763168 </v>
    <v>       0.79590232       0.21510940       0.02025391 </v>
    <v>       0.69483072       0.67827263       0.96747802 </v>
    <v>       0.19959020       0.98852094       0.22489589 </v>
    <v>       0.32195688       0.02614656       0.73039932 </v>
    <v>       0.83198586       0.96166382       0.82571127 </v>
    <v>       0.82470284       0.02052821       0.21474500 </v>
    <v>       0.27491336       0.80022336       0.48200591 </v>
    <v>       0.32962986       0.21528766       0.52567425 </v>
    <v>       0.72751006       0.82242414       0.52388712 </v>
    <v>       0.66606223       0.17108661       0.46735390 </v>
    <v>       0.21356169       0.47944075       0.70119314 </v>
    <v>       0.16864077       0.54817520       0.32165477 </v>
    <v>       0.71426643       0.48185789       0.20961410 </v>
    <v>       0.78986174       0.51568178       0.66981263 </v>
    <v>       0.47820409       0.32562968       0.83345342 </v>
    <v>       0.48632662       0.81195077       0.29922670 </v>
    <v>       0.51461819       0.30352395       0.18907627 </v>
    <v>       0.53604484       0.80356456       0.71818615 </v>
    <v>       0.50022986       0.50666742       0.49875329 </v>
    <v>       0.50723535       0.99341603       0.00688526 </v>
    <v>       0.00455325       0.49598296       0.00215035 </v>
    <v>       0.00489577       0.00117105       0.50917392 </v>
    <v>       0.12735668       0.89783949       0.64983945 </v>
    <v>       0.12400715       0.14065769       0.40018194 </v>
    <v>       0.91743053       0.86198975       0.37786835 </v>
    <v>       0.85801249       0.10871385       0.61967096 </v>
    <v>       0.88784415       0.62637750       0.12252450 </v>
    <v>       0.88688439       0.38045507       0.86858280 </v>
    <v>       0.13706187       0.62238108       0.89108471 </v>
    <v>       0.11696130       0.37452411       0.13447445 </v>
    <v>       0.62097228       0.11201746       0.87191542 </v>
    <v>       0.64106910       0.87681080       0.12346636 </v>
    <v>       0.37919895       0.11803905       0.12272239 </v>
    <v>       0.38285948       0.85938825       0.89840562 </v>
    <v>       0.63586929       0.62846968       0.38990308 </v>
    <v>       0.60617717       0.36405412       0.61650305 </v>
    <v>       0.38501000       0.63109826       0.62675594 </v>
    <v>       0.37083574       0.40013826       0.36865529 </v>
    <v>       0.76425915       0.74331964       0.74736964 </v>
    <v>       0.74272368       0.24671335       0.25151008 </v>
    <v>       0.25691873       0.75885413       0.24694440 </v>
    <v>       0.25874748       0.25329194       0.75504740 </v>
    <v>       0.99462144       0.01814717       0.02221163 </v>
    <v>       0.01522495       0.49272470       0.53285841 </v>
    <v>       0.49210550       0.97721668       0.51524576 </v>
    <v>       0.53171239       0.49081746       0.01928353 </v>
   </varray>
  </structure>
  <varray name="forces" >
   <v>       0.00007881      -0.00023117       0.00017662 </v>
   <v>      -0.00001711      -0.00011382      -0.00064037 </v>
   <v>      -0.00010383      -0.00008324       0.00029049 </v>
   <v>       0.00097341      -0.00004708      -0.00159036 </v>
   <v>       0.00038529       0.00027523       0.00040024 </v>
   <v>      -0.00032308      -0.00104101       0.00048586 </v>
   <v>      -0.00048872      -0.00029843      -0.00015866 </v>
   <v>       0.00006188       0.00000029      -0.00008663 </v>
   <v>      -0.00120752       0.00005271       0.00000240 </v>
   <v>       0.00034570       0.00017332       0.00064809 </v>
   <v>       0.00016503      -0.00029641       0.00007775 </v>
   <v>       0.00043555      -0.00015888       0.00025637 </v>
   <v>      -0.00038417       0.00023477       0.00003574 </v>
   <v>       0.00126958      -0.00014686       0.00025167 </v>
   <v>       0.00016415       0.00040023      -0.00002322 </v>
   <v>       0.00005029      -0.00016086      -0.00036827 </v>
   <v>       0.00023283      -0.00011851      -0.00086404 </v>
   <v>      -0.00070661       0.00038564      -0.00022620 </v>
   <v>       0.00035861       0.00002837      -0.00034950 </v>
   <v>      -0.00045793       0.00012057      -0.00065072 </v>
   <v>      -0.00016858       0.00000898       0.00005532 </v>
   <v>      -0.00003167      -0.00007137      -0.00004703 </v>
   <v>      -0.00015850      -0.00008000       0.00034374 </v>
   <v>       0.00013317       0.00058598       0.00029867 </v>
   <v>      -0.00051431      -0.00019119      -0.00040693 </v>
   <v>      -0.00056215       0.00005252       0.00076477 </v>
   <v>       0.00102465      -0.00001619       0.00190557 </v>
   <v>       0.00092890       0.00120387       0.00112817 </v>
   <v>      -0.00052659       0.00051945       0.00028707 </v>
   <v>      -0.00042926      -0.00070133       0.00146346 </v>
   <v>       0.00073638       0.00005914       0.00075271 </v>
   <v>       0.00004626      -0.00047077      -0.00009261 </v>
   <v>       0.00055465       0.00014451      -0.00066649 </v>
   <v>      -0.00074512       0.00009294      -0.00037589 </v>
   <v>      -0.00031067      -0.00100168      -0.00041058 </v>
   <v>      -0.00128045       0.00113188      -0.00138543 </v>
   <v>      -0.00063766      -0.00056507      -0.00002301 </v>
   <v>      -0.00030661       0.00037772      -0.00030166 </v>
   <v>       0.00067272      -0.00120645      -0.00024378 </v>
   <v>       0.00019371      -0.00005608       0.00082190 </v>
   <v>      -0.00004949      -0.00041940       0.00042358 </v>
   <v>      -0.00059775       0.00003939      -0.00048622 </v>
   <v>       0.00068616      -0.00001473      -0.00033348 </v>
   <v>       0.00032386       0.00095003       0.00080060 </v>
   <v>       0.00005429      -0.00004831      -0.00018707 </v>
   <v>       0.00006578      -0.00014605      -0.00009918 </v>
   <v>      -0.00003554       0.00015673      -0.00013164 </v>
   <v>      -0.00006213       0.00008684       0.00014647 </v>
   <v>       0.00054964       0.00016829      -0.00039806 </v>
   <v>      -0.00050688       0.00005587      -0.00076847 </v>
   <v>       0.00022311       0.00074696      -0.00018500 </v>
   <v>      -0.00010205      -0.00036732      -0.00031674 </v>
  </varray>
  <varray name="stress" >
   <v>      -0.37756564       5.63977300      -3.83624644 </v>
   <v>       5.63977260       2.00942947      -1.60235390 </v>
   <v>      -3.83624667      -1.60235420      -1.71959724 </v>
  </varray>
  <energy>
   <i name="e_fr_energy">   -272.23960312 </i>
   <i name="e_wo_entrp">   -272.23960312 </i>
   <i name="e_0_energy">   -272.23960312 </i>
  </energy>
  <time name="totalsc">   67.99   69.48</time>
 </calculation>
 <calculation>
  <scstep>
   <time name="dav">    2.26    2.28</time>
   <time name="total">    2.78    2.80</time>
   <energy>
    <i name="alphaZ">    301.36991750 </i>
    <i name="ewald">  -8827.85500483 </i>
    <i name="hartreedc">  -2202.20072074 </i>
    <i name="XCdc">    537.86840661 </i>
    <i name="pawpsdc">   9817.21762223 </i>
    <i name="pawaedc">  -9961.20444589 </i>
    <i name="eentropy">     -0.00000000 </i>
    <i name="bandstr">  -2626.98627034 </i>
    <i name="atom">  12703.13999606 </i>
    <i name="e_fr_energy">   -258.65049939 </i>
    <i name="e_wo_entrp">   -258.65049939 </i>
    <i name="e_0_energy">   -258.65049939 </i>
   </energy>
  </scstep>
  <scstep>
   <time name="diag">    0.36    0.37</time>
   <time name="diis">    0.83    0.84</time>
   <time name="orth">    0.07    0.07</time>
   <time name="total">    1.71    1.73</time>
   <energy>
    <i name="alphaZ">    301.36991750 </i>
    <i name="ewald">  -8827.85500483 </i>
    <i name="hartreedc">  -2202.20405178 </i>
    <i name="XCdc">    537.86833349 </i>
    <i name="pawpsdc">   9817.21190151 </i>
    <i name="pawaedc">  -9961.19834791 </i>
    <i name="eentropy">     -0.00000000 </i>
    <i name="bandstr">  -2626.98324377 </i>
    <i name="atom">  12703.13999606 </i>
    <i name="e_fr_energy">   -258.65049972 </i>
    <i name="e_wo_entrp">   -258.65049972 </i>
    <i name="e_0_energy">   -258.65049972 </i>
   </energy>
  </scstep>
  <structure>
   <crystal>
    <varray name="basis" >
     <v>       9.65755783       0.00000000       0.00000000 </v>
     <v>       0.00000000       9.65755783       0.00000000 </v>
     <v>       0.00000000       0.00000000       9.65755783 </v>
    </varray>
    <i name="volume">    900.74519025 </i>
    <varray name="rec_basis" >
     <v>       0.10354585       0.00000000       0.00000000 </v>
     <v>       0.00000000       0.10354585       0.00000000 </v>
     <v>       0.00000000       0.00000000       0.10354585 </v>
    </varray>
   </crystal>
   <varray name="positions" >
    <v>       0.95835204       0.31686054       0.33103742 </v>
    <v>       0.99430828       0.70141367       0.69615504 </v>
    <v>       0.02858650       0.27573283       0.68386333 </v>
    <v>       0.07316904       0.78755535       0.07910109 </v>
    <v>       0.18177841       0.19006578       0.97419277 </v>
    <v>       0.34472599       0.64879453       0.04763265 </v>
    <v>       0.79590135       0.21510880       0.02025360 </v>
    <v>       0.69483084       0.67827263       0.96747784 </v>
    <v>       0.19958779       0.98852105       0.22489590 </v>
    <v>       0.32195757       0.02614691       0.73040061 </v>
    <v>       0.83198619       0.96166323       0.82571142 </v>
    <v>       0.82470371       0.02052790       0.21474551 </v>
    <v>       0.27491259       0.80022382       0.48200598 </v>
    <v>       0.32963240       0.21528736       0.52567475 </v>
    <v>       0.72751039       0.82242494       0.52388707 </v>
    <v>       0.66606233       0.17108629       0.46735316 </v>
    <v>       0.21356216       0.47944052       0.70119141 </v>
    <v>       0.16863936       0.54817597       0.32165431 </v>
    <v>       0.71426715       0.48185795       0.20961340 </v>
    <v>       0.78986083       0.51568202       0.66981133 </v>
    <v>       0.47820376       0.32562970       0.83345353 </v>
    <v>       0.48632656       0.81195063       0.29922661 </v>
    <v>       0.51461787       0.30352379       0.18907696 </v>
    <v>       0.53604511       0.80356573       0.71818674 </v>
    <v>       0.50022883       0.50666704       0.49875248 </v>
    <v>       0.50723423       0.99341614       0.00688679 </v>
    <v>       0.00455530       0.49598293       0.00215415 </v>
    <v>       0.00489762       0.00117345       0.50917617 </v>
    <v>       0.12735563       0.89784053       0.64984002 </v>
    <v>       0.12400629       0.14065629       0.40018486 </v>
    <v>       0.91743200       0.86198987       0.37786986 </v>
    <v>       0.85801259       0.10871291       0.61967078 </v>
    <v>       0.88784526       0.62637779       0.12252316 </v>
    <v>       0.88688290       0.38045525       0.86858205 </v>
    <v>       0.13706125       0.62237908       0.89108389 </v>
    <v>       0.11695874       0.37452637       0.13447168 </v>
    <v>       0.62097100       0.11201633       0.87191538 </v>
    <v>       0.64106848       0.87681156       0.12346575 </v>
    <v>       0.37920029       0.11803663       0.12272190 </v>
    <v>       0.38285987       0.85938814       0.89840727 </v>
    <v>       0.63586919       0.62846884       0.38990393 </v>
    <v>       0.60617597       0.36405420       0.61650208 </v>
    <v>       0.38501137       0.63109823       0.62675528 </v>
    <v>       0.37083639       0.40014015       0.36865689 </v>
    <v>       0.76425926       0.74331954       0.74736926 </v>
    <v>       0.74272381       0.24671306       0.25150989 </v>
    <v>       0.25691866       0.75885444       0.24694414 </v>
    <v>       0.25874736       0.25329211       0.75504769 </v>
    <v>       0.99462254       0.01814751       0.02221083 </v>
    <v>       0.01522393       0.49272482       0.53285688 </v>
    <v>       0.49210595       0.97721817       0.51524539 </v>
    <v>       0.53171218       0.49081673       0.01928290 </v>
   </varray>
  </structure>
  <varray name="forces" >
   <v>      -0.00005183      -0.00013692       0.00009019 </v>
   <v>      -0.00004957      -0.00009129      -0.00046640 </v>
   <v>      -0.00011877       0.00001884       0.00013935 </v>
   <v>       0.00057256       0.00001563      -0.00104545 </v>
   <v>       0.00021441       0.00015658       0.00007333 </v>
   <v>      -0.00018350      -0.00062048       0.00020573 </v>
   <v>      -0.00027364      -0.00010895      -0.00022444 </v>
   <v>       0.00004063      -0.00002397      -0.00018216 </v>
   <v>      -0.00077760      -0.00003757      -0.00005161 </v>
   <v>       0.00023081       0.00010983       0.00033642 </v>
   <v>       0.00008558      -0.00019037      -0.00001076 </v>
   <v>       0.00029031      -0.00012376       0.00010296 </v>
   <v>      -0.00021902       0.00013941      -0.00004108 </v>
   <v>       0.00080043      -0.00006766       0.00015511 </v>
   <v>       0.00011910       0.00027887      -0.00007119 </v>
   <v>       0.00003505      -0.00008576      -0.00029218 </v>
   <v>       0.00010445      -0.00004958      -0.00058850 </v>
   <v>      -0.00044739       0.00033641      -0.00015216 </v>
   <v>       0.00016162       0.00004997      -0.00023011 </v>
   <v>      -0.00026334       0.00006727      -0.00043922 </v>
   <v>      -0.00011003       0.00001688      -0.00004268 </v>
   <v>      -0.00003554      -0.00007990      -0.00010150 </v>
   <v>      -0.00006427      -0.00003059       0.00009198 </v>
   <v>       0.00010158       0.00038654       0.00010919 </v>
   <v>      -0.00014879       0.00006009      -0.00020916 </v>
   <v>      -0.00015020      -0.00011913       0.00017393 </v>
   <v>      -0.00008298       0.00005805       0.00022551 </v>
   <v>       0.00024981       0.00044735       0.00064544 </v>
   <v>       0.00005767       0.00002785       0.00030243 </v>
   <v>       0.00009582       0.00000183       0.00043977 </v>
   <v>       0.00042547       0.00039491       0.00054649 </v>
   <v>      -0.00015546      -0.00003556       0.00006433 </v>
   <v>       0.00004771       0.00030345      -0.00029592 </v>
   <v>      -0.00016148       0.00027860       0.00005531 </v>
   <v>      -0.00014576      -0.00049289      -0.00041520 </v>
   <v>      -0.00020668      -0.00006308      -0.00017721 </v>
   <v>      -0.00031871      -0.00029828      -0.00001551 </v>
   <v>       0.00005444       0.00007750      -0.00002693 </v>
   <v>       0.00001411      -0.00025225       0.00021929 </v>
   <v>       0.00007551      -0.00012013       0.00015213 </v>
   <v>       0.00004280      -0.00007945       0.00004650 </v>
   <v>      -0.00024601      -0.00002737      -0.00024127 </v>
   <v>       0.00020602       0.00022776      -0.00017955 </v>
   <v>      -0.00017574       0.00024447       0.00008289 </v>
   <v>      -0.00002410       0.00000964      -0.00024935 </v>
   <v>       0.00011556      -0.00002997      -0.00032973 </v>
   <v>       0.00002993       0.00016862      -0.00002596 </v>
   <v>      -0.00012201       0.00006626      -0.00014188 </v>
   <v>      -0.00027723       0.00006791       0.00062824 </v>
   <v>       0.00034037      -0.00026294       0.00072858 </v>
   <v>      -0.00013621      -0.00040344       0.00014482 </v>
   <v>       0.00043411      -0.00017921       0.00048719 </v>
  </varray>
  <varray name="stress" >
   <v>      -0.37934772       5.63757170      -3.83663637 </v>
   <v>       5.63757153       2.00740785      -1.60388651 </v>
   <v>      -3.83663681      -1.60388678      -1.72149043 </v>
  </varray>
  <energy>
   <i name="e_fr_energy">   -272.23960441 </i>
   <i name="e_wo_entrp">   -272.23960441 </i>
   <i name="e_0_energy">   -272.23960441 </i>
  </energy>
  <time name="totalsc">    7.53    7.62</time>
 </calculation>
 <calculation>
  <scstep>
   <time name="dav">    2.08    2.10</time>
   <time name="total">    2.60    2.62</time>
   <energy>
    <i name="alphaZ">    301.36991750 </i>
    <i name="ewald">  -8827.84924431 </i>
    <i name="hartreedc">  -2202.20966182 </i>
    <i name="XCdc">    537.86837839 </i>
    <i name="pawpsdc">   9817.20212458 </i>
    <i name="pawaedc">  -9961.18820003 </i>
    <i name="eentropy">     -0.00000000 </i>
    <i name="bandstr">  -2626.98381105 </i>
    <i name="atom">  12703.13999606 </i>
    <i name="e_fr_energy">   -258.65050067 </i>
    <i name="e_wo_entrp">   -258.65050067 </i>
    <i name="e_0_energy">   -258.65050067 </i>
   </energy>
  </scstep>
  <scstep>
   <time name="diag">    0.36    0.36</time>
   <time name="diis">    0.80    0.81</time>
   <time name="orth">    0.07    0.07</time>
   <time name="total">    1.68    1.69</time>
   <energy>
    <i name="alphaZ">    301.36991750 </i>
    <i name="ewald">  -8827.84924431 </i>
    <i name="hartreedc">  -2202.21021256 </i>
    <i name="XCdc">    537.86829556 </i>
    <i name="pawpsdc">   9817.19892876 </i>
    <i name="pawaedc">  -9961.18485236 </i>
    <i name="eentropy">     -0.00000000 </i>
    <i name="bandstr">  -2626.98332939 </i>
    <i name="atom">  12703.13999606 </i>
    <i name="e_fr_energy">   -258.65050075 </i>
    <i name="e_wo_entrp">   -258.65050075 </i>
    <i name="e_0_energy">   -258.65050075 </i>
   </energy>
  </scstep>
  <structure>
   <crystal>
    <varray name="basis" >
     <v>       9.65755783       0.00000000       0.00000000 </v>
     <v>       0.00000000       9.65755783       0.00000000 </v>
     <v>       0.00000000       0.00000000       9.65755783 </v>
    </varray>
    <i name="volume">    900.74519025 </i>
    <varray name="rec_basis" >
     <v>       0.10354585       0.00000000       0.00000000 </v>
     <v>       0.00000000       0.10354585       0.00000000 </v>
     <v>       0.00000000       0.00000000       0.10354585 </v>
    </varray>
   </crystal>
   <varray name="positions" >
    <v>       0.95835211       0.31686033       0.33103757 </v>
    <v>       0.99430827       0.70141357       0.69615447 </v>
    <v>       0.02858641       0.27573276       0.68386359 </v>
    <v>       0.07316990       0.78755531       0.07909969 </v>
    <v>       0.18177875       0.19006602       0.97419313 </v>
    <v>       0.34472570       0.64879361       0.04763308 </v>
    <v>       0.79590092       0.21510854       0.02025346 </v>
    <v>       0.69483089       0.67827263       0.96747777 </v>
    <v>       0.19958673       0.98852109       0.22489590 </v>
    <v>       0.32195787       0.02614706       0.73040118 </v>
    <v>       0.83198633       0.96166297       0.82571149 </v>
    <v>       0.82470409       0.02052776       0.21474573 </v>
    <v>       0.27491225       0.80022403       0.48200601 </v>
    <v>       0.32963351       0.21528723       0.52567497 </v>
    <v>       0.72751053       0.82242529       0.52388705 </v>
    <v>       0.66606238       0.17108615       0.46735284 </v>
    <v>       0.21356236       0.47944041       0.70119065 </v>
    <v>       0.16863873       0.54817631       0.32165411 </v>
    <v>       0.71426746       0.48185797       0.20961309 </v>
    <v>       0.78986043       0.51568213       0.66981076 </v>
    <v>       0.47820361       0.32562971       0.83345358 </v>
    <v>       0.48632653       0.81195057       0.29922656 </v>
    <v>       0.51461774       0.30352372       0.18907726 </v>
    <v>       0.53604523       0.80356624       0.71818701 </v>
    <v>       0.50022838       0.50666687       0.49875212 </v>
    <v>       0.50723373       0.99341619       0.00688747 </v>
    <v>       0.00455620       0.49598291       0.00215583 </v>
    <v>       0.00489844       0.00117451       0.50917716 </v>
    <v>       0.12735517       0.89784099       0.64984027 </v>
    <v>       0.12400591       0.14065567       0.40018615 </v>
    <v>       0.91743265       0.86198992       0.37787052 </v>
    <v>       0.85801263       0.10871249       0.61967069 </v>
    <v>       0.88784575       0.62637791       0.12252258 </v>
    <v>       0.88688224       0.38045533       0.86858172 </v>
    <v>       0.13706097       0.62237820       0.89108353 </v>
    <v>       0.11695762       0.37452737       0.13447046 </v>
    <v>       0.62097044       0.11201583       0.87191536 </v>
    <v>       0.64106821       0.87681189       0.12346549 </v>
    <v>       0.37920088       0.11803557       0.12272169 </v>
    <v>       0.38286004       0.85938809       0.89840799 </v>
    <v>       0.63586915       0.62846847       0.38990430 </v>
    <v>       0.60617545       0.36405424       0.61650165 </v>
    <v>       0.38501197       0.63109821       0.62675498 </v>
    <v>       0.37083668       0.40014099       0.36865759 </v>
    <v>       0.76425930       0.74331950       0.74736910 </v>
    <v>       0.74272387       0.24671293       0.25150980 </v>
    <v>       0.25691863       0.75885458       0.24694402 </v>
    <v>       0.25874730       0.25329219       0.75504782 </v>
    <v>       0.99462302       0.01814765       0.02221048 </v>
    <v>       0.01522349       0.49272486       0.53285620 </v>
    <v>       0.49210615       0.97721883       0.51524522 </v>
    <v>       0.53171209       0.49081640       0.01928262 </v>
   </varray>
  </structure>
  <varray name="forces" >
   <v>      -0.00004806      -0.00014736       0.00016251 </v>
   <v>      -0.00006859      -0.00010812      -0.00055332 </v>
   <v>      -0.00017000      -0.00001106       0.00025831 </v>
   <v>       0.00083661       0.00000731      -0.00146291 </v>
   <v>       0.00026593       0.00018635       0.00013773 </v>
   <v>      -0.00026888      -0.00089281       0.00032788 </v>
   <v>      -0.00036796      -0.00015196      -0.00026909 </v>
   <v>       0.00003647      -0.00002290      -0.00018145 </v>
   <v>      -0.00108853      -0.00001702      -0.00004029 </v>
   <v>       0.00028211       0.00013637       0.00047088 </v>
   <v>       0.00011301      -0.00022539       0.00002090 </v>
   <v>       0.00034780      -0.00016564       0.00017923 </v>
   <v>      -0.00031286       0.00018656      -0.00000725 </v>
   <v>       0.00113433      -0.00012008       0.00023701 </v>
   <v>       0.00015056       0.00034552      -0.00006095 </v>
   <v>       0.00003323      -0.00011665      -0.00031731 </v>
   <v>       0.00015605      -0.00005770      -0.00070709 </v>
   <v>      -0.00059801       0.00041665      -0.00015558 </v>
   <v>       0.00025983       0.00006915      -0.00028214 </v>
   <v>      -0.00035807       0.00008779      -0.00054004 </v>
   <v>      -0.00011567       0.00002989      -0.00001202 </v>
   <v>      -0.00001302      -0.00006167      -0.00007403 </v>
   <v>      -0.00012299      -0.00005568       0.00021477 </v>
   <v>       0.00013095       0.00048454       0.00019323 </v>
   <v>       0.00004265       0.00015856      -0.00004978 </v>
   <v>       0.00001469      -0.00021147      -0.00002401 </v>
   <v>      -0.00051131       0.00010084      -0.00046372 </v>
   <v>      -0.00002578       0.00010309       0.00053844 </v>
   <v>       0.00010255       0.00006224       0.00043900 </v>
   <v>       0.00021996       0.00014859       0.00044106 </v>
   <v>       0.00048987       0.00042875       0.00062190 </v>
   <v>      -0.00016955       0.00001603       0.00014705 </v>
   <v>       0.00007227       0.00038293      -0.00015988 </v>
   <v>      -0.00009704       0.00033987       0.00021921 </v>
   <v>      -0.00007842      -0.00049123      -0.00035554 </v>
   <v>      -0.00000873      -0.00020513       0.00005857 </v>
   <v>      -0.00036544      -0.00029959       0.00000531 </v>
   <v>       0.00007222       0.00007499       0.00005482 </v>
   <v>      -0.00007082      -0.00017811       0.00038085 </v>
   <v>       0.00001194      -0.00016643       0.00022407 </v>
   <v>       0.00007975      -0.00010943       0.00004483 </v>
   <v>      -0.00026490      -0.00004732      -0.00023034 </v>
   <v>       0.00018187       0.00023334      -0.00012162 </v>
   <v>      -0.00029847       0.00017081      -0.00001189 </v>
   <v>      -0.00002383       0.00000718      -0.00020361 </v>
   <v>       0.00011405      -0.00000846      -0.00027191 </v>
   <v>       0.00001984       0.00014830      -0.00002034 </v>
   <v>      -0.00011404       0.00005571      -0.00010466 </v>
   <v>      -0.00004356       0.00012736       0.00048318 </v>
   <v>       0.00014261      -0.00023861       0.00037304 </v>
   <v>      -0.00005446      -0.00008476       0.00006524 </v>
   <v>       0.00034785      -0.00031417       0.00038177 </v>
  </varray>
  <varray name="stress" >
   <v>      -0.38225299       5.63666313      -3.83674402 </v>
   <v>       5.63666265       2.00458247      -1.60432883 </v>
   <v>      -3.83674414      -1.60432941      -1.72436031 </v>
  </varray>
  <energy>
   <i name="e_fr_energy">   -272.23960474 </i>
   <i name="e_wo_entrp">   -272.23960474 </i>
   <i name="e_0_energy">   -272.23960474 </i>
  </energy>
  <time name="totalsc">    7.34    7.42</time>
 </calculation>
 <calculation>
  <scstep>
   <time name="dav">    2.31    2.33</time>
   <time name="total">    2.83    2.85</time>
   <energy>
    <i name="alphaZ">    301.36991750 </i>
    <i name="ewald">  -8827.83772203 </i>
    <i name="hartreedc">  -2202.21883915 </i>
    <i name="XCdc">    537.86855721 </i>
    <i name="pawpsdc">   9817.19564240 </i>
    <i name="pawaedc">  -9961.18151534 </i>
    <i name="eentropy">     -0.00000000 </i>
    <i name="bandstr">  -2626.98653894 </i>
    <i name="atom">  12703.13999606 </i>
    <i name="e_fr_energy">   -258.65050228 </i>
    <i name="e_wo_entrp">   -258.65050228 </i>
    <i name="e_0_energy">   -258.65050228 </i>
   </energy>
  </scstep>
  <scstep>
   <time name="diag">    0.36    0.37</time>
   <time name="diis">    0.79    0.79</time>
   <time name="orth">    0.07    0.07</time>
   <time name="total">    1.66    1.68</time>
   <energy>
    <i name="alphaZ">    301.36991750 </i>
    <i name="ewald">  -8827.83772203 </i>
    <i name="hartreedc">  -2202.21975530 </i>
    <i name="XCdc">    537.86855954 </i>
    <i name="pawpsdc">   9817.20462587 </i>
    <i name="pawaedc">  -9961.19048331 </i>
    <i name="eentropy">     -0.00000000 </i>
    <i name="bandstr">  -2626.98564076 </i>
    <i name="atom">  12703.13999606 </i>
    <i name="e_fr_energy">   -258.65050244 </i>
    <i name="e_wo_entrp">   -258.65050244 </i>
    <i name="e_0_energy">   -258.65050244 </i>
   </energy>
  </scstep>
  <structure>
   <crystal>
    <varray name="basis" >
     <v>       9.65755783       0.00000000       0.00000000 </v>
     <v>       0.00000000       9.65755783       0.00000000 </v>
     <v>       0.00000000       0.00000000       9.65755783 </v>
    </varray>
    <i name="volume">    900.74519025 </i>
    <varray name="rec_basis" >
     <v>       0.10354585       0.00000000       0.00000000 </v>
     <v>       0.00000000       0.10354585       0.00000000 </v>
     <v>       0.00000000       0.00000000       0.10354585 </v>
    </varray>
   </crystal>
   <varray name="positions" >
    <v>       0.95835225       0.31685993       0.33103788 </v>
    <v>       0.99430824       0.70141337       0.69615335 </v>
    <v>       0.02858623       0.27573261       0.68386410 </v>
    <v>       0.07317161       0.78755522       0.07909689 </v>
    <v>       0.18177942       0.19006651       0.97419383 </v>
    <v>       0.34472514       0.64879178       0.04763393 </v>
    <v>       0.79590006       0.21510801       0.02025318 </v>
    <v>       0.69483100       0.67827263       0.96747761 </v>
    <v>       0.19958460       0.98852119       0.22489590 </v>
    <v>       0.32195848       0.02614737       0.73040232 </v>
    <v>       0.83198662       0.96166245       0.82571163 </v>
    <v>       0.82470486       0.02052748       0.21474619 </v>
    <v>       0.27491158       0.80022444       0.48200607 </v>
    <v>       0.32963575       0.21528698       0.52567541 </v>
    <v>       0.72751082       0.82242600       0.52388701 </v>
    <v>       0.66606247       0.17108586       0.46735219 </v>
    <v>       0.21356277       0.47944020       0.70118913 </v>
    <v>       0.16863749       0.54817699       0.32165372 </v>
    <v>       0.71426809       0.48185802       0.20961248 </v>
    <v>       0.78985962       0.51568234       0.66980962 </v>
    <v>       0.47820331       0.32562973       0.83345368 </v>
    <v>       0.48632647       0.81195044       0.29922648 </v>
    <v>       0.51461746       0.30352358       0.18907787 </v>
    <v>       0.53604546       0.80356728       0.71818753 </v>
    <v>       0.50022747       0.50666653       0.49875140 </v>
    <v>       0.50723274       0.99341628       0.00688881 </v>
    <v>       0.00455800       0.49598288       0.00215919 </v>
    <v>       0.00490008       0.00117663       0.50917915 </v>
    <v>       0.12735424       0.89784190       0.64984078 </v>
    <v>       0.12400516       0.14065444       0.40018872 </v>
    <v>       0.91743395       0.86199003       0.37787184 </v>
    <v>       0.85801271       0.10871166       0.61967053 </v>
    <v>       0.88784673       0.62637817       0.12252140 </v>
    <v>       0.88688093       0.38045550       0.86858105 </v>
    <v>       0.13706043       0.62237644       0.89108281 </v>
    <v>       0.11695536       0.37452936       0.13446802 </v>
    <v>       0.62096932       0.11201484       0.87191532 </v>
    <v>       0.64106767       0.87681256       0.12346496 </v>
    <v>       0.37920207       0.11803345       0.12272126 </v>
    <v>       0.38286038       0.85938799       0.89840944 </v>
    <v>       0.63586906       0.62846773       0.38990504 </v>
    <v>       0.60617440       0.36405431       0.61650080 </v>
    <v>       0.38501318       0.63109819       0.62675440 </v>
    <v>       0.37083725       0.40014266       0.36865900 </v>
    <v>       0.76425940       0.74331941       0.74736877 </v>
    <v>       0.74272399       0.24671267       0.25150962 </v>
    <v>       0.25691856       0.75885486       0.24694379 </v>
    <v>       0.25874719       0.25329234       0.75504808 </v>
    <v>       0.99462399       0.01814795       0.02220978 </v>
    <v>       0.01522260       0.49272496       0.53285485 </v>
    <v>       0.49210654       0.97722014       0.51524490 </v>
    <v>       0.53171191       0.49081576       0.01928206 </v>
   </varray>
  </structure>
  <varray name="forces" >
   <v>      -0.00010763      -0.00011275       0.00016101 </v>
   <v>      -0.00008903      -0.00010771      -0.00047843 </v>
   <v>      -0.00019646       0.00002994       0.00026021 </v>
   <v>       0.00062382       0.00003418      -0.00112114 </v>
   <v>       0.00021008       0.00013659       0.00000117 </v>
   <v>      -0.00018534      -0.00063991       0.00017548 </v>
   <v>      -0.00031189      -0.00008668      -0.00032478 </v>
   <v>       0.00001664      -0.00003037      -0.00019316 </v>
   <v>      -0.00085041      -0.00007554      -0.00005008 </v>
   <v>       0.00024130       0.00009753       0.00039256 </v>
   <v>       0.00007901      -0.00018022      -0.00000203 </v>
   <v>       0.00030629      -0.00017916       0.00015330 </v>
   <v>      -0.00027009       0.00014986      -0.00002062 </v>
   <v>       0.00089168      -0.00008975       0.00021146 </v>
   <v>       0.00014789       0.00028233      -0.00007648 </v>
   <v>       0.00003792      -0.00009366      -0.00026565 </v>
   <v>       0.00011905      -0.00003785      -0.00060923 </v>
   <v>      -0.00048932       0.00040512      -0.00009838 </v>
   <v>       0.00021432       0.00007161      -0.00024015 </v>
   <v>      -0.00027531       0.00005576      -0.00042470 </v>
   <v>      -0.00005787       0.00001959      -0.00005367 </v>
   <v>       0.00002193      -0.00004575      -0.00006725 </v>
   <v>      -0.00007461      -0.00004775       0.00014593 </v>
   <v>       0.00012590       0.00040654       0.00014730 </v>
   <v>       0.00038163       0.00036019       0.00017982 </v>
   <v>       0.00033681      -0.00038175      -0.00044696 </v>
   <v>      -0.00137175       0.00015620      -0.00179644 </v>
   <v>      -0.00056660      -0.00055555       0.00024601 </v>
   <v>       0.00033373      -0.00007401       0.00065807 </v>
   <v>       0.00061591       0.00061432       0.00006694 </v>
   <v>       0.00055873       0.00056000       0.00070209 </v>
   <v>      -0.00031828       0.00019628       0.00028747 </v>
   <v>      -0.00009443       0.00059762       0.00007195 </v>
   <v>       0.00022096       0.00061096       0.00061171 </v>
   <v>       0.00007146      -0.00040150      -0.00037068 </v>
   <v>       0.00062660      -0.00086036       0.00078146 </v>
   <v>      -0.00034612      -0.00025501      -0.00002259 </v>
   <v>       0.00022046      -0.00003495       0.00020495 </v>
   <v>      -0.00042610       0.00020828       0.00074382 </v>
   <v>      -0.00012314      -0.00027624       0.00008915 </v>
   <v>       0.00017469      -0.00005034      -0.00006191 </v>
   <v>      -0.00020189      -0.00013862      -0.00016547 </v>
   <v>       0.00005738       0.00033602      -0.00001061 </v>
   <v>      -0.00066404      -0.00012696      -0.00039124 </v>
   <v>      -0.00001098       0.00000905      -0.00022018 </v>
   <v>       0.00012424      -0.00003509      -0.00026553 </v>
   <v>      -0.00000049       0.00013274      -0.00006437 </v>
   <v>      -0.00009864       0.00006659      -0.00005525 </v>
   <v>      -0.00014597       0.00007741       0.00056859 </v>
   <v>       0.00025810      -0.00024524       0.00049468 </v>
   <v>      -0.00010720      -0.00023349       0.00009386 </v>
   <v>       0.00036704      -0.00021849       0.00044796 </v>
  </varray>
  <varray name="stress" >
   <v>      -0.37849884       5.63452305      -3.83702800 </v>
   <v>       5.63452300       2.00846795      -1.60570347 </v>
   <v>      -3.83702843      -1.60570389      -1.72074027 </v>
  </varray>
  <energy>
   <i name="e_fr_energy">   -272.23960506 </i>
   <i name="e_wo_entrp">   -272.23960506 </i>
   <i name="e_0_energy">   -272.23960506 </i>
  </energy>
  <time name="totalsc">    7.55    7.62</time>
 </calculation>
 <calculation>
  <scstep>
   <time name="dav">    2.28    2.29</time>
   <time name="total">    2.79    2.82</time>
   <energy>
    <i name="alphaZ">    301.36991750 </i>
    <i name="ewald">  -8827.83442916 </i>
    <i name="hartreedc">  -2202.22279707 </i>
    <i name="XCdc">    537.86863881 </i>
    <i name="pawpsdc">   9817.20903682 </i>
    <i name="pawaedc">  -9961.19490834 </i>
    <i name="eentropy">     -0.00000000 </i>
    <i name="bandstr">  -2626.98595794 </i>
    <i name="atom">  12703.13999606 </i>
    <i name="e_fr_energy">   -258.65050332 </i>
    <i name="e_wo_entrp">   -258.65050332 </i>
    <i name="e_0_energy">   -258.65050332 </i>
   </energy>
  </scstep>
  <scstep>
   <time name="diag">    0.36    0.37</time>
   <time name="diis">    0.79    0.79</time>
   <time name="orth">    0.07    0.07</time>
   <time name="total">    1.67    1.68</time>
   <energy>
    <i name="alphaZ">    301.36991750 </i>
    <i name="ewald">  -8827.83442916 </i>
    <i name="hartreedc">  -2202.22310105 </i>
    <i name="XCdc">    537.86863275 </i>
    <i name="pawpsdc">   9817.21147028 </i>
    <i name="pawaedc">  -9961.19733920 </i>
    <i name="eentropy">     -0.00000000 </i>
    <i name="bandstr">  -2626.98565069 </i>
    <i name="atom">  12703.13999606 </i>
    <i name="e_fr_energy">   -258.65050351 </i>
    <i name="e_wo_entrp">   -258.65050351 </i>
    <i name="e_0_energy">   -258.65050351 </i>
   </energy>
  </scstep>
  <structure>
   <crystal>
    <varray name="basis" >
     <v>       9.65755783       0.00000000       0.00000000 </v>
     <v>       0.00000000       9.65755783       0.00000000 </v>
     <v>       0.00000000       0.00000000       9.65755783 </v>
    </varray>
    <i name="volume">    900.74519025 </i>
    <varray name="rec_basis" >
     <v>       0.10354585       0.00000000       0.00000000 </v>
     <v>       0.00000000       0.10354585       0.00000000 </v>
     <v>       0.00000000       0.00000000       0.10354585 </v>
    </varray>
   </crystal>
   <varray name="positions" >
    <v>       0.95835208       0.31685933       0.33103853 </v>
    <v>       0.99430799       0.70141295       0.69615128 </v>
    <v>       0.02858559       0.27573258       0.68386515 </v>
    <v>       0.07317449       0.78755525       0.07909193 </v>
    <v>       0.18178047       0.19006722       0.97419437 </v>
    <v>       0.34472423       0.64878877       0.04763503 </v>
    <v>       0.79589862       0.21510739       0.02025215 </v>
    <v>       0.69483113       0.67827256       0.96747701 </v>
    <v>       0.19958084       0.98852107       0.22489578 </v>
    <v>       0.32195955       0.02614784       0.73040418 </v>
    <v>       0.83198704       0.96166160       0.82571173 </v>
    <v>       0.82470621       0.02052681       0.21474692 </v>
    <v>       0.27491038       0.80022514       0.48200607 </v>
    <v>       0.32963970       0.21528655       0.52567628 </v>
    <v>       0.72751142       0.82242725       0.52388679 </v>
    <v>       0.66606263       0.17108541       0.46735103 </v>
    <v>       0.21356339       0.47943995       0.70118643 </v>
    <v>       0.16863531       0.54817853       0.32165316 </v>
    <v>       0.71426911       0.48185824       0.20961140 </v>
    <v>       0.78985831       0.51568264       0.66980767 </v>
    <v>       0.47820294       0.32562979       0.83345362 </v>
    <v>       0.48632649       0.81195023       0.29922625 </v>
    <v>       0.51461706       0.30352336       0.18907870 </v>
    <v>       0.53604596       0.80356909       0.71818831 </v>
    <v>       0.50022775       0.50666719       0.49875131 </v>
    <v>       0.50723284       0.99341538       0.00688871 </v>
    <v>       0.00455591       0.49598326       0.00215720 </v>
    <v>       0.00489989       0.00117684       0.50918128 </v>
    <v>       0.12735438       0.89784241       0.64984283 </v>
    <v>       0.12400614       0.14065505       0.40019085 </v>
    <v>       0.91743634       0.86199152       0.37787462 </v>
    <v>       0.85801197       0.10871153       0.61967113 </v>
    <v>       0.88784723       0.62637987       0.12252069 </v>
    <v>       0.88688049       0.38045716       0.86858210 </v>
    <v>       0.13706019       0.62237408       0.89108132 </v>
    <v>       0.11695523       0.37452870       0.13446814 </v>
    <v>       0.62096759       0.11201344       0.87191523 </v>
    <v>       0.64106782       0.87681297       0.12346507 </v>
    <v>       0.37920189       0.11803236       0.12272281 </v>
    <v>       0.38286033       0.85938722       0.89841076 </v>
    <v>       0.63586944       0.62846705       0.38990546 </v>
    <v>       0.60617309       0.36405401       0.61649973 </v>
    <v>       0.38501424       0.63109902       0.62675392 </v>
    <v>       0.37083600       0.40014361       0.36865909 </v>
    <v>       0.76425945       0.74331937       0.74736796 </v>
    <v>       0.74272439       0.24671239       0.25150882 </v>
    <v>       0.25691851       0.75885540       0.24694345 </v>
    <v>       0.25874686       0.25329262       0.75504814 </v>
    <v>       0.99462435       0.01814837       0.02221068 </v>
    <v>       0.01522257       0.49272442       0.53285507 </v>
    <v>       0.49210657       0.97722055       0.51524489 </v>
    <v>       0.53171271       0.49081471       0.01928277 </v>
   </varray>
  </structure>
  <varray name="forces" >
   <v>       0.00002982      -0.00007997       0.00007616 </v>
   <v>      -0.00002358      -0.00005520      -0.00026015 </v>
   <v>      -0.00007267      -0.00000553       0.00014540 </v>
   <v>       0.00043220       0.00001226      -0.00073134 </v>
   <v>       0.00016204       0.00009841       0.00010797 </v>
   <v>      -0.00012799      -0.00046834       0.00016845 </v>
   <v>      -0.00017143      -0.00006792      -0.00010655 </v>
   <v>       0.00000814      -0.00000445      -0.00005845 </v>
   <v>      -0.00054690       0.00003757       0.00001089 </v>
   <v>       0.00013861       0.00006121       0.00026416 </v>
   <v>       0.00005631      -0.00011619       0.00003379 </v>
   <v>       0.00018051      -0.00007192       0.00010434 </v>
   <v>      -0.00015644       0.00009350       0.00002030 </v>
   <v>       0.00056516      -0.00004872       0.00012562 </v>
   <v>       0.00005040       0.00015713       0.00000592 </v>
   <v>       0.00002646      -0.00004927      -0.00013286 </v>
   <v>       0.00009889      -0.00002783      -0.00036238 </v>
   <v>      -0.00027956       0.00017676      -0.00007348 </v>
   <v>       0.00013614       0.00003513      -0.00010185 </v>
   <v>      -0.00017229       0.00005103      -0.00026255 </v>
[...]
       <r>     8.0048    13.0357   144.5967 </r>
       <r>     8.1977    13.3090   147.1640 </r>
       <r>     8.3906    14.7388   150.0099 </r>
       <r>     8.5835    13.6627   152.6472 </r>
       <r>     8.7764    16.5493   155.8420 </r>
       <r>     8.9693    15.9145   158.9145 </r>
       <r>     9.1622    19.1270   162.6073 </r>
       <r>     9.3551    18.3949   166.1580 </r>
       <r>     9.5480    18.0044   169.6351 </r>
       <r>     9.7409    16.0688   172.7377 </r>
       <r>     9.9338    15.1830   175.6698 </r>
       <r>    10.1267     1.7116   176.0000 </r>
       <r>    10.3196     0.0000   176.0000 </r>
       <r>    10.5125     0.0000   176.0000 </r>
       <r>    10.7054     0.0000   176.0000 </r>
       <r>    10.8983     0.0000   176.0000 </r>
       <r>    11.0912     0.0000   176.0000 </r>
       <r>    11.2841     0.0000   176.0000 </r>
       <r>    11.4770     0.0000   176.0000 </r>
       <r>    11.6699     0.0000   176.0000 </r>
       <r>    11.8628     0.0000   176.0000 </r>
       <r>    12.0557     0.0000   176.0000 </r>
       <r>    12.2486     0.0000   176.0000 </r>
       <r>    12.4415     0.0000   176.0000 </r>
       <r>    12.6344     0.0000   176.0000 </r>
      </set>
      <set comment="spin 2">
       <r>   -45.2349     0.0000     0.0000 </r>
       <r>   -45.0420     0.0000     0.0000 </r>
       <r>   -44.8491     0.0000     0.0000 </r>
       <r>   -44.6562     0.0000     0.0000 </r>
       <r>   -44.4633     0.0000     0.0000 </r>
       <r>   -44.2704     0.0000     0.0000 </r>
       <r>   -44.0775     0.0000     0.0000 </r>
       <r>   -43.8846     0.0000     0.0000 </r>
       <r>   -43.6917     0.0000     0.0000 </r>
       <r>   -43.4988     0.0000     0.0000 </r>
       <r>   -43.3059     0.0000     0.0000 </r>
       <r>   -43.1130     0.0000     0.0000 </r>
       <r>   -42.9201     0.0000     0.0000 </r>
       <r>   -42.7272     0.0000     0.0000 </r>
       <r>   -42.5343     6.7422     1.3005 </r>
       <r>   -42.3414    72.5565    15.2970 </r>
       <r>   -42.1485    44.9846    23.9861 </r>
       <r>   -41.9556     0.0722    24.0000 </r>
       <r>   -41.7628     0.0000    24.0000 </r>
       <r>   -41.5699     0.0000    24.0000 </r>
       <r>   -41.3770     0.0000    24.0000 </r>
       <r>   -41.1841     0.0000    24.0000 </r>
       <r>   -40.9912     0.0000    24.0000 </r>
       <r>   -40.7983     0.0000    24.0000 </r>
       <r>   -40.6054     0.0000    24.0000 </r>
       <r>   -40.4125     0.0000    24.0000 </r>
       <r>   -40.2196     0.0000    24.0000 </r>
       <r>   -40.0267     0.0000    24.0000 </r>
       <r>   -39.8338     0.0000    24.0000 </r>
       <r>   -39.6409     0.0000    24.0000 </r>
       <r>   -39.4480     0.0000    24.0000 </r>
       <r>   -39.2551     0.0000    24.0000 </r>
       <r>   -39.0622     0.0000    24.0000 </r>
       <r>   -38.8693     0.0000    24.0000 </r>
       <r>   -38.6764     0.0000    24.0000 </r>
       <r>   -38.4835     0.0000    24.0000 </r>
       <r>   -38.2906     0.0000    24.0000 </r>
       <r>   -38.0977     0.0000    24.0000 </r>
       <r>   -37.9048     0.0000    24.0000 </r>
       <r>   -37.7119     0.0000    24.0000 </r>
       <r>   -37.5190     0.0000    24.0000 </r>
       <r>   -37.3261     0.0000    24.0000 </r>
       <r>   -37.1332     0.0000    24.0000 </r>
       <r>   -36.9403     0.0000    24.0000 </r>
       <r>   -36.7474     0.0000    24.0000 </r>
       <r>   -36.5545     0.0000    24.0000 </r>
       <r>   -36.3616     0.0000    24.0000 </r>
       <r>   -36.1687     0.0000    24.0000 </r>
       <r>   -35.9758     0.0000    24.0000 </r>
       <r>   -35.7829     0.0000    24.0000 </r>
       <r>   -35.5900     0.0000    24.0000 </r>
       <r>   -35.3971     0.0000    24.0000 </r>
       <r>   -35.2042     0.0000    24.0000 </r>
       <r>   -35.0113     0.0000    24.0000 </r>
       <r>   -34.8184     0.0000    24.0000 </r>
       <r>   -34.6255     0.0000    24.0000 </r>
       <r>   -34.4326     0.0000    24.0000 </r>
       <r>   -34.2397     0.0000    24.0000 </r>
       <r>   -34.0468     0.0000    24.0000 </r>
       <r>   -33.8540     0.0000    24.0000 </r>
       <r>   -33.6611     0.0000    24.0000 </r>
       <r>   -33.4682     0.0000    24.0000 </r>
       <r>   -33.2753     0.0000    24.0000 </r>
       <r>   -33.0824     0.0000    24.0000 </r>
       <r>   -32.8895     0.0000    24.0000 </r>
       <r>   -32.6966     0.0000    24.0000 </r>
       <r>   -32.5037     0.0000    24.0000 </r>
       <r>   -32.3108     0.0000    24.0000 </r>
       <r>   -32.1179     0.0000    24.0000 </r>
       <r>   -31.9250     0.0000    24.0000 </r>
       <r>   -31.7321     0.0000    24.0000 </r>
       <r>   -31.5392     0.0000    24.0000 </r>
       <r>   -31.3463     0.0000    24.0000 </r>
       <r>   -31.1534     0.0000    24.0000 </r>
       <r>   -30.9605     0.0000    24.0000 </r>
       <r>   -30.7676     0.0000    24.0000 </r>
       <r>   -30.5747     0.0000    24.0000 </r>
       <r>   -30.3818     0.0000    24.0000 </r>
       <r>   -30.1889     0.0000    24.0000 </r>
       <r>   -29.9960     0.0000    24.0000 </r>
       <r>   -29.8031     0.0000    24.0000 </r>
       <r>   -29.6102     0.0000    24.0000 </r>
       <r>   -29.4173     0.0000    24.0000 </r>
       <r>   -29.2244     0.0000    24.0000 </r>
       <r>   -29.0315     0.0000    24.0000 </r>
       <r>   -28.8386     0.0000    24.0000 </r>
       <r>   -28.6457     0.0000    24.0000 </r>
       <r>   -28.4528     0.0000    24.0000 </r>
       <r>   -28.2599     0.0000    24.0000 </r>
       <r>   -28.0670     0.0000    24.0000 </r>
       <r>   -27.8741     0.0000    24.0000 </r>
       <r>   -27.6812     0.0000    24.0000 </r>
       <r>   -27.4883     0.0000    24.0000 </r>
       <r>   -27.2954     0.0000    24.0000 </r>
       <r>   -27.1025     0.0000    24.0000 </r>
       <r>   -26.9096     0.0000    24.0000 </r>
       <r>   -26.7167     0.0000    24.0000 </r>
       <r>   -26.5238     0.0000    24.0000 </r>
       <r>   -26.3309     0.0000    24.0000 </r>
       <r>   -26.1380     0.0000    24.0000 </r>
       <r>   -25.9452     0.0000    24.0000 </r>
       <r>   -25.7523     0.0000    24.0000 </r>
       <r>   -25.5594     0.0000    24.0000 </r>
       <r>   -25.3665     0.0000    24.0000 </r>
       <r>   -25.1736     0.0000    24.0000 </r>
       <r>   -24.9807     0.0000    24.0000 </r>
       <r>   -24.7878     0.0000    24.0000 </r>
       <r>   -24.5949     0.0000    24.0000 </r>
       <r>   -24.4020     0.0000    24.0000 </r>
       <r>   -24.2091     0.0000    24.0000 </r>
       <r>   -24.0162     0.0000    24.0000 </r>
       <r>   -23.8233     0.0000    24.0000 </r>
       <r>   -23.6304     0.0000    24.0000 </r>
       <r>   -23.4375     0.0000    24.0000 </r>
       <r>   -23.2446     0.0000    24.0000 </r>
       <r>   -23.0517     0.0000    24.0000 </r>
       <r>   -22.8588     0.0000    24.0000 </r>
       <r>   -22.6659     0.0000    24.0000 </r>
       <r>   -22.4730     0.0000    24.0000 </r>
       <r>   -22.2801     0.0000    24.0000 </r>
       <r>   -22.0872     0.0000    24.0000 </r>
       <r>   -21.8943     0.0000    24.0000 </r>
       <r>   -21.7014     0.0000    24.0000 </r>
       <r>   -21.5085     0.0000    24.0000 </r>
       <r>   -21.3156     0.0000    24.0000 </r>
       <r>   -21.1227     0.0000    24.0000 </r>
       <r>   -20.9298     0.0000    24.0000 </r>
       <r>   -20.7369     0.0000    24.0000 </r>
       <r>   -20.5440     0.0000    24.0000 </r>
       <r>   -20.3511     0.0000    24.0000 </r>
       <r>   -20.1582     0.0000    24.0000 </r>
       <r>   -19.9653     0.0000    24.0000 </r>
       <r>   -19.7724     0.0000    24.0000 </r>
       <r>   -19.5795     0.0000    24.0000 </r>
       <r>   -19.3866     0.0000    24.0000 </r>
       <r>   -19.1937     0.0000    24.0000 </r>
       <r>   -19.0008     0.0000    24.0000 </r>
       <r>   -18.8079     0.0000    24.0000 </r>
       <r>   -18.6150     0.0000    24.0000 </r>
       <r>   -18.4221     0.0000    24.0000 </r>
       <r>   -18.2292     0.0000    24.0000 </r>
       <r>   -18.0364     0.0000    24.0000 </r>
       <r>   -17.8435     0.0000    24.0000 </r>
       <r>   -17.6506     0.0000    24.0000 </r>
       <r>   -17.4577     0.0000    24.0000 </r>
       <r>   -17.2648     0.0000    24.0000 </r>
       <r>   -17.0719     0.0000    24.0000 </r>
       <r>   -16.8790     0.0000    24.0000 </r>
       <r>   -16.6861     0.0000    24.0000 </r>
       <r>   -16.4932     0.0000    24.0000 </r>
       <r>   -16.3003     0.0000    24.0000 </r>
       <r>   -16.1074     0.0000    24.0000 </r>
       <r>   -15.9145     0.0000    24.0000 </r>
       <r>   -15.7216     0.0000    24.0000 </r>
       <r>   -15.5287     0.0000    24.0000 </r>
       <r>   -15.3358     0.0000    24.0000 </r>
       <r>   -15.1429     0.0000    24.0000 </r>
       <r>   -14.9500     0.0000    24.0000 </r>
       <r>   -14.7571     0.0000    24.0000 </r>
       <r>   -14.5642     0.0000    24.0000 </r>
       <r>   -14.3713     0.0000    24.0000 </r>
       <r>   -14.1784     0.0000    24.0000 </r>
       <r>   -13.9855     0.0000    24.0000 </r>
       <r>   -13.7926     0.0000    24.0000 </r>
       <r>   -13.5997     0.0000    24.0000 </r>
       <r>   -13.4068     0.0000    24.0000 </r>
       <r>   -13.2139     0.0000    24.0000 </r>
       <r>   -13.0210     4.0269    24.7768 </r>
       <r>   -12.8281    16.7095    28.0000 </r>
       <r>   -12.6352     3.8728    28.7471 </r>
       <r>   -12.4423    16.7566    31.9794 </r>
       <r>   -12.2494     0.1069    32.0000 </r>
       <r>   -12.0565     0.0000    32.0000 </r>
       <r>   -11.8636     0.0000    32.0000 </r>
       <r>   -11.6707     0.0000    32.0000 </r>
       <r>   -11.4778     0.0000    32.0000 </r>
       <r>   -11.2849     0.0000    32.0000 </r>
       <r>   -11.0920     0.0000    32.0000 </r>
       <r>   -10.8991     0.0000    32.0000 </r>
       <r>   -10.7062     0.0000    32.0000 </r>
       <r>   -10.5133     0.0000    32.0000 </r>
       <r>   -10.3204     0.0373    32.0072 </r>
       <r>   -10.1276    15.7831    35.0517 </r>
       <r>    -9.9347    29.0187    40.6497 </r>
       <r>    -9.7418    17.3209    44.0000 </r>
       <r>    -9.5489     0.0000    44.0000 </r>
       <r>    -9.3560     0.0000    44.0000 </r>
       <r>    -9.1631     0.0000    44.0000 </r>
       <r>    -8.9702     0.0000    44.0000 </r>
       <r>    -8.7773     0.0000    44.0000 </r>
       <r>    -8.5844     0.0000    44.0000 </r>
       <r>    -8.3915     0.1242    44.0240 </r>
       <r>    -8.1986    20.5457    47.9872 </r>
       <r>    -8.0057     0.0171    48.0000 </r>
       <r>    -7.8128     0.0000    48.0000 </r>
       <r>    -7.6199     0.0000    48.0000 </r>
       <r>    -7.4270     0.0000    48.0000 </r>
       <r>    -7.2341     0.0000    48.0000 </r>
       <r>    -7.0412     0.0000    48.0000 </r>
       <r>    -6.8483     0.0000    48.0000 </r>
       <r>    -6.6554     0.0000    48.0000 </r>
       <r>    -6.4625     0.0000    48.0000 </r>
       <r>    -6.2696     0.0000    48.0000 </r>
       <r>    -6.0767     3.7044    48.7146 </r>
       <r>    -5.8838     1.4797    49.0000 </r>
       <r>    -5.6909     1.3635    49.2630 </r>
       <r>    -5.4980    14.1887    52.0000 </r>
       <r>    -5.3051     0.0000    52.0000 </r>
       <r>    -5.1122     0.0000    52.0000 </r>
       <r>    -4.9193     0.0000    52.0000 </r>
       <r>    -4.7264     0.0000    52.0000 </r>
       <r>    -4.5335     0.0000    52.0000 </r>
       <r>    -4.3406     0.0000    52.0000 </r>
       <r>    -4.1477     0.0000    52.0000 </r>
       <r>    -3.9548     0.0000    52.0000 </r>
       <r>    -3.7619     0.0000    52.0000 </r>
       <r>    -3.5690     0.0000    52.0000 </r>
       <r>    -3.3761     0.0000    52.0000 </r>
       <r>    -3.1832     6.2992    53.2151 </r>
       <r>    -2.9903     9.2531    55.0000 </r>
       <r>    -2.7974     4.3312    55.8355 </r>
       <r>    -2.6045    10.5577    57.8730 </r>
       <r>    -2.4116    13.2743    60.4337 </r>
       <r>    -2.2188    18.4667    63.9994 </r>
       <r>    -2.0259     0.0000    64.0000 </r>
       <r>    -1.8330     0.0000    64.0000 </r>
       <r>    -1.6401     0.0006    64.0001 </r>
       <r>    -1.4472    15.4227    66.9751 </r>
       <r>    -1.2543    19.2232    70.6879 </r>
       <r>    -1.0614    22.2589    74.9887 </r>
       <r>    -0.8685     5.2132    76.0000 </r>
       <r>    -0.6756     0.0000    76.0000 </r>
       <r>    -0.4827    10.1920    77.9660 </r>
       <r>    -0.2898    12.0839    80.2970 </r>
       <r>    -0.0969    10.6599    82.3561 </r>
       <r>     0.0960    30.1475    88.1724 </r>
       <r>     0.2889    23.7473    92.7594 </r>
       <r>     0.4818    16.7906    95.9987 </r>
       <r>     0.6747     0.3827    96.0738 </r>
       <r>     0.8676    12.8029    98.5435 </r>
       <r>     1.0605    23.0630   102.9931 </r>
       <r>     1.2534    23.1875   107.4669 </r>
       <r>     1.4463    25.0622   112.3020 </r>
       <r>     1.6392    27.0840   117.5304 </r>
       <r>     1.8321    12.0450   119.8557 </r>
       <r>     2.0250     0.7205   120.0000 </r>
       <r>     2.2179     0.0000   120.0000 </r>
       <r>     2.4108     0.0000   120.0000 </r>
       <r>     2.6037     0.0000   120.0000 </r>
       <r>     2.7966     0.0000   120.0000 </r>
       <r>     2.9895     0.0000   120.0000 </r>
       <r>     3.1824     0.0000   120.0000 </r>
       <r>     3.3753     0.0000   120.0000 </r>
       <r>     3.5682     0.0000   120.0000 </r>
       <r>     3.7611     0.0000   120.0000 </r>
       <r>     3.9540     0.0000   120.0000 </r>
       <r>     4.1469     0.0000   120.0000 </r>
       <r>     4.3398     0.0000   120.0000 </r>
       <r>     4.5327     5.1710   120.9975 </r>
       <r>     4.7256     0.0000   121.0000 </r>
       <r>     4.9185     0.0000   121.0000 </r>
       <r>     5.1114     0.0000   121.0000 </r>
       <r>     5.3043     5.7601   122.1111 </r>
       <r>     5.4972     9.7891   124.0000 </r>
       <r>     5.6900     0.0000   124.0000 </r>
       <r>     5.8829     0.3287   124.0634 </r>
       <r>     6.0758    13.0075   126.5725 </r>
       <r>     6.2687    16.5181   129.7620 </r>
       <r>     6.4616     1.8034   130.1099 </r>
       <r>     6.6545    13.3998   132.6947 </r>
       <r>     6.8474     8.9540   134.4225 </r>
       <r>     7.0403     8.5345   136.0721 </r>
       <r>     7.2332     4.8102   137.0000 </r>
       <r>     7.4261     4.7487   137.9160 </r>
       <r>     7.6190     9.0500   139.6632 </r>
       <r>     7.8119    12.5357   142.0814 </r>
       <r>     8.0048    13.0357   144.5967 </r>
       <r>     8.1977    13.3090   147.1640 </r>
       <r>     8.3906    14.7388   150.0099 </r>
       <r>     8.5835    13.6627   152.6472 </r>
       <r>     8.7764    16.5493   155.8420 </r>
       <r>     8.9693    15.9145   158.9145 </r>
       <r>     9.1622    19.1269   162.6072 </r>
       <r>     9.3551    18.4036   166.1597 </r>
       <r>     9.5480    18.0161   169.6390 </r>
       <r>     9.7409    15.9152   172.7120 </r>
       <r>     9.9338    15.0969   175.6281 </r>
       <r>    10.1267     1.9275   176.0000 </r>
       <r>    10.3196     0.0000   176.0000 </r>
       <r>    10.5125     0.0000   176.0000 </r>
       <r>    10.7054     0.0000   176.0000 </r>
       <r>    10.8983     0.0000   176.0000 </r>
       <r>    11.0912     0.0000   176.0000 </r>
       <r>    11.2841     0.0000   176.0000 </r>
       <r>    11.4770     0.0000   176.0000 </r>
       <r>    11.6699     0.0000   176.0000 </r>
       <r>    11.8628     0.0000   176.0000 </r>
       <r>    12.0557     0.0000   176.0000 </r>
       <r>    12.2486     0.0000   176.0000 </r>
       <r>    12.4415     0.0000   176.0000 </r>
       <r>    12.6344     0.0000   176.0000 </r>
      </set>
     </set>
    </array>
   </total>
  </dos>
 </calculation>
 <structure name="finalpos" >
  <crystal>
   <varray name="basis" >
    <v>       9.65755783       0.00000000       0.00000000 </v>
    <v>       0.00000000       9.65755783       0.00000000 </v>
    <v>       0.00000000       0.00000000       9.65755783 </v>
   </varray>
   <i name="volume">    900.74519025 </i>
   <varray name="rec_basis" >
    <v>       0.10354585       0.00000000       0.00000000 </v>
    <v>       0.00000000       0.10354585       0.00000000 </v>
    <v>       0.00000000       0.00000000       0.10354585 </v>
   </varray>
  </crystal>
  <varray name="positions" >
   <v>       0.95835192       0.31685874       0.33103917 </v>
   <v>       0.99430774       0.70141252       0.69614921 </v>
   <v>       0.02858495       0.27573254       0.68386619 </v>
   <v>       0.07317737       0.78755527       0.07908696 </v>
   <v>       0.18178152       0.19006794       0.97419491 </v>
   <v>       0.34472333       0.64878575       0.04763612 </v>
   <v>       0.79589717       0.21510678       0.02025111 </v>
   <v>       0.69483125       0.67827248       0.96747641 </v>
   <v>       0.19957707       0.98852095       0.22489566 </v>
   <v>       0.32196063       0.02614832       0.73040604 </v>
   <v>       0.83198746       0.96166074       0.82571183 </v>
   <v>       0.82470757       0.02052615       0.21474765 </v>
   <v>       0.27490918       0.80022583       0.48200606 </v>
   <v>       0.32964366       0.21528613       0.52567716 </v>
   <v>       0.72751201       0.82242850       0.52388656 </v>
   <v>       0.66606279       0.17108496       0.46734986 </v>
   <v>       0.21356400       0.47943970       0.70118373 </v>
   <v>       0.16863312       0.54818007       0.32165261 </v>
   <v>       0.71427014       0.48185846       0.20961033 </v>
   <v>       0.78985700       0.51568295       0.66980573 </v>
   <v>       0.47820257       0.32562985       0.83345355 </v>
   <v>       0.48632650       0.81195002       0.29922602 </v>
   <v>       0.51461665       0.30352313       0.18907953 </v>
   <v>       0.53604646       0.80357090       0.71818908 </v>
   <v>       0.50022802       0.50666784       0.49875122 </v>
   <v>       0.50723294       0.99341449       0.00688860 </v>
   <v>       0.00455381       0.49598363       0.00215521 </v>
   <v>       0.00489970       0.00117705       0.50918341 </v>
   <v>       0.12735452       0.89784292       0.64984488 </v>
   <v>       0.12400712       0.14065566       0.40019298 </v>
   <v>       0.91743874       0.86199302       0.37787741 </v>
   <v>       0.85801122       0.10871139       0.61967174 </v>
   <v>       0.88784774       0.62638158       0.12251998 </v>
   <v>       0.88688005       0.38045883       0.86858314 </v>
   <v>       0.13705996       0.62237172       0.89107983 </v>
   <v>       0.11695510       0.37452804       0.13446826 </v>
   <v>       0.62096586       0.11201204       0.87191514 </v>
   <v>       0.64106797       0.87681339       0.12346518 </v>
   <v>       0.37920172       0.11803127       0.12272436 </v>
   <v>       0.38286028       0.85938644       0.89841209 </v>
   <v>       0.63586981       0.62846636       0.38990587 </v>
   <v>       0.60617177       0.36405371       0.61649866 </v>
   <v>       0.38501531       0.63109985       0.62675345 </v>
   <v>       0.37083476       0.40014457       0.36865917 </v>
   <v>       0.76425949       0.74331933       0.74736716 </v>
   <v>       0.74272479       0.24671210       0.25150802 </v>
   <v>       0.25691847       0.75885595       0.24694311 </v>
   <v>       0.25874653       0.25329291       0.75504819 </v>
   <v>       0.99462472       0.01814879       0.02221159 </v>
   <v>       0.01522254       0.49272387       0.53285529 </v>
   <v>       0.49210660       0.97722096       0.51524488 </v>
   <v>       0.53171350       0.49081367       0.01928348 </v>
  </varray>
 </structure>
</modeling>
