unknown system                          
           1
     9.657558    0.000000    0.000000
     0.000000    9.657558    0.000000
     0.000000    0.000000    9.657558
   Li   P    S    Cl
    24     4    20     4
Direct configuration=     1
   0.95835188  0.31686100  0.33103706
   0.99430832  0.70141390  0.69615632
   0.02858671  0.27573300  0.68386275
   0.07316710  0.78755544  0.07910427
   0.18177764  0.19006523  0.97419197
   0.34472663  0.64879661  0.04763168
   0.79590232  0.21510940  0.02025391
   0.69483072  0.67827263  0.96747802
   0.19959020  0.98852094  0.22489589
   0.32195688  0.02614656  0.73039932
   0.83198586  0.96166382  0.82571127
   0.82470284  0.02052821  0.21474500
   0.27491336  0.80022336  0.48200591
   0.32962986  0.21528766  0.52567425
   0.72751006  0.82242414  0.52388712
   0.66606223  0.17108661  0.46735390
   0.21356169  0.47944075  0.70119314
   0.16864077  0.54817520  0.32165477
   0.71426643  0.48185789  0.20961410
   0.78986174  0.51568178  0.66981263
   0.47820409  0.32562968  0.83345342
   0.48632662  0.81195077  0.29922670
   0.51461819  0.30352395  0.18907627
   0.53604484  0.80356456  0.71818615
   0.50022986  0.50666742  0.49875329
   0.50723535  0.99341603  0.00688526
   0.00455325  0.49598296  0.00215035
   0.00489577  0.00117105  0.50917392
   0.12735668  0.89783949  0.64983945
   0.12400715  0.14065769  0.40018194
   0.91743053  0.86198975  0.37786835
   0.85801249  0.10871385  0.61967096
   0.88784415  0.62637750  0.12252450
   0.88688439  0.38045507  0.86858280
   0.13706187  0.62238108  0.89108471
   0.11696130  0.37452411  0.13447445
   0.62097228  0.11201746  0.87191542
   0.64106910  0.87681080  0.12346636
   0.37919895  0.11803905  0.12272239
   0.38285948  0.85938825  0.89840562
   0.63586929  0.62846968  0.38990308
   0.60617717  0.36405412  0.61650305
   0.38501000  0.63109826  0.62675594
   0.37083574  0.40013826  0.36865529
   0.76425915  0.74331964  0.74736964
   0.74272368  0.24671335  0.25151008
   0.25691873  0.75885413  0.24694440
   0.25874748  0.25329194  0.75504740
   0.99462144  0.01814717  0.02221163
   0.01522495  0.49272470  0.53285841
   0.49210550  0.97721668  0.51524576
   0.53171239  0.49081746  0.01928353
Direct configuration=     2
   0.95835204  0.31686054  0.33103742
   0.99430828  0.70141367  0.69615504
   0.02858650  0.27573283  0.68386333
   0.07316904  0.78755535  0.07910109
   0.18177841  0.19006578  0.97419277
   0.34472599  0.64879453  0.04763265
   0.79590135  0.21510880  0.02025360
   0.69483084  0.67827263  0.96747784
   0.19958779  0.98852105  0.22489590
   0.32195757  0.02614691  0.73040061
   0.83198619  0.96166323  0.82571142
   0.82470371  0.02052790  0.21474551
   0.27491259  0.80022382  0.48200598
   0.32963240  0.21528736  0.52567475
   0.72751039  0.82242494  0.52388707
   0.66606233  0.17108629  0.46735316
   0.21356216  0.47944052  0.70119141
   0.16863936  0.54817597  0.32165431
   0.71426715  0.48185795  0.20961340
   0.78986083  0.51568202  0.66981133
   0.47820376  0.32562970  0.83345353
   0.48632656  0.81195063  0.29922661
   0.51461787  0.30352379  0.18907696
   0.53604511  0.80356573  0.71818674
   0.50022883  0.50666704  0.49875248
   0.50723423  0.99341614  0.00688679
   0.00455530  0.49598293  0.00215415
   0.00489762  0.00117345  0.50917617
   0.12735563  0.89784053  0.64984002
   0.12400629  0.14065629  0.40018486
   0.91743200  0.86198987  0.37786986
   0.85801259  0.10871291  0.61967078
   0.88784526  0.62637779  0.12252316
   0.88688290  0.38045525  0.86858205
   0.13706125  0.62237908  0.89108389
   0.11695874  0.37452637  0.13447168
   0.62097100  0.11201633  0.87191538
   0.64106848  0.87681156  0.12346575
   0.37920029  0.11803663  0.12272190
   0.38285987  0.85938814  0.89840727
   0.63586919  0.62846884  0.38990393
   0.60617597  0.36405420  0.61650208
   0.38501137  0.63109823  0.62675528
   0.37083639  0.40014015  0.36865689
   0.76425926  0.74331954  0.74736926
   0.74272381  0.24671306  0.25150989
   0.25691866  0.75885444  0.24694414
   0.25874736  0.25329211  0.75504769
   0.99462254  0.01814751  0.02221083
   0.01522393  0.49272482  0.53285688
   0.49210595  0.97721817  0.51524539
   0.53171218  0.49081673  0.01928290
Direct configuration=     3
   0.95835211  0.31686033  0.33103757
   0.99430827  0.70141357  0.69615447
   0.02858641  0.27573276  0.68386359
   0.07316990  0.78755531  0.07909969
   0.18177875  0.19006602  0.97419313
   0.34472570  0.64879361  0.04763308
   0.79590092  0.21510854  0.02025346
   0.69483089  0.67827263  0.96747777
   0.19958673  0.98852109  0.22489590
   0.32195787  0.02614706  0.73040118
   0.83198633  0.96166297  0.82571149
   0.82470409  0.02052776  0.21474573
   0.27491225  0.80022403  0.48200601
   0.32963351  0.21528723  0.52567497
   0.72751053  0.82242529  0.52388705
   0.66606238  0.17108615  0.46735284
   0.21356236  0.47944041  0.70119065
   0.16863873  0.54817631  0.32165411
   0.71426746  0.48185797  0.20961309
   0.78986043  0.51568213  0.66981076
   0.47820361  0.32562971  0.83345358
   0.48632653  0.81195057  0.29922656
   0.51461774  0.30352372  0.18907726
   0.53604523  0.80356624  0.71818701
   0.50022838  0.50666687  0.49875212
   0.50723373  0.99341619  0.00688747
   0.00455620  0.49598291  0.00215583
   0.00489844  0.00117451  0.50917716
   0.12735517  0.89784099  0.64984027
   0.12400591  0.14065567  0.40018615
   0.91743265  0.86198992  0.37787052
   0.85801263  0.10871249  0.61967069
   0.88784575  0.62637791  0.12252258
   0.88688224  0.38045533  0.86858172
   0.13706097  0.62237820  0.89108353
   0.11695762  0.37452737  0.13447046
   0.62097044  0.11201583  0.87191536
   0.64106821  0.87681189  0.12346549
   0.37920088  0.11803557  0.12272169
   0.38286004  0.85938809  0.89840799
   0.63586915  0.62846847  0.38990430
   0.60617545  0.36405424  0.61650165
   0.38501197  0.63109821  0.62675498
   0.37083668  0.40014099  0.36865759
   0.76425930  0.74331950  0.74736910
   0.74272387  0.24671293  0.25150980
   0.25691863  0.75885458  0.24694402
   0.25874730  0.25329219  0.75504782
   0.99462302  0.01814765  0.02221048
   0.01522349  0.49272486  0.53285620
   0.49210615  0.97721883  0.51524522
   0.53171209  0.49081640  0.01928262
Direct configuration=     4
   0.95835225  0.31685993  0.33103788
   0.99430824  0.70141337  0.69615335
   0.02858623  0.27573261  0.68386410
   0.07317161  0.78755522  0.07909689
   0.18177942  0.19006651  0.97419383
   0.34472514  0.64879178  0.04763393
   0.79590006  0.21510801  0.02025318
   0.69483100  0.67827263  0.96747761
   0.19958460  0.98852119  0.22489590
   0.32195848  0.02614737  0.73040232
   0.83198662  0.96166245  0.82571163
   0.82470486  0.02052748  0.21474619
   0.27491158  0.80022444  0.48200607
   0.32963575  0.21528698  0.52567541
   0.72751082  0.82242600  0.52388701
   0.66606247  0.17108586  0.46735219
   0.21356277  0.47944020  0.70118913
   0.16863749  0.54817699  0.32165372
   0.71426809  0.48185802  0.20961248
   0.78985962  0.51568234  0.66980962
   0.47820331  0.32562973  0.83345368
   0.48632647  0.81195044  0.29922648
   0.51461746  0.30352358  0.18907787
   0.53604546  0.80356728  0.71818753
   0.50022747  0.50666653  0.49875140
   0.50723274  0.99341628  0.00688881
   0.00455800  0.49598288  0.00215919
   0.00490008  0.00117663  0.50917915
   0.12735424  0.89784190  0.64984078
   0.12400516  0.14065444  0.40018872
   0.91743395  0.86199003  0.37787184
   0.85801271  0.10871166  0.61967053
   0.88784673  0.62637817  0.12252140
   0.88688093  0.38045550  0.86858105
   0.13706043  0.62237644  0.89108281
   0.11695536  0.37452936  0.13446802
   0.62096932  0.11201484  0.87191532
   0.64106767  0.87681256  0.12346496
   0.37920207  0.11803345  0.12272126
   0.38286038  0.85938799  0.89840944
   0.63586906  0.62846773  0.38990504
   0.60617440  0.36405431  0.61650080
   0.38501318  0.63109819  0.62675440
   0.37083725  0.40014266  0.36865900
   0.76425940  0.74331941  0.74736877
   0.74272399  0.24671267  0.25150962
   0.25691856  0.75885486  0.24694379
   0.25874719  0.25329234  0.75504808
   0.99462399  0.01814795  0.02220978
   0.01522260  0.49272496  0.53285485
   0.49210654  0.97722014  0.51524490
   0.53171191  0.49081576  0.01928206
Direct configuration=     5
   0.95835208  0.31685933  0.33103853
   0.99430799  0.70141295  0.69615128
   0.02858559  0.27573258  0.68386515
   0.07317449  0.78755525  0.07909193
   0.18178047  0.19006722  0.97419437
   0.34472423  0.64878877  0.04763503
   0.79589862  0.21510739  0.02025215
   0.69483113  0.67827256  0.96747701
   0.19958084  0.98852107  0.22489578
   0.32195955  0.02614784  0.73040418
   0.83198704  0.96166160  0.82571173
   0.82470621  0.02052681  0.21474692
   0.27491038  0.80022514  0.48200607
   0.32963970  0.21528655  0.52567628
   0.72751142  0.82242725  0.52388679
   0.66606263  0.17108541  0.46735103
   0.21356339  0.47943995  0.70118643
   0.16863531  0.54817853  0.32165316
   0.71426911  0.48185824  0.20961140
   0.78985831  0.51568264  0.66980767
   0.47820294  0.32562979  0.83345362
   0.48632649  0.81195023  0.29922625
   0.51461706  0.30352336  0.18907870
   0.53604596  0.80356909  0.71818831
   0.50022775  0.50666719  0.49875131
   0.50723284  0.99341538  0.00688871
   0.00455591  0.49598326  0.00215720
   0.00489989  0.00117684  0.50918128
   0.12735438  0.89784241  0.64984283
   0.12400614  0.14065505  0.40019085
   0.91743634  0.86199152  0.37787462
   0.85801197  0.10871153  0.61967113
   0.88784723  0.62637987  0.12252069
   0.88688049  0.38045716  0.86858210
   0.13706019  0.62237408  0.89108132
   0.11695523  0.37452870  0.13446814
   0.62096759  0.11201344  0.87191523
   0.64106782  0.87681297  0.12346507
   0.37920189  0.11803236  0.12272281
   0.38286033  0.85938722  0.89841076
   0.63586944  0.62846705  0.38990546
   0.60617309  0.36405401  0.61649973
   0.38501424  0.63109902  0.62675392
   0.37083600  0.40014361  0.36865909
   0.76425945  0.74331937  0.74736796
   0.74272439  0.24671239  0.25150882
   0.25691851  0.75885540  0.24694345
   0.25874686  0.25329262  0.75504814
   0.99462435  0.01814837  0.02221068
   0.01522257  0.49272442  0.53285507
   0.49210657  0.97722055  0.51524489
   0.53171271  0.49081471  0.01928277
Direct configuration=     6
   0.95835192  0.31685874  0.33103917
   0.99430774  0.70141252  0.69614921
   0.02858495  0.27573254  0.68386619
   0.07317737  0.78755527  0.07908696
   0.18178152  0.19006794  0.97419491
   0.34472333  0.64878575  0.04763612
   0.79589717  0.21510678  0.02025111
   0.69483125  0.67827248  0.96747641
   0.19957707  0.98852095  0.22489566
   0.32196063  0.02614832  0.73040604
   0.83198746  0.96166074  0.82571183
   0.82470757  0.02052615  0.21474765
   0.27490918  0.80022583  0.48200606
   0.32964366  0.21528613  0.52567716
   0.72751201  0.82242850  0.52388656
   0.66606279  0.17108496  0.46734986
   0.21356400  0.47943970  0.70118373
   0.16863312  0.54818007  0.32165261
   0.71427014  0.48185846  0.20961033
   0.78985700  0.51568295  0.66980573
   0.47820257  0.32562985  0.83345355
   0.48632650  0.81195002  0.29922602
   0.51461665  0.30352313  0.18907953
   0.53604646  0.80357090  0.71818908
   0.50022802  0.50666784  0.49875122
   0.50723294  0.99341449  0.00688860
   0.00455381  0.49598363  0.00215521
   0.00489970  0.00117705  0.50918341
   0.12735452  0.89784292  0.64984488
   0.12400712  0.14065566  0.40019298
   0.91743874  0.86199302  0.37787741
   0.85801122  0.10871139  0.61967174
   0.88784774  0.62638158  0.12251998
   0.88688005  0.38045883  0.86858314
   0.13705996  0.62237172  0.89107983
   0.11695510  0.37452804  0.13446826
   0.62096586  0.11201204  0.87191514
   0.64106797  0.87681339  0.12346518
   0.37920172  0.11803127  0.12272436
   0.38286028  0.85938644  0.89841209
   0.63586981  0.62846636  0.38990587
   0.60617177  0.36405371  0.61649866
   0.38501531  0.63109985  0.62675345
   0.37083476  0.40014457  0.36865917
   0.76425949  0.74331933  0.74736716
   0.74272479  0.24671210  0.25150802
   0.25691847  0.75885595  0.24694311
   0.25874653  0.25329291  0.75504819
   0.99462472  0.01814879  0.02221159
   0.01522254  0.49272387  0.53285529
   0.49210660  0.97722096  0.51524488
   0.53171350  0.49081367  0.01928348
