  52  52   0   4
  0.1804528E+02  0.9790141E-09  0.9790141E-09  0.9790141E-09  0.2000000E-15
  1.000000000000000E-004
  CAR 
 unknown system                          
     12.12947444    -45.46663007  301      1.59418699      1.00000000
    -45.467  0.0000E+00  0.0000E+00  0.0000E+00  0.0000E+00
    -45.275  0.0000E+00  0.0000E+00  0.0000E+00  0.0000E+00
    -45.083  0.0000E+00  0.0000E+00  0.0000E+00  0.0000E+00
    -44.891  0.0000E+00  0.0000E+00  0.0000E+00  0.0000E+00
    -44.699  0.0000E+00  0.0000E+00  0.0000E+00  0.0000E+00
    -44.507  0.0000E+00  0.0000E+00  0.0000E+00  0.0000E+00
    -44.315  0.0000E+00  0.0000E+00  0.0000E+00  0.0000E+00
    -44.123  0.0000E+00  0.0000E+00  0.0000E+00  0.0000E+00
    -43.931  0.0000E+00  0.0000E+00  0.0000E+00  0.0000E+00
    -43.739  0.0000E+00  0.0000E+00  0.0000E+00  0.0000E+00
    -43.547  0.0000E+00  0.0000E+00  0.0000E+00  0.0000E+00
    -43.355  0.0000E+00  0.0000E+00  0.0000E+00  0.0000E+00
    -43.163  0.0000E+00  0.0000E+00  0.0000E+00  0.0000E+00
    -42.971  0.1654E-09  0.1654E-09  0.3176E-10  0.3176E-10
    -42.779  0.4165E-01  0.4165E-01  0.7996E-02  0.7996E-02
    -42.587  0.6546E-01  0.6546E-01  0.2057E-01  0.2057E-01
    -42.395  0.1788E-01  0.1788E-01  0.2400E-01  0.2400E-01
    -42.203  0.0000E+00  0.0000E+00  0.2400E-01  0.2400E-01
    -42.011  0.0000E+00  0.0000E+00  0.2400E-01  0.2400E-01
    -41.819  0.0000E+00  0.0000E+00  0.2400E-01  0.2400E-01
    -41.627  0.0000E+00  0.0000E+00  0.2400E-01  0.2400E-01
    -41.435  0.0000E+00  0.0000E+00  0.2400E-01  0.2400E-01
    -41.243  0.0000E+00  0.0000E+00  0.2400E-01  0.2400E-01
    -41.051  0.0000E+00  0.0000E+00  0.2400E-01  0.2400E-01
    -40.859  0.0000E+00  0.0000E+00  0.2400E-01  0.2400E-01
    -40.667  0.0000E+00  0.0000E+00  0.2400E-01  0.2400E-01
    -40.475  0.0000E+00  0.0000E+00  0.2400E-01  0.2400E-01
    -40.283  0.0000E+00  0.0000E+00  0.2400E-01  0.2400E-01
    -40.091  0.0000E+00  0.0000E+00  0.2400E-01  0.2400E-01
    -39.899  0.0000E+00  0.0000E+00  0.2400E-01  0.2400E-01
    -39.707  0.0000E+00  0.0000E+00  0.2400E-01  0.2400E-01
    -39.515  0.0000E+00  0.0000E+00  0.2400E-01  0.2400E-01
    -39.323  0.0000E+00  0.0000E+00  0.2400E-01  0.2400E-01
    -39.131  0.0000E+00  0.0000E+00  0.2400E-01  0.2400E-01
    -38.939  0.0000E+00  0.0000E+00  0.2400E-01  0.2400E-01
    -38.747  0.0000E+00  0.0000E+00  0.2400E-01  0.2400E-01
    -38.555  0.0000E+00  0.0000E+00  0.2400E-01  0.2400E-01
    -38.363  0.0000E+00  0.0000E+00  0.2400E-01  0.2400E-01
    -38.171  0.0000E+00  0.0000E+00  0.2400E-01  0.2400E-01
    -37.979  0.0000E+00  0.0000E+00  0.2400E-01  0.2400E-01
    -37.787  0.0000E+00  0.0000E+00  0.2400E-01  0.2400E-01
    -37.595  0.0000E+00  0.0000E+00  0.2400E-01  0.2400E-01
    -37.403  0.0000E+00  0.0000E+00  0.2400E-01  0.2400E-01
    -37.211  0.0000E+00  0.0000E+00  0.2400E-01  0.2400E-01
    -37.019  0.0000E+00  0.0000E+00  0.2400E-01  0.2400E-01
    -36.827  0.0000E+00  0.0000E+00  0.2400E-01  0.2400E-01
    -36.635  0.0000E+00  0.0000E+00  0.2400E-01  0.2400E-01
    -36.443  0.0000E+00  0.0000E+00  0.2400E-01  0.2400E-01
    -36.251  0.0000E+00  0.0000E+00  0.2400E-01  0.2400E-01
    -36.059  0.0000E+00  0.0000E+00  0.2400E-01  0.2400E-01
    -35.867  0.0000E+00  0.0000E+00  0.2400E-01  0.2400E-01
    -35.675  0.0000E+00  0.0000E+00  0.2400E-01  0.2400E-01
    -35.483  0.0000E+00  0.0000E+00  0.2400E-01  0.2400E-01
    -35.291  0.0000E+00  0.0000E+00  0.2400E-01  0.2400E-01
    -35.099  0.0000E+00  0.0000E+00  0.2400E-01  0.2400E-01
    -34.907  0.0000E+00  0.0000E+00  0.2400E-01  0.2400E-01
    -34.715  0.0000E+00  0.0000E+00  0.2400E-01  0.2400E-01
    -34.523  0.0000E+00  0.0000E+00  0.2400E-01  0.2400E-01
    -34.331  0.0000E+00  0.0000E+00  0.2400E-01  0.2400E-01
    -34.139  0.0000E+00  0.0000E+00  0.2400E-01  0.2400E-01
    -33.947  0.0000E+00  0.0000E+00  0.2400E-01  0.2400E-01
    -33.755  0.0000E+00  0.0000E+00  0.2400E-01  0.2400E-01
    -33.563  0.0000E+00  0.0000E+00  0.2400E-01  0.2400E-01
    -33.371  0.0000E+00  0.0000E+00  0.2400E-01  0.2400E-01
    -33.179  0.0000E+00  0.0000E+00  0.2400E-01  0.2400E-01
    -32.987  0.0000E+00  0.0000E+00  0.2400E-01  0.2400E-01
    -32.795  0.0000E+00  0.0000E+00  0.2400E-01  0.2400E-01
    -32.604  0.0000E+00  0.0000E+00  0.2400E-01  0.2400E-01
    -32.412  0.0000E+00  0.0000E+00  0.2400E-01  0.2400E-01
    -32.220  0.0000E+00  0.0000E+00  0.2400E-01  0.2400E-01
    -32.028  0.0000E+00  0.0000E+00  0.2400E-01  0.2400E-01
    -31.836  0.0000E+00  0.0000E+00  0.2400E-01  0.2400E-01
    -31.644  0.0000E+00  0.0000E+00  0.2400E-01  0.2400E-01
    -31.452  0.0000E+00  0.0000E+00  0.2400E-01  0.2400E-01
    -31.260  0.0000E+00  0.0000E+00  0.2400E-01  0.2400E-01
    -31.068  0.0000E+00  0.0000E+00  0.2400E-01  0.2400E-01
    -30.876  0.0000E+00  0.0000E+00  0.2400E-01  0.2400E-01
    -30.684  0.0000E+00  0.0000E+00  0.2400E-01  0.2400E-01
    -30.492  0.0000E+00  0.0000E+00  0.2400E-01  0.2400E-01
    -30.300  0.0000E+00  0.0000E+00  0.2400E-01  0.2400E-01
    -30.108  0.0000E+00  0.0000E+00  0.2400E-01  0.2400E-01
    -29.916  0.0000E+00  0.0000E+00  0.2400E-01  0.2400E-01
    -29.724  0.0000E+00  0.0000E+00  0.2400E-01  0.2400E-01
    -29.532  0.0000E+00  0.0000E+00  0.2400E-01  0.2400E-01
    -29.340  0.0000E+00  0.0000E+00  0.2400E-01  0.2400E-01
    -29.148  0.0000E+00  0.0000E+00  0.2400E-01  0.2400E-01
    -28.956  0.0000E+00  0.0000E+00  0.2400E-01  0.2400E-01
    -28.764  0.0000E+00  0.0000E+00  0.2400E-01  0.2400E-01
    -28.572  0.0000E+00  0.0000E+00  0.2400E-01  0.2400E-01
    -28.380  0.0000E+00  0.0000E+00  0.2400E-01  0.2400E-01
    -28.188  0.0000E+00  0.0000E+00  0.2400E-01  0.2400E-01
    -27.996  0.0000E+00  0.0000E+00  0.2400E-01  0.2400E-01
    -27.804  0.0000E+00  0.0000E+00  0.2400E-01  0.2400E-01
    -27.612  0.0000E+00  0.0000E+00  0.2400E-01  0.2400E-01
    -27.420  0.0000E+00  0.0000E+00  0.2400E-01  0.2400E-01
    -27.228  0.0000E+00  0.0000E+00  0.2400E-01  0.2400E-01
    -27.036  0.0000E+00  0.0000E+00  0.2400E-01  0.2400E-01
    -26.844  0.0000E+00  0.0000E+00  0.2400E-01  0.2400E-01
    -26.652  0.0000E+00  0.0000E+00  0.2400E-01  0.2400E-01
    -26.460  0.0000E+00  0.0000E+00  0.2400E-01  0.2400E-01
    -26.268  0.0000E+00  0.0000E+00  0.2400E-01  0.2400E-01
    -26.076  0.0000E+00  0.0000E+00  0.2400E-01  0.2400E-01
    -25.884  0.0000E+00  0.0000E+00  0.2400E-01  0.2400E-01
    -25.692  0.0000E+00  0.0000E+00  0.2400E-01  0.2400E-01
    -25.500  0.0000E+00  0.0000E+00  0.2400E-01  0.2400E-01
    -25.308  0.0000E+00  0.0000E+00  0.2400E-01  0.2400E-01
    -25.116  0.0000E+00  0.0000E+00  0.2400E-01  0.2400E-01
    -24.924  0.0000E+00  0.0000E+00  0.2400E-01  0.2400E-01
    -24.732  0.0000E+00  0.0000E+00  0.2400E-01  0.2400E-01
    -24.540  0.0000E+00  0.0000E+00  0.2400E-01  0.2400E-01
    -24.348  0.0000E+00  0.0000E+00  0.2400E-01  0.2400E-01
    -24.156  0.0000E+00  0.0000E+00  0.2400E-01  0.2400E-01
    -23.964  0.0000E+00  0.0000E+00  0.2400E-01  0.2400E-01
    -23.772  0.0000E+00  0.0000E+00  0.2400E-01  0.2400E-01
    -23.580  0.0000E+00  0.0000E+00  0.2400E-01  0.2400E-01
    -23.388  0.0000E+00  0.0000E+00  0.2400E-01  0.2400E-01
    -23.196  0.0000E+00  0.0000E+00  0.2400E-01  0.2400E-01
    -23.004  0.0000E+00  0.0000E+00  0.2400E-01  0.2400E-01
    -22.812  0.0000E+00  0.0000E+00  0.2400E-01  0.2400E-01
    -22.620  0.0000E+00  0.0000E+00  0.2400E-01  0.2400E-01
    -22.428  0.0000E+00  0.0000E+00  0.2400E-01  0.2400E-01
    -22.236  0.0000E+00  0.0000E+00  0.2400E-01  0.2400E-01
    -22.044  0.0000E+00  0.0000E+00  0.2400E-01  0.2400E-01
    -21.852  0.0000E+00  0.0000E+00  0.2400E-01  0.2400E-01
    -21.660  0.0000E+00  0.0000E+00  0.2400E-01  0.2400E-01
    -21.468  0.0000E+00  0.0000E+00  0.2400E-01  0.2400E-01
    -21.276  0.0000E+00  0.0000E+00  0.2400E-01  0.2400E-01
    -21.084  0.0000E+00  0.0000E+00  0.2400E-01  0.2400E-01
    -20.892  0.0000E+00  0.0000E+00  0.2400E-01  0.2400E-01
    -20.700  0.0000E+00  0.0000E+00  0.2400E-01  0.2400E-01
    -20.508  0.0000E+00  0.0000E+00  0.2400E-01  0.2400E-01
    -20.316  0.0000E+00  0.0000E+00  0.2400E-01  0.2400E-01
    -20.124  0.0000E+00  0.0000E+00  0.2400E-01  0.2400E-01
    -19.932  0.0000E+00  0.0000E+00  0.2400E-01  0.2400E-01
    -19.740  0.0000E+00  0.0000E+00  0.2400E-01  0.2400E-01
    -19.548  0.0000E+00  0.0000E+00  0.2400E-01  0.2400E-01
    -19.356  0.0000E+00  0.0000E+00  0.2400E-01  0.2400E-01
    -19.164  0.0000E+00  0.0000E+00  0.2400E-01  0.2400E-01
    -18.972  0.0000E+00  0.0000E+00  0.2400E-01  0.2400E-01
    -18.780  0.0000E+00  0.0000E+00  0.2400E-01  0.2400E-01
    -18.588  0.0000E+00  0.0000E+00  0.2400E-01  0.2400E-01
    -18.396  0.0000E+00  0.0000E+00  0.2400E-01  0.2400E-01
    -18.204  0.0000E+00  0.0000E+00  0.2400E-01  0.2400E-01
    -18.012  0.0000E+00  0.0000E+00  0.2400E-01  0.2400E-01
    -17.820  0.0000E+00  0.0000E+00  0.2400E-01  0.2400E-01
    -17.629  0.0000E+00  0.0000E+00  0.2400E-01  0.2400E-01
    -17.437  0.0000E+00  0.0000E+00  0.2400E-01  0.2400E-01
    -17.245  0.0000E+00  0.0000E+00  0.2400E-01  0.2400E-01
    -17.053  0.0000E+00  0.0000E+00  0.2400E-01  0.2400E-01
    -16.861  0.0000E+00  0.0000E+00  0.2400E-01  0.2400E-01
    -16.669  0.0000E+00  0.0000E+00  0.2400E-01  0.2400E-01
    -16.477  0.0000E+00  0.0000E+00  0.2400E-01  0.2400E-01
    -16.285  0.0000E+00  0.0000E+00  0.2400E-01  0.2400E-01
    -16.093  0.0000E+00  0.0000E+00  0.2400E-01  0.2400E-01
    -15.901  0.0000E+00  0.0000E+00  0.2400E-01  0.2400E-01
    -15.709  0.0000E+00  0.0000E+00  0.2400E-01  0.2400E-01
    -15.517  0.0000E+00  0.0000E+00  0.2400E-01  0.2400E-01
    -15.325  0.0000E+00  0.0000E+00  0.2400E-01  0.2400E-01
    -15.133  0.0000E+00  0.0000E+00  0.2400E-01  0.2400E-01
    -14.941  0.0000E+00  0.0000E+00  0.2400E-01  0.2400E-01
    -14.749  0.0000E+00  0.0000E+00  0.2400E-01  0.2400E-01
    -14.557  0.0000E+00  0.0000E+00  0.2400E-01  0.2400E-01
    -14.365  0.0000E+00  0.0000E+00  0.2400E-01  0.2400E-01
    -14.173  0.0000E+00  0.0000E+00  0.2400E-01  0.2400E-01
    -13.981  0.0000E+00  0.0000E+00  0.2400E-01  0.2400E-01
    -13.789  0.0000E+00  0.0000E+00  0.2400E-01  0.2400E-01
    -13.597  0.0000E+00  0.0000E+00  0.2400E-01  0.2400E-01
    -13.405  0.2204E-04  0.2204E-04  0.2400E-01  0.2400E-01
    -13.213  0.2081E-01  0.2081E-01  0.2800E-01  0.2800E-01
    -13.021  0.0000E+00  0.0000E+00  0.2800E-01  0.2800E-01
    -12.829  0.0000E+00  0.0000E+00  0.2800E-01  0.2800E-01
    -12.637  0.0000E+00  0.0000E+00  0.2800E-01  0.2800E-01
    -12.445  0.2178E-02  0.2178E-02  0.2842E-01  0.2842E-01
    -12.253  0.1866E-01  0.1866E-01  0.3200E-01  0.3200E-01
    -12.061  0.0000E+00  0.0000E+00  0.3200E-01  0.3200E-01
    -11.869  0.0000E+00  0.0000E+00  0.3200E-01  0.3200E-01
    -11.677  0.0000E+00  0.0000E+00  0.3200E-01  0.3200E-01
    -11.485  0.0000E+00  0.0000E+00  0.3200E-01  0.3200E-01
    -11.293  0.0000E+00  0.0000E+00  0.3200E-01  0.3200E-01
    -11.101  0.0000E+00  0.0000E+00  0.3200E-01  0.3200E-01
    -10.909  0.0000E+00  0.0000E+00  0.3200E-01  0.3200E-01
    -10.717  0.1077E-07  0.1077E-07  0.3200E-01  0.3200E-01
    -10.525  0.1319E-01  0.1319E-01  0.3453E-01  0.3453E-01
    -10.333  0.2035E-01  0.2035E-01  0.3844E-01  0.3844E-01
    -10.141  0.2897E-01  0.2897E-01  0.4400E-01  0.4400E-01
     -9.949  0.0000E+00  0.0000E+00  0.4400E-01  0.4400E-01
     -9.757  0.0000E+00  0.0000E+00  0.4400E-01  0.4400E-01
     -9.565  0.0000E+00  0.0000E+00  0.4400E-01  0.4400E-01
     -9.373  0.0000E+00  0.0000E+00  0.4400E-01  0.4400E-01
     -9.181  0.0000E+00  0.0000E+00  0.4400E-01  0.4400E-01
     -8.989  0.0000E+00  0.0000E+00  0.4400E-01  0.4400E-01
     -8.797  0.6867E-02  0.6867E-02  0.4532E-01  0.4532E-01
     -8.605  0.1397E-01  0.1397E-01  0.4800E-01  0.4800E-01
     -8.413  0.0000E+00  0.0000E+00  0.4800E-01  0.4800E-01
     -8.221  0.0000E+00  0.0000E+00  0.4800E-01  0.4800E-01
     -8.029  0.0000E+00  0.0000E+00  0.4800E-01  0.4800E-01
     -7.837  0.0000E+00  0.0000E+00  0.4800E-01  0.4800E-01
     -7.645  0.0000E+00  0.0000E+00  0.4800E-01  0.4800E-01
     -7.453  0.0000E+00  0.0000E+00  0.4800E-01  0.4800E-01
     -7.261  0.0000E+00  0.0000E+00  0.4800E-01  0.4800E-01
     -7.069  0.0000E+00  0.0000E+00  0.4800E-01  0.4800E-01
     -6.877  0.0000E+00  0.0000E+00  0.4800E-01  0.4800E-01
     -6.685  0.0000E+00  0.0000E+00  0.4800E-01  0.4800E-01
     -6.493  0.1506E-05  0.1506E-05  0.4800E-01  0.4800E-01
     -6.301  0.5207E-02  0.5207E-02  0.4900E-01  0.4900E-01
     -6.109  0.1503E-04  0.1503E-04  0.4900E-01  0.4900E-01
     -5.917  0.1561E-01  0.1561E-01  0.5200E-01  0.5200E-01
     -5.725  0.0000E+00  0.0000E+00  0.5200E-01  0.5200E-01
     -5.533  0.0000E+00  0.0000E+00  0.5200E-01  0.5200E-01
     -5.341  0.0000E+00  0.0000E+00  0.5200E-01  0.5200E-01
     -5.149  0.0000E+00  0.0000E+00  0.5200E-01  0.5200E-01
     -4.957  0.0000E+00  0.0000E+00  0.5200E-01  0.5200E-01
     -4.765  0.0000E+00  0.0000E+00  0.5200E-01  0.5200E-01
     -4.573  0.0000E+00  0.0000E+00  0.5200E-01  0.5200E-01
     -4.381  0.0000E+00  0.0000E+00  0.5200E-01  0.5200E-01
     -4.189  0.0000E+00  0.0000E+00  0.5200E-01  0.5200E-01
     -3.997  0.0000E+00  0.0000E+00  0.5200E-01  0.5200E-01
     -3.805  0.0000E+00  0.0000E+00  0.5200E-01  0.5200E-01
     -3.613  0.1792E-05  0.1792E-05  0.5200E-01  0.5200E-01
     -3.421  0.1520E-01  0.1520E-01  0.5492E-01  0.5492E-01
     -3.229  0.4181E-03  0.4181E-03  0.5500E-01  0.5500E-01
     -3.037  0.5241E-02  0.5241E-02  0.5601E-01  0.5601E-01
     -2.846  0.1861E-01  0.1861E-01  0.5958E-01  0.5958E-01
     -2.654  0.2280E-01  0.2280E-01  0.6396E-01  0.6396E-01
     -2.462  0.2005E-03  0.2005E-03  0.6400E-01  0.6400E-01
     -2.270  0.0000E+00  0.0000E+00  0.6400E-01  0.6400E-01
     -2.078  0.0000E+00  0.0000E+00  0.6400E-01  0.6400E-01
     -1.886  0.0000E+00  0.0000E+00  0.6400E-01  0.6400E-01
     -1.694  0.0000E+00  0.0000E+00  0.6400E-01  0.6400E-01
     -1.502  0.7582E-02  0.7582E-02  0.6546E-01  0.6546E-01
     -1.310  0.1326E-01  0.1326E-01  0.6800E-01  0.6800E-01
     -1.118  0.2068E-01  0.2068E-01  0.7197E-01  0.7197E-01
     -0.926  0.2097E-01  0.2097E-01  0.7600E-01  0.7600E-01
     -0.734  0.8673E-02  0.8673E-02  0.7767E-01  0.7767E-01
     -0.542  0.1193E-01  0.1193E-01  0.7996E-01  0.7996E-01
     -0.350  0.1688E-01  0.1688E-01  0.8320E-01  0.8320E-01
     -0.158  0.2903E-01  0.2903E-01  0.8877E-01  0.8877E-01
      0.034  0.2517E-01  0.2517E-01  0.9361E-01  0.9361E-01
      0.226  0.1244E-01  0.1244E-01  0.9600E-01  0.9600E-01
      0.418  0.4654E-02  0.4654E-02  0.9689E-01  0.9689E-01
      0.610  0.2719E-01  0.2719E-01  0.1021E+00  0.1021E+00
      0.802  0.2522E-01  0.2522E-01  0.1070E+00  0.1070E+00
      0.994  0.3344E-01  0.3344E-01  0.1134E+00  0.1134E+00
      1.186  0.2777E-01  0.2777E-01  0.1187E+00  0.1187E+00
      1.378  0.6687E-02  0.6687E-02  0.1200E+00  0.1200E+00
      1.570  0.0000E+00  0.0000E+00  0.1200E+00  0.1200E+00
      1.762  0.0000E+00  0.0000E+00  0.1200E+00  0.1200E+00
      1.954  0.0000E+00  0.0000E+00  0.1200E+00  0.1200E+00
      2.146  0.0000E+00  0.0000E+00  0.1200E+00  0.1200E+00
      2.338  0.0000E+00  0.0000E+00  0.1200E+00  0.1200E+00
      2.530  0.0000E+00  0.0000E+00  0.1200E+00  0.1200E+00
      2.722  0.0000E+00  0.0000E+00  0.1200E+00  0.1200E+00
      2.914  0.0000E+00  0.0000E+00  0.1200E+00  0.1200E+00
      3.106  0.0000E+00  0.0000E+00  0.1200E+00  0.1200E+00
      3.298  0.0000E+00  0.0000E+00  0.1200E+00  0.1200E+00
      3.490  0.0000E+00  0.0000E+00  0.1200E+00  0.1200E+00
      3.682  0.0000E+00  0.0000E+00  0.1200E+00  0.1200E+00
      3.874  0.0000E+00  0.0000E+00  0.1200E+00  0.1200E+00
      4.066  0.3063E-02  0.3063E-02  0.1206E+00  0.1206E+00
      4.258  0.2145E-02  0.2145E-02  0.1210E+00  0.1210E+00
      4.450  0.0000E+00  0.0000E+00  0.1210E+00  0.1210E+00
      4.642  0.0000E+00  0.0000E+00  0.1210E+00  0.1210E+00
      4.834  0.3391E-04  0.3391E-04  0.1210E+00  0.1210E+00
      5.026  0.1559E-01  0.1559E-01  0.1240E+00  0.1240E+00
      5.218  0.0000E+00  0.0000E+00  0.1240E+00  0.1240E+00
      5.410  0.5558E-10  0.5558E-10  0.1240E+00  0.1240E+00
      5.602  0.5248E-02  0.5248E-02  0.1250E+00  0.1250E+00
      5.794  0.1957E-01  0.1957E-01  0.1288E+00  0.1288E+00
      5.986  0.6037E-02  0.6037E-02  0.1299E+00  0.1299E+00
      6.178  0.6698E-02  0.6698E-02  0.1312E+00  0.1312E+00
      6.370  0.9604E-02  0.9604E-02  0.1331E+00  0.1331E+00
      6.562  0.1487E-01  0.1487E-01  0.1359E+00  0.1359E+00
      6.754  0.5655E-02  0.5655E-02  0.1370E+00  0.1370E+00
      6.946  0.9045E-04  0.9045E-04  0.1370E+00  0.1370E+00
      7.138  0.1045E-01  0.1045E-01  0.1390E+00  0.1390E+00
      7.330  0.1330E-01  0.1330E-01  0.1416E+00  0.1416E+00
      7.522  0.1211E-01  0.1211E-01  0.1439E+00  0.1439E+00
      7.714  0.1359E-01  0.1359E-01  0.1465E+00  0.1465E+00
      7.906  0.1770E-01  0.1770E-01  0.1499E+00  0.1499E+00
      8.098  0.9254E-02  0.9254E-02  0.1517E+00  0.1517E+00
      8.290  0.7339E-02  0.7339E-02  0.1531E+00  0.1531E+00
      8.482  0.2468E-01  0.2468E-01  0.1578E+00  0.1578E+00
      8.674  0.1048E-01  0.1048E-01  0.1599E+00  0.1599E+00
      8.866  0.1595E-01  0.1595E-01  0.1629E+00  0.1629E+00
      9.058  0.2303E-01  0.2303E-01  0.1673E+00  0.1673E+00
      9.250  0.2242E-01  0.2242E-01  0.1717E+00  0.1717E+00
      9.442  0.1744E-01  0.1744E-01  0.1750E+00  0.1750E+00
      9.634  0.5206E-02  0.5206E-02  0.1760E+00  0.1760E+00
      9.826  0.0000E+00  0.0000E+00  0.1760E+00  0.1760E+00
     10.018  0.0000E+00  0.0000E+00  0.1760E+00  0.1760E+00
     10.210  0.0000E+00  0.0000E+00  0.1760E+00  0.1760E+00
     10.402  0.0000E+00  0.0000E+00  0.1760E+00  0.1760E+00
     10.594  0.0000E+00  0.0000E+00  0.1760E+00  0.1760E+00
     10.786  0.0000E+00  0.0000E+00  0.1760E+00  0.1760E+00
     10.978  0.0000E+00  0.0000E+00  0.1760E+00  0.1760E+00
     11.170  0.0000E+00  0.0000E+00  0.1760E+00  0.1760E+00
     11.362  0.0000E+00  0.0000E+00  0.1760E+00  0.1760E+00
     11.554  0.0000E+00  0.0000E+00  0.1760E+00  0.1760E+00
     11.746  0.0000E+00  0.0000E+00  0.1760E+00  0.1760E+00
     11.937  0.0000E+00  0.0000E+00  0.1760E+00  0.1760E+00
     12.129  0.0000E+00  0.0000E+00  0.1760E+00  0.1760E+00
