       N       E                     dE             d eps       ncg     rms          rms(c)
DAV:   1     0.157253381169E+04    0.15725E+04   -0.11175E+05   776   0.123E+03
DAV:   2    -0.479788912894E+02   -0.16205E+04   -0.15196E+04   960   0.352E+02
DAV:   3    -0.227407643772E+03   -0.17943E+03   -0.17725E+03   936   0.118E+02
DAV:   4    -0.239949219712E+03   -0.12542E+02   -0.12510E+02  1136   0.323E+01
DAV:   5    -0.240289412926E+03   -0.34019E+00   -0.34003E+00  1184   0.530E+00
DAV:   6    -0.240302380783E+03   -0.12968E-01   -0.12966E-01  1152   0.101E+00
DAV:   7    -0.240302883869E+03   -0.50309E-03   -0.50304E-03  1168   0.221E-01
DAV:   8    -0.240302913791E+03   -0.29922E-04   -0.29921E-04  1128   0.528E-02
DAV:   9    -0.240302915731E+03   -0.19403E-05   -0.19407E-05  1024   0.138E-02
DAV:  10    -0.240302915839E+03   -0.10717E-06   -0.10653E-06   664   0.412E-03    0.654E+01
RMM:  11    -0.222549983957E+03    0.17753E+02   -0.63052E+01   704   0.211E+01    0.332E+01
RMM:  12    -0.253831709192E+03   -0.31282E+02   -0.38402E+01   738   0.151E+01    0.221E+01
RMM:  13    -0.255854305244E+03   -0.20226E+01   -0.80824E+00   724   0.546E+00    0.912E+00
RMM:  14    -0.256140422941E+03   -0.28612E+00   -0.23712E+00   871   0.336E+00    0.332E+00
RMM:  15    -0.256101389164E+03    0.39034E-01   -0.42745E-01   776   0.168E+00    0.628E-01
RMM:  16    -0.256125061659E+03   -0.23672E-01   -0.11931E-01   791   0.903E-01    0.277E-01
RMM:  17    -0.256131549878E+03   -0.64882E-02   -0.30548E-02   880   0.463E-01    0.187E-01
RMM:  18    -0.256133168183E+03   -0.16183E-02   -0.76992E-03   837   0.216E-01    0.930E-02
RMM:  19    -0.256133730682E+03   -0.56250E-03   -0.22874E-03   930   0.114E-01    0.416E-02
RMM:  20    -0.256133842061E+03   -0.11138E-03   -0.65311E-04   986   0.548E-02    0.204E-02
RMM:  21    -0.256133865260E+03   -0.23199E-04   -0.13945E-04   950   0.265E-02    0.116E-02
RMM:  22    -0.256133871472E+03   -0.62112E-05   -0.42547E-05   907   0.142E-02    0.409E-03
RMM:  23    -0.256133872070E+03   -0.59860E-06   -0.12719E-05   758   0.757E-03    0.204E-03
RMM:  24    -0.256133871893E+03    0.17754E-06   -0.38213E-06   546   0.516E-03
   1 F= -.26823120E+03 E0= -.26823120E+03  d E =-.268231E+03  mag=    -0.0002
       N       E                     dE             d eps       ncg     rms          rms(c)
DAV:   1    -0.256133956128E+03   -0.84058E-04   -0.34729E-03   784   0.116E-01    0.164E-02
RMM:   2    -0.256133967459E+03   -0.11331E-04   -0.19450E-04   748   0.505E-02    0.703E-03
RMM:   3    -0.256133972790E+03   -0.53311E-05   -0.73686E-05   914   0.231E-02    0.314E-03
RMM:   4    -0.256133974248E+03   -0.14579E-05   -0.11473E-05   706   0.918E-03    0.245E-03
RMM:   5    -0.256133974377E+03   -0.12845E-06   -0.14182E-06   480   0.438E-03
   2 F= -.26823133E+03 E0= -.26823133E+03  d E =-.122786E-03  mag=     0.0000
       N       E                     dE             d eps       ncg     rms          rms(c)
DAV:   1    -0.256133969240E+03    0.50082E-05   -0.11207E-02   848   0.212E-01    0.267E-02
RMM:   2    -0.256134008737E+03   -0.39497E-04   -0.59963E-04   742   0.908E-02    0.128E-02
RMM:   3    -0.256134026139E+03   -0.17402E-04   -0.22313E-04   903   0.416E-02    0.564E-03
RMM:   4    -0.256134030224E+03   -0.40846E-05   -0.36328E-05   881   0.170E-02    0.423E-03
RMM:   5    -0.256134030462E+03   -0.23867E-06   -0.44100E-06   602   0.601E-03
   3 F= -.26823142E+03 E0= -.26823142E+03  d E =-.215579E-03  mag=     0.0000
       N       E                     dE             d eps       ncg     rms          rms(c)
DAV:   1    -0.256134029398E+03    0.82525E-06   -0.28278E-05   864   0.108E-02    0.159E-03
RMM:   2    -0.256134029229E+03    0.16930E-06   -0.17030E-06   474   0.535E-03
   4 F= -.26823142E+03 E0= -.26823142E+03  d E =-.216165E-03  mag=     0.0000
       N       E                     dE             d eps       ncg     rms          rms(c)
DAV:   1    -0.256134053178E+03   -0.23780E-04   -0.25102E-03   800   0.924E-02    0.800E-03
RMM:   2    -0.256134060119E+03   -0.69411E-05   -0.72313E-05   862   0.288E-02    0.313E-03
RMM:   3    -0.256134062000E+03   -0.18807E-05   -0.19334E-05   829   0.134E-02    0.186E-03
RMM:   4    -0.256134062112E+03   -0.11255E-06   -0.25776E-06   490   0.589E-03
   5 F= -.26823145E+03 E0= -.26823145E+03  d E =-.311605E-04  mag=     0.0000
       N       E                     dE             d eps       ncg     rms          rms(c)
DAV:   1    -0.256134069850E+03   -0.78503E-05   -0.22568E-02   816   0.276E-01    0.240E-02
RMM:   2    -0.256134130374E+03   -0.60524E-04   -0.63652E-04   860   0.831E-02    0.911E-03
RMM:   3    -0.256134144672E+03   -0.14298E-04   -0.14493E-04   942   0.389E-02    0.524E-03
RMM:   4    -0.256134148142E+03   -0.34700E-05   -0.38991E-05   853   0.175E-02    0.473E-03
RMM:   5    -0.256134147984E+03    0.15813E-06   -0.18314E-06   486   0.573E-03
   6 F= -.26823153E+03 E0= -.26823153E+03  d E =-.111921E-03  mag=    -0.0000
       N       E                     dE             d eps       ncg     rms          rms(c)
DAV:   1    -0.256133938079E+03    0.21006E-03   -0.89831E-02   784   0.553E-01    0.483E-02
RMM:   2    -0.256134190278E+03   -0.25220E-03   -0.26768E-03   879   0.170E-01    0.181E-02
RMM:   3    -0.256134248924E+03   -0.58645E-04   -0.59145E-04   929   0.777E-02    0.108E-02
RMM:   4    -0.256134261745E+03   -0.12821E-04   -0.14350E-04  1041   0.339E-02    0.960E-03
RMM:   5    -0.256134261282E+03    0.46318E-06   -0.69621E-06   671   0.837E-03
   7 F= -.26823163E+03 E0= -.26823163E+03  d E =-.214795E-03  mag=     0.0000
       N       E                     dE             d eps       ncg     rms          rms(c)
DAV:   1    -0.256134226555E+03    0.35190E-04   -0.16567E-02   864   0.240E-01    0.218E-02
RMM:   2    -0.256134272399E+03   -0.45843E-04   -0.49409E-04   871   0.731E-02    0.834E-03
RMM:   3    -0.256134283327E+03   -0.10928E-04   -0.10962E-04   918   0.334E-02    0.433E-03
RMM:   4    -0.256134285980E+03   -0.26532E-05   -0.29978E-05   832   0.152E-02    0.400E-03
RMM:   5    -0.256134285874E+03    0.10532E-06   -0.12596E-06   472   0.473E-03
   8 F= -.26823165E+03 E0= -.26823165E+03  d E =-.234859E-03  mag=     0.0000
       N       E                     dE             d eps       ncg     rms          rms(c)
DAV:   1    -0.256134268022E+03    0.17958E-04   -0.14443E-02   800   0.222E-01    0.152E-02
RMM:   2    -0.256134308755E+03   -0.40733E-04   -0.44431E-04   901   0.674E-02    0.482E-03
RMM:   3    -0.256134316552E+03   -0.77975E-05   -0.85628E-05   928   0.307E-02    0.357E-03
RMM:   4    -0.256134318521E+03   -0.19683E-05   -0.24558E-05   754   0.143E-02    0.346E-03
RMM:   5    -0.256134318463E+03    0.58177E-07   -0.93641E-07   469   0.464E-03
   9 F= -.26823169E+03 E0= -.26823169E+03  d E =-.380384E-04  mag=     0.0000
       N       E                     dE             d eps       ncg     rms          rms(c)
DAV:   1    -0.256134176926E+03    0.14159E-03   -0.46916E-02   784   0.404E-01    0.271E-02
RMM:   2    -0.256134308403E+03   -0.13148E-03   -0.14252E-03   897   0.120E-01    0.853E-03
RMM:   3    -0.256134336809E+03   -0.28406E-04   -0.30142E-04   937   0.544E-02    0.690E-03
RMM:   4    -0.256134341871E+03   -0.50625E-05   -0.65007E-05   963   0.240E-02    0.628E-03
RMM:   5    -0.256134341609E+03    0.26205E-06   -0.34925E-06   540   0.610E-03
  10 F= -.26823172E+03 E0= -.26823172E+03  d E =-.707760E-04  mag=    -0.0000
       N       E                     dE             d eps       ncg     rms          rms(c)
DAV:   1    -0.256134347646E+03   -0.57742E-05   -0.67053E-04   896   0.472E-02    0.401E-03
RMM:   2    -0.256134349382E+03   -0.17362E-05   -0.20581E-05   781   0.151E-02    0.135E-03
RMM:   3    -0.256134349771E+03   -0.38952E-06   -0.51003E-06   556   0.707E-03
  11 F= -.26823173E+03 E0= -.26823173E+03  d E =-.870978E-05  mag=     0.0000
       N       E                     dE             d eps       ncg     rms          rms(c)
DAV:   1    -0.256134352324E+03   -0.29422E-05   -0.63206E-03   816   0.145E-01    0.876E-03
RMM:   2    -0.256134369998E+03   -0.17673E-04   -0.18724E-04   888   0.436E-02    0.284E-03
RMM:   3    -0.256134373927E+03   -0.39296E-05   -0.44044E-05   887   0.203E-02    0.291E-03
RMM:   4    -0.256134374033E+03   -0.10572E-06   -0.35652E-06   532   0.679E-03
  12 F= -.26823176E+03 E0= -.26823176E+03  d E =-.345610E-04  mag=     0.0000
       N       E                     dE             d eps       ncg     rms          rms(c)
DAV:   1    -0.256134335331E+03    0.38596E-04   -0.25039E-02   816   0.289E-01    0.190E-02
RMM:   2    -0.256134403731E+03   -0.68400E-04   -0.73351E-04   905   0.848E-02    0.553E-03
RMM:   3    -0.256134417671E+03   -0.13940E-04   -0.14722E-04   940   0.387E-02    0.445E-03
RMM:   4    -0.256134420641E+03   -0.29704E-05   -0.35429E-05   816   0.172E-02    0.425E-03
RMM:   5    -0.256134420530E+03    0.11116E-06   -0.17523E-06   486   0.568E-03
  13 F= -.26823181E+03 E0= -.26823181E+03  d E =-.841410E-04  mag=    -0.0000
       N       E                     dE             d eps       ncg     rms          rms(c)
DAV:   1    -0.256134163462E+03    0.25718E-03   -0.10005E-01   784   0.580E-01    0.375E-02
RMM:   2    -0.256134433460E+03   -0.27000E-03   -0.28842E-03   908   0.168E-01    0.111E-02
RMM:   3    -0.256134493840E+03   -0.60380E-04   -0.62018E-04   941   0.769E-02    0.912E-03
RMM:   4    -0.256134505374E+03   -0.11534E-04   -0.13961E-04   962   0.338E-02    0.893E-03
RMM:   5    -0.256134504921E+03    0.45298E-06   -0.71575E-06   638   0.802E-03
  14 F= -.26823190E+03 E0= -.26823190E+03  d E =-.174394E-03  mag=     0.0000
       N       E                     dE             d eps       ncg     rms          rms(c)
DAV:   1    -0.256133272973E+03    0.12324E-02   -0.39940E-01   784   0.116E+00    0.763E-02
RMM:   2    -0.256134348732E+03   -0.10758E-02   -0.11513E-02   912   0.335E-01    0.227E-02
RMM:   3    -0.256134589494E+03   -0.24076E-03   -0.24583E-03   951   0.151E-01    0.179E-02
RMM:   4    -0.256134636266E+03   -0.46772E-04   -0.56304E-04  1007   0.672E-02    0.176E-02
RMM:   5    -0.256134635006E+03    0.12603E-05   -0.28752E-05   857   0.155E-02    0.139E-02
RMM:   6    -0.256134634762E+03    0.24385E-06   -0.33438E-05   687   0.105E-02    0.706E-03
RMM:   7    -0.256134634166E+03    0.59570E-06   -0.30873E-06   523   0.524E-03
  15 F= -.26823204E+03 E0= -.26823204E+03  d E =-.313924E-03  mag=    -0.0000
       N       E                     dE             d eps       ncg     rms          rms(c)
DAV:   1    -0.256129175824E+03    0.54589E-02   -0.16064E+00   752   0.232E+00    0.146E-01
RMM:   2    -0.256133582127E+03   -0.44063E-02   -0.46734E-02   910   0.666E-01    0.445E-02
RMM:   3    -0.256134544239E+03   -0.96211E-03   -0.99268E-03   947   0.299E-01    0.396E-02
RMM:   4    -0.256134698317E+03   -0.15408E-03   -0.19267E-03  1010   0.125E-01    0.375E-02
RMM:   5    -0.256134687341E+03    0.10976E-04   -0.10344E-04   937   0.298E-02    0.269E-02
RMM:   6    -0.256134685144E+03    0.21978E-05   -0.13565E-04   704   0.204E-02    0.129E-02
RMM:   7    -0.256134682953E+03    0.21902E-05   -0.12885E-05   684   0.101E-02    0.518E-03
RMM:   8    -0.256134683622E+03   -0.66825E-06   -0.21424E-05   645   0.803E-03    0.805E-03
RMM:   9    -0.256134682613E+03    0.10088E-05   -0.34469E-06   556   0.576E-03    0.171E-03
RMM:  10    -0.256134682681E+03   -0.67665E-07   -0.22713E-06   504   0.385E-03
  16 F= -.26823210E+03 E0= -.26823210E+03  d E =-.377626E-03  mag=    -0.0000
       N       E                     dE             d eps       ncg     rms          rms(c)
DAV:   1    -0.256134680996E+03    0.16166E-05   -0.55146E-03   864   0.132E-01    0.872E-03
RMM:   2    -0.256134696364E+03   -0.15368E-04   -0.16355E-04   900   0.392E-02    0.223E-03
RMM:   3    -0.256134699530E+03   -0.31654E-05   -0.33471E-05   843   0.180E-02    0.217E-03
RMM:   4    -0.256134700121E+03   -0.59164E-06   -0.78930E-06   548   0.824E-03
  17 F= -.26823212E+03 E0= -.26823212E+03  d E =-.167385E-04  mag=    -0.0000
       N       E                     dE             d eps       ncg     rms          rms(c)
DAV:   1    -0.256134683205E+03    0.16324E-04   -0.13095E-02   864   0.203E-01    0.124E-02
RMM:   2    -0.256134719291E+03   -0.36086E-04   -0.37994E-04   911   0.595E-02    0.383E-03
RMM:   3    -0.256134726092E+03   -0.68008E-05   -0.73957E-05   924   0.270E-02    0.357E-03
RMM:   4    -0.256134727582E+03   -0.14904E-05   -0.19379E-05   637   0.120E-02    0.329E-03
RMM:   5    -0.256134727508E+03    0.74624E-07   -0.88450E-07   462   0.486E-03
  18 F= -.26823215E+03 E0= -.26823215E+03  d E =-.430239E-04  mag=    -0.0000
       N       E                     dE             d eps       ncg     rms          rms(c)
DAV:   1    -0.256134606185E+03    0.12140E-03   -0.52056E-02   800   0.405E-01    0.270E-02
RMM:   2    -0.256134746815E+03   -0.14063E-03   -0.14984E-03   910   0.117E-01    0.717E-03
RMM:   3    -0.256134776720E+03   -0.29905E-04   -0.30829E-04   947   0.529E-02    0.625E-03
RMM:   4    -0.256134782841E+03   -0.61204E-05   -0.74172E-05   907   0.235E-02    0.645E-03
RMM:   5    -0.256134782573E+03    0.26802E-06   -0.34674E-06   546   0.613E-03
  19 F= -.26823220E+03 E0= -.26823220E+03  d E =-.957442E-04  mag=     0.0000
       N       E                     dE             d eps       ncg     rms          rms(c)
DAV:   1    -0.256134176264E+03    0.60658E-03   -0.20779E-01   792   0.809E-01    0.555E-02
RMM:   2    -0.256134731911E+03   -0.55565E-03   -0.59471E-03   905   0.232E-01    0.149E-02
RMM:   3    -0.256134857736E+03   -0.12583E-03   -0.12905E-03   942   0.106E-01    0.129E-02
RMM:   4    -0.256134878619E+03   -0.20883E-04   -0.25836E-04  1004   0.441E-02    0.126E-02
RMM:   5    -0.256134877579E+03    0.10402E-05   -0.13360E-05   721   0.108E-02    0.958E-03
RMM:   6    -0.256134877222E+03    0.35683E-06   -0.19070E-05   640   0.776E-03    0.539E-03
RMM:   7    -0.256134876948E+03    0.27414E-06   -0.15172E-06   491   0.410E-03
  20 F= -.26823229E+03 E0= -.26823229E+03  d E =-.184578E-03  mag=     0.0000
       N       E                     dE             d eps       ncg     rms          rms(c)
DAV:   1    -0.256132207358E+03    0.26699E-02   -0.83651E-01   768   0.162E+00    0.105E-01
RMM:   2    -0.256134449145E+03   -0.22418E-02   -0.23757E-02   900   0.464E-01    0.290E-02
RMM:   3    -0.256134972976E+03   -0.52383E-03   -0.53842E-03   955   0.213E-01    0.286E-02
RMM:   4    -0.256135051282E+03   -0.78306E-04   -0.10113E-03  1015   0.868E-02    0.267E-02
RMM:   5    -0.256135045317E+03    0.59654E-05   -0.52029E-05   850   0.205E-02    0.199E-02
RMM:   6    -0.256135043885E+03    0.14320E-05   -0.86348E-05   699   0.152E-02    0.111E-02
RMM:   7    -0.256135042232E+03    0.16530E-05   -0.72285E-06   617   0.741E-03    0.457E-03
RMM:   8    -0.256135043324E+03   -0.10917E-05   -0.20559E-05   635   0.686E-03    0.835E-03
RMM:   9    -0.256135041817E+03    0.15066E-05   -0.45618E-06   531   0.490E-03    0.123E-03
RMM:  10    -0.256135041890E+03   -0.73389E-07   -0.17553E-06   488   0.327E-03
  21 F= -.26823244E+03 E0= -.26823244E+03  d E =-.335237E-03  mag=    -0.0000
       N       E                     dE             d eps       ncg     rms          rms(c)
DAV:   1    -0.256124065263E+03    0.10977E-01   -0.33408E+00   784   0.323E+00    0.214E-01
RMM:   2    -0.256133068370E+03   -0.90031E-02   -0.95613E-02   905   0.926E-01    0.585E-02
RMM:   3    -0.256135095738E+03   -0.20274E-02   -0.20872E-02   952   0.421E-01    0.550E-02
RMM:   4    -0.256135415079E+03   -0.31934E-03   -0.40419E-03  1009   0.174E-01    0.527E-02
RMM:   5    -0.256135392859E+03    0.22220E-04   -0.21527E-04   918   0.425E-02    0.392E-02
RMM:   6    -0.256135386116E+03    0.67436E-05   -0.32704E-04   702   0.300E-02    0.215E-02
RMM:   7    -0.256135380533E+03    0.55827E-05   -0.28327E-05   724   0.142E-02    0.902E-03
RMM:   8    -0.256135382567E+03   -0.20345E-05   -0.61454E-05   673   0.121E-02    0.138E-02
RMM:   9    -0.256135379217E+03    0.33500E-05   -0.92950E-06   613   0.810E-03    0.332E-03
RMM:  10    -0.256135379207E+03    0.10074E-07   -0.64044E-06   582   0.528E-03
  22 F= -.26823273E+03 E0= -.26823273E+03  d E =-.632116E-03  mag=    -0.0000
       N       E                     dE             d eps       ncg     rms          rms(c)
DAV:   1    -0.256090850143E+03    0.44529E-01   -0.13371E+01   768   0.645E+00    0.433E-01
RMM:   2    -0.256126889420E+03   -0.36039E-01   -0.38289E-01   908   0.186E+00    0.119E-01
RMM:   3    -0.256135187144E+03   -0.82977E-02   -0.85355E-02   965   0.851E-01    0.113E-01
RMM:   4    -0.256136471023E+03   -0.12839E-02   -0.16066E-02  1008   0.347E-01    0.108E-01
RMM:   5    -0.256136375338E+03    0.95685E-04   -0.86916E-04   926   0.840E-02    0.827E-02
RMM:   6    -0.256136339825E+03    0.35513E-04   -0.14019E-03   704   0.619E-02    0.438E-02
RMM:   7    -0.256136317592E+03    0.22232E-04   -0.11566E-04   779   0.296E-02    0.197E-02
RMM:   8    -0.256136331938E+03   -0.14345E-04   -0.32363E-04   718   0.265E-02    0.332E-02
RMM:   9    -0.256136308977E+03    0.22961E-04   -0.73661E-05   690   0.177E-02    0.404E-03
RMM:  10    -0.256136311243E+03   -0.22659E-05   -0.35364E-05   754   0.109E-02    0.493E-03
RMM:  11    -0.256136310778E+03    0.46515E-06   -0.41595E-06   555   0.576E-03
  23 F= -.26823354E+03 E0= -.26823354E+03  d E =-.143586E-02  mag=     0.0000
       N       E                     dE             d eps       ncg     rms          rms(c)
DAV:   1    -0.255953263345E+03    0.18305E+00   -0.53602E+01   776   0.130E+01    0.900E-01
RMM:   2    -0.256098942256E+03   -0.14568E+00   -0.15514E+00   910   0.382E+00    0.249E-01
RMM:   3    -0.256133686248E+03   -0.34744E-01   -0.35672E-01   956   0.174E+00    0.247E-01
RMM:   4    -0.256138998061E+03   -0.53118E-02   -0.66979E-02  1023   0.712E-01    0.235E-01
RMM:   5    -0.256138539407E+03    0.45865E-03   -0.34582E-03   933   0.169E-01    0.183E-01
RMM:   6    -0.256138367312E+03    0.17209E-03   -0.72265E-03   704   0.139E-01    0.103E-01
RMM:   7    -0.256138259434E+03    0.10788E-03   -0.55380E-04   773   0.659E-02    0.541E-02
RMM:   8    -0.256138348529E+03   -0.89095E-04   -0.21847E-03   730   0.667E-02    0.879E-02
RMM:   9    -0.256138186548E+03    0.16198E-03   -0.49805E-04   700   0.416E-02    0.138E-02
RMM:  10    -0.256138195826E+03   -0.92783E-05   -0.19404E-04   852   0.252E-02    0.749E-03
RMM:  11    -0.256138196229E+03   -0.40271E-06   -0.20182E-05   872   0.108E-02    0.338E-03
RMM:  12    -0.256138196139E+03    0.89743E-07   -0.42762E-06   571   0.565E-03
  24 F= -.26823499E+03 E0= -.26823499E+03  d E =-.289197E-02  mag=     0.0000
       N       E                     dE             d eps       ncg     rms          rms(c)
DAV:   1    -0.255372868482E+03    0.76533E+00   -0.21638E+02   832   0.268E+01    0.203E+00
RMM:   2    -0.255980600463E+03   -0.60773E+00   -0.65026E+00   922   0.795E+00    0.551E-01
RMM:   3    -0.256130008445E+03   -0.14941E+00   -0.15501E+00   953   0.364E+00    0.617E-01
RMM:   4    -0.256145073045E+03   -0.15065E-01   -0.20786E-01  1025   0.128E+00    0.527E-01
RMM:   5    -0.256142411167E+03    0.26619E-02   -0.15578E-02   908   0.369E-01    0.354E-01
RMM:   6    -0.256141779821E+03    0.63135E-03   -0.27361E-02   704   0.282E-01    0.182E-01
RMM:   7    -0.256141519847E+03    0.25997E-03   -0.21817E-03   836   0.141E-01    0.112E-01
RMM:   8    -0.256141866436E+03   -0.34659E-03   -0.79177E-03   728   0.129E-01    0.158E-01
RMM:   9    -0.256141240576E+03    0.62586E-03   -0.15579E-03   706   0.778E-02    0.351E-02
RMM:  10    -0.256141256627E+03   -0.16051E-04   -0.69475E-04   887   0.480E-02    0.124E-02
RMM:  11    -0.256141267500E+03   -0.10874E-04   -0.10077E-04  1011   0.216E-02    0.819E-03
RMM:  12    -0.256141266954E+03    0.54654E-06   -0.13502E-05   853   0.919E-03    0.467E-03
RMM:  13    -0.256141267004E+03   -0.50177E-07   -0.37501E-06   565   0.532E-03
  25 F= -.26823671E+03 E0= -.26823671E+03  d E =-.460895E-02  mag=    -0.0000
       N       E                     dE             d eps       ncg     rms          rms(c)
DAV:   1    -0.256141252427E+03    0.14527E-04   -0.23686E-02   856   0.268E-01    0.195E-02
RMM:   2    -0.256141318813E+03   -0.66386E-04   -0.70829E-04   918   0.783E-02    0.522E-03
RMM:   3    -0.256141331584E+03   -0.12770E-04   -0.13407E-04   935   0.350E-02    0.423E-03
RMM:   4    -0.256141334396E+03   -0.28123E-05   -0.35651E-05   765   0.158E-02    0.407E-03
RMM:   5    -0.256141334320E+03    0.75626E-07   -0.18802E-06   508   0.551E-03
  26 F= -.26823676E+03 E0= -.26823676E+03  d E =-.507291E-04  mag=    -0.0000
       N       E                     dE             d eps       ncg     rms          rms(c)
DAV:   1    -0.256140819425E+03    0.51497E-03   -0.21107E-01   880   0.800E-01    0.558E-02
RMM:   2    -0.256141393290E+03   -0.57386E-03   -0.61032E-03   914   0.230E-01    0.150E-02
RMM:   3    -0.256141507204E+03   -0.11391E-03   -0.11851E-03   940   0.103E-01    0.125E-02
RMM:   4    -0.256141534707E+03   -0.27503E-04   -0.33648E-04   985   0.488E-02    0.133E-02
RMM:   5    -0.256141534017E+03    0.69023E-06   -0.15090E-05   721   0.115E-02    0.110E-02
RMM:   6    -0.256141533895E+03    0.12147E-06   -0.18829E-05   651   0.813E-03    0.549E-03
RMM:   7    -0.256141533649E+03    0.24579E-06   -0.15882E-06   495   0.426E-03
  27 F= -.26823691E+03 E0= -.26823691E+03  d E =-.200197E-03  mag=    -0.0000
       N       E                     dE             d eps       ncg     rms          rms(c)
DAV:   1    -0.256139058959E+03    0.24749E-02   -0.84671E-01   848   0.160E+00    0.110E-01
RMM:   2    -0.256141347020E+03   -0.22881E-02   -0.24276E-02   913   0.461E-01    0.298E-02
RMM:   3    -0.256141852488E+03   -0.50547E-03   -0.52110E-03   949   0.209E-01    0.284E-02
RMM:   4    -0.256141943522E+03   -0.91034E-04   -0.11476E-03  1000   0.909E-02    0.285E-02
RMM:   5    -0.256141937696E+03    0.58257E-05   -0.57524E-05   881   0.215E-02    0.229E-02
RMM:   6    -0.256141935945E+03    0.17513E-05   -0.10093E-04   699   0.161E-02    0.122E-02
RMM:   7    -0.256141934309E+03    0.16363E-05   -0.78828E-06   616   0.750E-03    0.619E-03
RMM:   8    -0.256141933362E+03    0.94677E-06   -0.11808E-05   602   0.601E-03    0.520E-03
RMM:   9    -0.256141933560E+03   -0.19788E-06   -0.14216E-06   492   0.428E-03
  28 F= -.26823721E+03 E0= -.26823721E+03  d E =-.499822E-03  mag=    -0.0000
       N       E                     dE             d eps       ncg     rms          rms(c)
DAV:   1    -0.256131276878E+03    0.10656E-01   -0.33820E+00   832   0.321E+00    0.222E-01
RMM:   2    -0.256140462576E+03   -0.91857E-02   -0.97452E-02   914   0.921E-01    0.601E-02
RMM:   3    -0.256142413784E+03   -0.19512E-02   -0.20216E-02   955   0.415E-01    0.550E-02
RMM:   4    -0.256142780487E+03   -0.36670E-03   -0.45534E-03  1009   0.182E-01    0.558E-02
RMM:   5    -0.256142759076E+03    0.21412E-04   -0.22301E-04   947   0.424E-02    0.447E-02
RMM:   6    -0.256142750255E+03    0.88212E-05   -0.35067E-04   700   0.307E-02    0.216E-02
RMM:   7    -0.256142745599E+03    0.46561E-05   -0.29604E-05   731   0.145E-02    0.107E-02
RMM:   8    -0.256142746209E+03   -0.61095E-06   -0.68683E-05   672   0.128E-02    0.160E-02
RMM:   9    -0.256142742683E+03    0.35270E-05   -0.11415E-05   633   0.856E-03    0.284E-03
RMM:  10    -0.256142742998E+03   -0.31580E-06   -0.77994E-06   591   0.551E-03
  29 F= -.26823782E+03 E0= -.26823782E+03  d E =-.110745E-02  mag=     0.0000
       N       E                     dE             d eps       ncg     rms          rms(c)
DAV:   1    -0.256097952448E+03    0.44790E-01   -0.13543E+01   832   0.643E+00    0.452E-01
RMM:   2    -0.256134900203E+03   -0.36948E-01   -0.39227E-01   914   0.185E+00    0.122E-01
RMM:   3    -0.256143266042E+03   -0.83658E-02   -0.86599E-02   956   0.838E-01    0.122E-01
RMM:   4    -0.256144299773E+03   -0.10337E-02   -0.13658E-02  1015   0.320E-01    0.116E-01
RMM:   5    -0.256144166095E+03    0.13368E-03   -0.83849E-04   899   0.842E-02    0.838E-02
RMM:   6    -0.256144131835E+03    0.34260E-04   -0.16738E-03   706   0.643E-02    0.457E-02
RMM:   7    -0.256144102218E+03    0.29617E-04   -0.12894E-04   747   0.315E-02    0.203E-02
RMM:   8    -0.256144129066E+03   -0.26848E-04   -0.42569E-04   726   0.293E-02    0.384E-02
RMM:   9    -0.256144093754E+03    0.35312E-04   -0.96746E-05   692   0.185E-02    0.745E-03
RMM:  10    -0.256144095469E+03   -0.17144E-05   -0.46005E-05   772   0.120E-02    0.363E-03
RMM:  11    -0.256144095815E+03   -0.34670E-06   -0.51723E-06   596   0.602E-03
  30 F= -.26823877E+03 E0= -.26823877E+03  d E =-.205443E-02  mag=     0.0000
       N       E                     dE             d eps       ncg     rms          rms(c)
DAV:   1    -0.255959353937E+03    0.18474E+00   -0.54305E+01   824   0.130E+01    0.939E-01
RMM:   2    -0.256109573930E+03   -0.15022E+00   -0.15973E+00   920   0.377E+00    0.253E-01
RMM:   3    -0.256142486996E+03   -0.32913E-01   -0.34432E-01   942   0.168E+00    0.255E-01
RMM:   4    -0.256146662821E+03   -0.41758E-02   -0.55783E-02  1033   0.642E-01    0.241E-01
RMM:   5    -0.256146125381E+03    0.53744E-03   -0.32348E-03   922   0.168E-01    0.175E-01
RMM:   6    -0.256145982873E+03    0.14251E-03   -0.74150E-03   704   0.138E-01    0.101E-01
RMM:   7    -0.256145875025E+03    0.10785E-03   -0.54641E-04   771   0.671E-02    0.533E-02
RMM:   8    -0.256145967058E+03   -0.92034E-04   -0.20935E-03   730   0.655E-02    0.819E-02
RMM:   9    -0.256145811843E+03    0.15522E-03   -0.39566E-04   700   0.391E-02    0.186E-02
RMM:  10    -0.256145814381E+03   -0.25381E-05   -0.17189E-04   881   0.241E-02    0.539E-03
RMM:  11    -0.256145817179E+03   -0.27983E-05   -0.25805E-05   904   0.106E-02    0.382E-03
RMM:  12    -0.256145816922E+03    0.25718E-06   -0.32493E-06   544   0.516E-03
  31 F= -.26823969E+03 E0= -.26823969E+03  d E =-.298059E-02  mag=     0.0000
       N       E                     dE             d eps       ncg     rms          rms(c)
DAV:   1    -0.256138126751E+03    0.76904E-02   -0.28900E+00   928   0.296E+00    0.211E-01
RMM:   2    -0.256145993713E+03   -0.78670E-02   -0.83452E-02   922   0.840E-01    0.540E-02
RMM:   3    -0.256147499641E+03   -0.15059E-02   -0.15847E-02   929   0.373E-01    0.463E-02
RMM:   4    -0.256147856721E+03   -0.35708E-03   -0.44463E-03  1004   0.174E-01    0.505E-02
RMM:   5    -0.256147844326E+03    0.12395E-04   -0.18497E-04   945   0.391E-02    0.415E-02
RMM:   6    -0.256147841922E+03    0.24038E-05   -0.29315E-04   700   0.286E-02    0.213E-02
RMM:   7    -0.256147837511E+03    0.44115E-05   -0.24838E-05   711   0.131E-02    0.102E-02
RMM:   8    -0.256147835642E+03    0.18685E-05   -0.50731E-05   668   0.113E-02    0.129E-02
RMM:   9    -0.256147834661E+03    0.98113E-06   -0.63374E-06   608   0.742E-03
  32 F= -.26824152E+03 E0= -.26824152E+03  d E =-.183065E-02  mag=     0.0000
       N       E                     dE             d eps       ncg     rms          rms(c)
DAV:   1    -0.256066173851E+03    0.81662E-01   -0.26034E+01   840   0.893E+00    0.641E-01
RMM:   2    -0.256137399859E+03   -0.71226E-01   -0.75628E-01   924   0.255E+00    0.166E-01
RMM:   3    -0.256153198554E+03   -0.15799E-01   -0.16545E-01   938   0.114E+00    0.172E-01
RMM:   4    -0.256154708830E+03   -0.15103E-02   -0.21617E-02  1023   0.405E-01    0.161E-01
RMM:   5    -0.256154373852E+03    0.33498E-03   -0.15860E-03   873   0.116E-01    0.985E-02
RMM:   6    -0.256154355553E+03    0.18299E-04   -0.29867E-03   705   0.865E-02    0.619E-02
RMM:   7    -0.256154294770E+03    0.60783E-04   -0.23804E-04   760   0.449E-02    0.257E-02
RMM:   8    -0.256154370301E+03   -0.75531E-04   -0.90337E-04   732   0.417E-02    0.555E-02
RMM:   9    -0.256154284001E+03    0.86301E-04   -0.22908E-04   696   0.273E-02    0.104E-02
RMM:  10    -0.256154288030E+03   -0.40288E-05   -0.99248E-05   845   0.176E-02    0.465E-03
RMM:  11    -0.256154288716E+03   -0.68612E-06   -0.10046E-05   706   0.772E-03    0.293E-03
RMM:  12    -0.256154288562E+03    0.15417E-06   -0.19453E-06   495   0.445E-03
  33 F= -.26824743E+03 E0= -.26824743E+03  d E =-.774247E-02  mag=     0.0000
       N       E                     dE             d eps       ncg     rms          rms(c)
DAV:   1    -0.255801733947E+03    0.35255E+00   -0.10460E+02   840   0.182E+01    0.137E+00
RMM:   2    -0.256091891825E+03   -0.29016E+00   -0.30960E+00   924   0.537E+00    0.359E-01
RMM:   3    -0.256163365602E+03   -0.71474E-01   -0.74443E-01   935   0.240E+00    0.401E-01
RMM:   4    -0.256167977550E+03   -0.46119E-02   -0.74632E-02  1034   0.781E-01    0.352E-01
RMM:   5    -0.256166324876E+03    0.16527E-02   -0.70483E-03   873   0.247E-01    0.222E-01
RMM:   6    -0.256166335881E+03   -0.11005E-04   -0.15389E-02   704   0.197E-01    0.142E-01
RMM:   7    -0.256165977617E+03    0.35826E-03   -0.11302E-03   744   0.100E-01    0.683E-02
RMM:   8    -0.256166440819E+03   -0.46320E-03   -0.56525E-03   730   0.103E-01    0.133E-01
RMM:   9    -0.256165885065E+03    0.55575E-03   -0.12517E-03   704   0.655E-02    0.305E-02
RMM:  10    -0.256165891354E+03   -0.62890E-05   -0.37556E-04   918   0.382E-02    0.126E-02
RMM:  11    -0.256165898976E+03   -0.76217E-05   -0.10678E-04   883   0.173E-02    0.726E-03
RMM:  12    -0.256165898026E+03    0.94987E-06   -0.13241E-05   768   0.890E-03    0.347E-03
RMM:  13    -0.256165898485E+03   -0.45890E-06   -0.34421E-06   537   0.537E-03
  34 F= -.26825804E+03 E0= -.26825804E+03  d E =-.183456E-01  mag=     0.0000
       N       E                     dE             d eps       ncg     rms          rms(c)
DAV:   1    -0.254570230000E+03    0.15957E+01   -0.42530E+02   808   0.392E+01    0.331E+00
RMM:   2    -0.255847869617E+03   -0.12776E+01   -0.13736E+01   934   0.114E+01    0.822E-01
RMM:   3    -0.256160655670E+03   -0.31279E+00   -0.32820E+00   940   0.521E+00    0.101E+00
RMM:   4    -0.256180930462E+03   -0.20275E-01   -0.32918E-01  1013   0.167E+00    0.851E-01
RMM:   5    -0.256173865457E+03    0.70650E-02   -0.32820E-02   905   0.548E-01    0.587E-01
RMM:   6    -0.256172329597E+03    0.15359E-02   -0.71174E-02   704   0.459E-01    0.298E-01
RMM:   7    -0.256171352243E+03    0.97735E-03   -0.52294E-03   778   0.218E-01    0.186E-01
RMM:   8    -0.256172278622E+03   -0.92638E-03   -0.20724E-02   726   0.219E-01    0.236E-01
RMM:   9    -0.256170556873E+03    0.17217E-02   -0.37702E-03   707   0.130E-01    0.504E-02
RMM:  10    -0.256170593788E+03   -0.36915E-04   -0.15488E-03   927   0.760E-02    0.205E-02
RMM:  11    -0.256170610456E+03   -0.16667E-04   -0.16840E-04  1035   0.317E-02    0.133E-02
RMM:  12    -0.256170619274E+03   -0.88189E-05   -0.62739E-05   957   0.163E-02    0.568E-03
RMM:  13    -0.256170621780E+03   -0.25056E-05   -0.17530E-05   875   0.860E-03    0.779E-03
RMM:  14    -0.256170619770E+03    0.20103E-05   -0.42855E-06   581   0.545E-03    0.423E-03
RMM:  15    -0.256170619009E+03    0.76100E-06   -0.38980E-06   522   0.480E-03
  35 F= -.26826090E+03 E0= -.26826090E+03  d E =-.212089E-01  mag=    -0.0000
       N       E                     dE             d eps       ncg     rms          rms(c)
DAV:   1    -0.255774720986E+03    0.39590E+00   -0.11312E+02   816   0.189E+01    0.151E+00
RMM:   2    -0.256096070885E+03   -0.32135E+00   -0.34191E+00   942   0.559E+00    0.386E-01
RMM:   3    -0.256169159776E+03   -0.73089E-01   -0.76678E-01   925   0.249E+00    0.413E-01
RMM:   4    -0.256174321864E+03   -0.51621E-02   -0.82543E-02  1024   0.826E-01    0.364E-01
RMM:   5    -0.256172648462E+03    0.16734E-02   -0.71206E-03   847   0.253E-01    0.227E-01
RMM:   6    -0.256172457906E+03    0.19056E-03   -0.13618E-02   708   0.196E-01    0.114E-01
RMM:   7    -0.256172228922E+03    0.22898E-03   -0.10395E-03   769   0.975E-02    0.522E-02
RMM:   8    -0.256172434493E+03   -0.20557E-03   -0.27604E-03   720   0.778E-02    0.909E-02
RMM:   9    -0.256172189087E+03    0.24541E-03   -0.53314E-04   704   0.507E-02    0.202E-02
RMM:  10    -0.256172198619E+03   -0.95319E-05   -0.30204E-04   895   0.322E-02    0.848E-03
RMM:  11    -0.256172204380E+03   -0.57613E-05   -0.47806E-05   955   0.142E-02    0.607E-03
RMM:  12    -0.256172203530E+03    0.84971E-06   -0.70006E-06   650   0.663E-03
  36 F= -.26826344E+03 E0= -.26826344E+03  d E =-.237457E-01  mag=    -0.0000
       N       E                     dE             d eps       ncg     rms          rms(c)
DAV:   1    -0.256123554745E+03    0.48650E-01   -0.19353E+01   832   0.759E+00    0.569E-01
RMM:   2    -0.256176695769E+03   -0.53141E-01   -0.56411E-01   932   0.220E+00    0.135E-01
RMM:   3    -0.256187385533E+03   -0.10690E-01   -0.11373E-01   912   0.976E-01    0.136E-01
RMM:   4    -0.256189025341E+03   -0.16398E-02   -0.21836E-02  1034   0.401E-01    0.139E-01
RMM:   5    -0.256188830261E+03    0.19508E-03   -0.94962E-04   901   0.964E-02    0.104E-01
RMM:   6    -0.256188773571E+03    0.56690E-04   -0.27914E-03   706   0.828E-02    0.618E-02
RMM:   7    -0.256188727397E+03    0.46175E-04   -0.20249E-04   721   0.375E-02    0.291E-02
RMM:   8    -0.256188746790E+03   -0.19393E-04   -0.58585E-04   719   0.354E-02    0.408E-02
RMM:   9    -0.256188709078E+03    0.37712E-04   -0.10232E-04   696   0.218E-02    0.806E-03
RMM:  10    -0.256188710169E+03   -0.10912E-05   -0.51959E-05   772   0.138E-02    0.305E-03
RMM:  11    -0.256188710439E+03   -0.26958E-06   -0.63456E-06   632   0.674E-03
  37 F= -.26827951E+03 E0= -.26827951E+03  d E =-.160709E-01  mag=     0.0000
       N       E                     dE             d eps       ncg     rms          rms(c)
DAV:   1    -0.255610823586E+03    0.57789E+00   -0.17570E+02   816   0.236E+01    0.182E+00
RMM:   2    -0.256114087276E+03   -0.50326E+00   -0.53840E+00   940   0.695E+00    0.449E-01
RMM:   3    -0.256225801866E+03   -0.11171E+00   -0.11869E+00   924   0.314E+00    0.513E-01
RMM:   4    -0.256235798915E+03   -0.99970E-02   -0.14822E-01  1036   0.109E+00    0.481E-01
RMM:   5    -0.256233147768E+03    0.26511E-02   -0.10697E-02   879   0.321E-01    0.336E-01
RMM:   6    -0.256232633450E+03    0.51432E-03   -0.32450E-02   704   0.291E-01    0.212E-01
RMM:   7    -0.256232117268E+03    0.51618E-03   -0.21817E-03   747   0.134E-01    0.125E-01
RMM:   8    -0.256232308697E+03   -0.19143E-03   -0.80383E-03   724   0.132E-01    0.138E-01
RMM:   9    -0.256231762923E+03    0.54577E-03   -0.12619E-03   700   0.778E-02    0.273E-02
RMM:  10    -0.256231774911E+03   -0.11988E-04   -0.65811E-04   850   0.479E-02    0.142E-02
RMM:  11    -0.256231783395E+03   -0.84839E-05   -0.10155E-04   962   0.251E-02    0.833E-03
RMM:  12    -0.256231781224E+03    0.21713E-05   -0.22819E-05   826   0.110E-02    0.492E-03
RMM:  13    -0.256231782510E+03   -0.12863E-05   -0.64400E-06   668   0.666E-03    0.325E-03
RMM:  14    -0.256231782708E+03   -0.19728E-06   -0.12845E-06   468   0.447E-03
  38 F= -.26832130E+03 E0= -.26832130E+03  d E =-.578586E-01  mag=     0.0000
       N       E                     dE             d eps       ncg     rms          rms(c)
DAV:   1    -0.253436428215E+03    0.27954E+01   -0.72307E+02   784   0.523E+01    0.456E+00
RMM:   2    -0.255659842533E+03   -0.22234E+01   -0.23992E+01   924   0.148E+01    0.113E+00
RMM:   3    -0.256215463831E+03   -0.55562E+00   -0.58182E+00   937   0.723E+00    0.142E+00
RMM:   4    -0.256265624364E+03   -0.50161E-01   -0.74683E-01  1008   0.246E+00    0.125E+00
RMM:   5    -0.256254291408E+03    0.11333E-01   -0.66084E-02   926   0.776E-01    0.913E-01
RMM:   6    -0.256247880906E+03    0.64105E-02   -0.13691E-01   704   0.661E-01    0.422E-01
RMM:   7    -0.256247073222E+03    0.80768E-03   -0.10825E-02   799   0.292E-01    0.315E-01
RMM:   8    -0.256245791313E+03    0.12819E-02   -0.25034E-02   704   0.262E-01    0.219E-01
RMM:   9    -0.256244847894E+03    0.94342E-03   -0.22147E-03   719   0.155E-01    0.782E-02
RMM:  10    -0.256244738973E+03    0.10892E-03   -0.19002E-03   771   0.898E-02    0.292E-02
RMM:  11    -0.256244814676E+03   -0.75702E-04   -0.61319E-04   948   0.606E-02    0.259E-02
RMM:  12    -0.256244789924E+03    0.24751E-04   -0.29294E-04   761   0.303E-02    0.239E-02
RMM:  13    -0.256244792967E+03   -0.30431E-05   -0.54414E-05   921   0.188E-02    0.824E-03
RMM:  14    -0.256244793017E+03   -0.49738E-07   -0.18008E-05   832   0.940E-03    0.428E-03
RMM:  15    -0.256244792579E+03    0.43789E-06   -0.48002E-06   595   0.551E-03
  39 F= -.26833196E+03 E0= -.26833196E+03  d E =-.685264E-01  mag=     0.0000
       N       E                     dE             d eps       ncg     rms          rms(c)
DAV:   1    -0.255585995469E+03    0.65880E+00   -0.18616E+02   816   0.247E+01    0.213E+00
RMM:   2    -0.256131287722E+03   -0.54529E+00   -0.58081E+00   948   0.733E+00    0.494E-01
RMM:   3    -0.256247825195E+03   -0.11654E+00   -0.12453E+00   927   0.332E+00    0.570E-01
RMM:   4    -0.256259347161E+03   -0.11522E-01   -0.17382E-01  1029   0.120E+00    0.484E-01
RMM:   5    -0.256256932456E+03    0.24147E-02   -0.12822E-02   873   0.350E-01    0.326E-01
RMM:   6    -0.256256039793E+03    0.89266E-03   -0.23630E-02   708   0.268E-01    0.141E-01
RMM:   7    -0.256255809581E+03    0.23021E-03   -0.16568E-03   762   0.127E-01    0.804E-02
RMM:   8    -0.256256022534E+03   -0.21295E-03   -0.43004E-03   708   0.102E-01    0.114E-01
RMM:   9    -0.256255695985E+03    0.32655E-03   -0.57700E-04   700   0.661E-02    0.315E-02
RMM:  10    -0.256255690505E+03    0.54800E-05   -0.37477E-04   886   0.395E-02    0.113E-02
RMM:  11    -0.256255699719E+03   -0.92139E-05   -0.90327E-05   979   0.192E-02    0.716E-03
RMM:  12    -0.256255702631E+03   -0.29115E-05   -0.15665E-05   804   0.852E-03    0.359E-03
RMM:  13    -0.256255703464E+03   -0.83307E-06   -0.35391E-06   558   0.495E-03
  40 F= -.26834402E+03 E0= -.26834402E+03  d E =-.805871E-01  mag=     0.0000
       N       E                     dE             d eps       ncg     rms          rms(c)
DAV:   1    -0.256269727335E+03   -0.14025E-01   -0.11150E+01   848   0.534E+00    0.418E-01
RMM:   2    -0.256299273429E+03   -0.29546E-01   -0.31362E-01   930   0.153E+00    0.952E-02
RMM:   3    -0.256306158554E+03   -0.68851E-02   -0.74013E-02   912   0.695E-01    0.118E-01
RMM:   4    -0.256306392839E+03   -0.23428E-03   -0.54630E-03  1003   0.217E-01    0.101E-01
RMM:   5    -0.256306146069E+03    0.24677E-03   -0.83937E-04   726   0.754E-02    0.372E-02
RMM:   6    -0.256306179707E+03   -0.33638E-04   -0.93490E-04   704   0.535E-02    0.327E-02
RMM:   7    -0.256306147645E+03    0.32062E-04   -0.13323E-04   717   0.345E-02    0.125E-02
RMM:   8    -0.256306171378E+03   -0.23733E-04   -0.13130E-04   760   0.198E-02    0.223E-02
RMM:   9    -0.256306156263E+03    0.15114E-04   -0.22085E-05   664   0.132E-02    0.850E-03
RMM:  10    -0.256306156445E+03   -0.18186E-06   -0.75381E-06   616   0.671E-03
  41 F= -.26839417E+03 E0= -.26839417E+03  d E =-.501434E-01  mag=     0.0000
       N       E                     dE             d eps       ncg     rms          rms(c)
DAV:   1    -0.256099123107E+03    0.20703E+00   -0.10111E+02   800   0.165E+01    0.123E+00
RMM:   2    -0.256375646374E+03   -0.27652E+00   -0.29521E+00   935   0.483E+00    0.324E-01
RMM:   3    -0.256442990263E+03   -0.67344E-01   -0.72352E-01   927   0.225E+00    0.394E-01
RMM:   4    -0.256445422404E+03   -0.24321E-02   -0.54615E-02  1009   0.691E-01    0.330E-01
RMM:   5    -0.256443107470E+03    0.23149E-02   -0.75477E-03   740   0.245E-01    0.155E-01
RMM:   6    -0.256443384148E+03   -0.27668E-03   -0.12384E-02   708   0.193E-01    0.124E-01
RMM:   7    -0.256443101190E+03    0.28296E-03   -0.84780E-04   794   0.110E-01    0.703E-02
RMM:   8    -0.256443308727E+03   -0.20754E-03   -0.39864E-03   702   0.886E-02    0.994E-02
RMM:   9    -0.256443019391E+03    0.28934E-03   -0.49957E-04   706   0.527E-02    0.334E-02
RMM:  10    -0.256443001268E+03    0.18124E-04   -0.19297E-04   851   0.322E-02    0.181E-02
RMM:  11    -0.256442999381E+03    0.18864E-05   -0.51760E-05   771   0.146E-02    0.935E-03
RMM:  12    -0.256442997249E+03    0.21326E-05   -0.29412E-05   606   0.858E-03    0.263E-03
RMM:  13    -0.256442997779E+03   -0.53055E-06   -0.59532E-06   613   0.610E-03
  42 F= -.26853017E+03 E0= -.26853017E+03  d E =-.186142E+00  mag=    -0.0000
       N       E                     dE             d eps       ncg     rms          rms(c)
DAV:   1    -0.255078540576E+03    0.13645E+01   -0.41410E+02   800   0.360E+01    0.297E+00
RMM:   2    -0.256295580304E+03   -0.12170E+01   -0.13083E+01   931   0.102E+01    0.830E-01
RMM:   3    -0.256609045019E+03   -0.31346E+00   -0.33326E+00   946   0.513E+00    0.100E+00
RMM:   4    -0.256621858748E+03   -0.12814E-01   -0.27651E-01  1012   0.157E+00    0.801E-01
RMM:   5    -0.256612346915E+03    0.95118E-02   -0.39112E-02   808   0.590E-01    0.439E-01
RMM:   6    -0.256612151949E+03    0.19497E-03   -0.52645E-02   712   0.435E-01    0.235E-01
RMM:   7    -0.256611124504E+03    0.10274E-02   -0.36269E-03   763   0.237E-01    0.124E-01
RMM:   8    -0.256612617353E+03   -0.14928E-02   -0.16358E-02   708   0.190E-01    0.217E-01
RMM:   9    -0.256611041121E+03    0.15762E-02   -0.24525E-03   714   0.118E-01    0.753E-02
RMM:  10    -0.256611054006E+03   -0.12884E-04   -0.74753E-04   917   0.709E-02    0.626E-02
RMM:  11    -0.256611061175E+03   -0.71689E-05   -0.12860E-04   989   0.233E-02    0.662E-02
RMM:  12    -0.256610962039E+03    0.99136E-04   -0.18826E-04   698   0.232E-02    0.262E-02
RMM:  13    -0.256610947653E+03    0.14385E-04   -0.13277E-04   695   0.184E-02    0.912E-03
RMM:  14    -0.256610949711E+03   -0.20579E-05   -0.46153E-05   756   0.137E-02    0.103E-02
RMM:  15    -0.256610950318E+03   -0.60663E-06   -0.70960E-06   697   0.682E-03
  43 F= -.26869689E+03 E0= -.26869689E+03  d E =-.352863E+00  mag=     0.0000
       N       E                     dE             d eps       ncg     rms          rms(c)
DAV:   1    -0.256428048340E+03    0.18290E+00   -0.54894E+01   864   0.122E+01    0.914E-01
RMM:   2    -0.256579316378E+03   -0.15127E+00   -0.16043E+00   934   0.355E+00    0.238E-01
RMM:   3    -0.256617225086E+03   -0.37909E-01   -0.40707E-01   927   0.166E+00    0.284E-01
RMM:   4    -0.256618338499E+03   -0.11134E-02   -0.29902E-02   999   0.511E-01    0.231E-01
RMM:   5    -0.256617017598E+03    0.13209E-02   -0.44431E-03   742   0.189E-01    0.936E-02
RMM:   6    -0.256617189494E+03   -0.17190E-03   -0.61403E-03   708   0.142E-01    0.851E-02
RMM:   7    -0.256616970190E+03    0.21930E-03   -0.63571E-04   745   0.866E-02    0.228E-02
RMM:   8    -0.256617262632E+03   -0.29244E-03   -0.18850E-03   714   0.633E-02    0.855E-02
RMM:   9    -0.256617017975E+03    0.24466E-03   -0.35120E-04   703   0.452E-02    0.291E-02
RMM:  10    -0.256617022739E+03   -0.47648E-05   -0.95299E-05   843   0.264E-02    0.253E-02
RMM:  11    -0.256617022240E+03    0.49953E-06   -0.16150E-05   757   0.904E-03    0.233E-02
RMM:  12    -0.256617015545E+03    0.66950E-05   -0.58806E-06   577   0.519E-03    0.167E-02
RMM:  13    -0.256617004967E+03    0.10578E-04   -0.44417E-05   634   0.933E-03    0.553E-03
RMM:  14    -0.256617005698E+03   -0.73174E-06   -0.55663E-06   604   0.543E-03
  44 F= -.26870265E+03 E0= -.26870265E+03  d E =-.358631E+00  mag=     0.0000
       N       E                     dE             d eps       ncg     rms          rms(c)
DAV:   1    -0.256667232651E+03   -0.50228E-01   -0.24965E+01   784   0.865E+00    0.588E-01
RMM:   2    -0.256733096515E+03   -0.65864E-01   -0.70371E-01   966   0.258E+00    0.238E-01
RMM:   3    -0.256748781447E+03   -0.15685E-01   -0.16484E-01   942   0.119E+00    0.172E-01
RMM:   4    -0.256750741279E+03   -0.19598E-02   -0.25104E-02   998   0.446E-01    0.152E-01
RMM:   5    -0.256750534263E+03    0.20702E-03   -0.17085E-03   924   0.127E-01    0.848E-02
RMM:   6    -0.256750503635E+03    0.30629E-04   -0.10910E-03   720   0.696E-02    0.318E-02
RMM:   7    -0.256750491312E+03    0.12323E-04   -0.16303E-04   866   0.364E-02    0.149E-02
RMM:   8    -0.256750499775E+03   -0.84626E-05   -0.12785E-04   743   0.211E-02    0.174E-02
RMM:   9    -0.256750493980E+03    0.57951E-05   -0.44319E-05   720   0.157E-02    0.486E-03
RMM:  10    -0.256750496135E+03   -0.21557E-05   -0.19584E-05   838   0.961E-03    0.703E-03
RMM:  11    -0.256750495357E+03    0.77822E-06   -0.58400E-06   628   0.559E-03
  45 F= -.26883617E+03 E0= -.26883617E+03  d E =-.133512E+00  mag=     0.0000
       N       E                     dE             d eps       ncg     rms          rms(c)
DAV:   1    -0.256172978497E+03    0.57752E+00   -0.22804E+02   752   0.275E+01    0.216E+00
RMM:   2    -0.256820733572E+03   -0.64776E+00   -0.69629E+00   972   0.821E+00    0.762E-01
RMM:   3    -0.256985536113E+03   -0.16480E+00   -0.17382E+00   945   0.389E+00    0.710E-01
RMM:   4    -0.256995995198E+03   -0.10459E-01   -0.15897E-01  1031   0.122E+00    0.538E-01
RMM:   5    -0.256993098315E+03    0.28969E-02   -0.20893E-02   837   0.439E-01    0.226E-01
RMM:   6    -0.256993202149E+03   -0.10383E-03   -0.11233E-02   729   0.253E-01    0.114E-01
RMM:   7    -0.256993037395E+03    0.16475E-03   -0.22169E-03   956   0.145E-01    0.492E-02
RMM:   8    -0.256993137129E+03   -0.99734E-04   -0.15881E-03   808   0.724E-02    0.514E-02
RMM:   9    -0.256993076593E+03    0.60536E-04   -0.45432E-04   760   0.494E-02    0.131E-02
RMM:  10    -0.256993101441E+03   -0.24847E-04   -0.21037E-04   954   0.310E-02    0.170E-02
RMM:  11    -0.256993095590E+03    0.58503E-05   -0.55767E-05   896   0.153E-02    0.459E-03
RMM:  12    -0.256993097370E+03   -0.17794E-05   -0.26658E-05   862   0.985E-03    0.335E-03
RMM:  13    -0.256993097500E+03   -0.13047E-06   -0.37501E-06   561   0.525E-03
  46 F= -.26907879E+03 E0= -.26907879E+03  d E =-.376135E+00  mag=     0.0000
       N       E                     dE             d eps       ncg     rms          rms(c)
DAV:   1    -0.257062374532E+03   -0.69277E-01   -0.24281E+01   848   0.891E+00    0.619E-01
RMM:   2    -0.257127940151E+03   -0.65566E-01   -0.71126E-01   910   0.279E+00    0.253E-01
RMM:   3    -0.257144285681E+03   -0.16346E-01   -0.17489E-01   972   0.131E+00    0.177E-01
RMM:   4    -0.257146566293E+03   -0.22806E-02   -0.27998E-02   994   0.492E-01    0.148E-01
RMM:   5    -0.257146422338E+03    0.14396E-03   -0.22110E-03  1005   0.139E-01    0.751E-02
RMM:   6    -0.257146412533E+03    0.98050E-05   -0.76354E-04   832   0.649E-02    0.232E-02
RMM:   7    -0.257146409130E+03    0.34025E-05   -0.22280E-04  1027   0.353E-02    0.117E-02
RMM:   8    -0.257146415607E+03   -0.64767E-05   -0.77616E-05  1010   0.176E-02    0.101E-02
RMM:   9    -0.257146414759E+03    0.84761E-06   -0.25064E-05   731   0.107E-02    0.426E-03
RMM:  10    -0.257146415454E+03   -0.69492E-06   -0.79814E-06   747   0.669E-03
  47 F= -.26923239E+03 E0= -.26923239E+03  d E =-.153595E+00  mag=    -0.0000
       N       E                     dE             d eps       ncg     rms          rms(c)
DAV:   1    -0.256861664626E+03    0.28475E+00   -0.11299E+02   736   0.199E+01    0.140E+00
RMM:   2    -0.257191916340E+03   -0.33025E+00   -0.35936E+00   930   0.630E+00    0.592E-01
RMM:   3    -0.257271997645E+03   -0.80081E-01   -0.85220E-01   955   0.287E+00    0.461E-01
RMM:   4    -0.257283228589E+03   -0.11231E-01   -0.14234E-01  1004   0.112E+00    0.368E-01
RMM:   5    -0.257282241314E+03    0.98728E-03   -0.11181E-02   978   0.309E-01    0.178E-01
RMM:   6    -0.257282133838E+03    0.10748E-03   -0.43038E-03   802   0.158E-01    0.614E-02
RMM:   7    -0.257282100025E+03    0.33812E-04   -0.12389E-03  1022   0.865E-02    0.300E-02
RMM:   8    -0.257282135326E+03   -0.35300E-04   -0.48771E-04   959   0.429E-02    0.296E-02
RMM:   9    -0.257282125353E+03    0.99728E-05   -0.13711E-04   776   0.263E-02    0.835E-03
RMM:  10    -0.257282131720E+03   -0.63672E-05   -0.62550E-05  1000   0.167E-02    0.968E-03
RMM:  11    -0.257282131110E+03    0.60990E-06   -0.16042E-05   861   0.905E-03    0.268E-03
RMM:  12    -0.257282131465E+03   -0.35505E-06   -0.60503E-06   627   0.577E-03
  48 F= -.26936857E+03 E0= -.26936857E+03  d E =-.289778E+00  mag=     0.0000
       N       E                     dE             d eps       ncg     rms          rms(c)
DAV:   1    -0.257309546876E+03   -0.27416E-01   -0.22014E+01   800   0.810E+00    0.521E-01
RMM:   2    -0.257368312175E+03   -0.58765E-01   -0.61944E-01   961   0.247E+00    0.202E-01
RMM:   3    -0.257383148091E+03   -0.14836E-01   -0.14841E-01   978   0.112E+00    0.159E-01
RMM:   4    -0.257384971323E+03   -0.18232E-02   -0.20604E-02  1007   0.431E-01    0.141E-01
RMM:   5    -0.257384939869E+03    0.31454E-04   -0.18114E-03   990   0.119E-01    0.923E-02
RMM:   6    -0.257384966486E+03   -0.26617E-04   -0.85735E-04   720   0.644E-02    0.389E-02
RMM:   7    -0.257384966472E+03    0.14059E-07   -0.20671E-04   992   0.368E-02    0.273E-02
RMM:   8    -0.257384954666E+03    0.11807E-04   -0.92151E-05   785   0.188E-02    0.790E-03
RMM:   9    -0.257384958438E+03   -0.37725E-05   -0.37654E-05   920   0.120E-02    0.859E-03
RMM:  10    -0.257384957347E+03    0.10916E-05   -0.19143E-05   661   0.893E-03    0.612E-03
RMM:  11    -0.257384957083E+03    0.26331E-06   -0.29506E-06   522   0.530E-03
  49 F= -.26947119E+03 E0= -.26947119E+03  d E =-.102624E+00  mag=     0.0000
       N       E                     dE             d eps       ncg     rms          rms(c)
DAV:   1    -0.256855052343E+03    0.52991E+00   -0.20166E+02   720   0.257E+01    0.195E+00
RMM:   2    -0.257457080121E+03   -0.60203E+00   -0.64150E+00   976   0.808E+00    0.695E-01
RMM:   3    -0.257604538403E+03   -0.14746E+00   -0.14935E+00   949   0.359E+00    0.766E-01
RMM:   4    -0.257622383407E+03   -0.17845E-01   -0.20719E-01  1038   0.138E+00    0.580E-01
RMM:   5    -0.257621962942E+03    0.42046E-03   -0.19305E-02   970   0.381E-01    0.360E-01
RMM:   6    -0.257622051982E+03   -0.89040E-04   -0.10254E-02   716   0.232E-01    0.152E-01
RMM:   7    -0.257622049402E+03    0.25803E-05   -0.23162E-03  1020   0.123E-01    0.120E-01
RMM:   8    -0.257621849881E+03    0.19952E-03   -0.17728E-03   714   0.792E-02    0.310E-02
RMM:   9    -0.257621874250E+03   -0.24369E-04   -0.37106E-04   969   0.526E-02    0.154E-02
RMM:  10    -0.257621884848E+03   -0.10598E-04   -0.11860E-04  1084   0.238E-02    0.126E-02
RMM:  11    -0.257621888780E+03   -0.39315E-05   -0.25758E-05  1031   0.119E-02    0.884E-03
RMM:  12    -0.257621887876E+03    0.90363E-06   -0.14831E-05   727   0.804E-03    0.236E-03
RMM:  13    -0.257621887737E+03    0.13891E-06   -0.38049E-06   564   0.509E-03
  50 F= -.26970734E+03 E0= -.26970734E+03  d E =-.338772E+00  mag=     0.0000
       N       E                     dE             d eps       ncg     rms          rms(c)
DAV:   1    -0.254325944563E+03    0.32959E+01   -0.85574E+02   712   0.588E+01    0.685E+00
RMM:   2    -0.257104317369E+03   -0.27784E+01   -0.29619E+01   986   0.166E+01    0.204E+00
RMM:   3    -0.257690899419E+03   -0.58658E+00   -0.59652E+00   933   0.759E+00    0.253E+00
RMM:   4    -0.257769447365E+03   -0.78548E-01   -0.94710E-01  1072   0.290E+00    0.175E+00
RMM:   5    -0.257766542964E+03    0.29044E-02   -0.64684E-02  1001   0.721E-01    0.114E+00
RMM:   6    -0.257766793752E+03   -0.25079E-03   -0.49602E-02   706   0.523E-01    0.384E-01
RMM:   7    -0.257766011488E+03    0.78226E-03   -0.10495E-02   958   0.290E-01    0.231E-01
RMM:   8    -0.257765693769E+03    0.31772E-03   -0.94783E-03   731   0.185E-01    0.134E-01
RMM:   9    -0.257765634996E+03    0.58773E-04   -0.20339E-03   892   0.128E-01    0.632E-02
RMM:  10    -0.257765693644E+03   -0.58648E-04   -0.82912E-04  1073   0.647E-02    0.324E-02
RMM:  11    -0.257765719207E+03   -0.25562E-04   -0.25624E-04   978   0.330E-02    0.240E-02
RMM:  12    -0.257765718756E+03    0.45119E-06   -0.80483E-05   862   0.199E-02    0.720E-03
RMM:  13    -0.257765721069E+03   -0.23129E-05   -0.33213E-05  1022   0.120E-02    0.435E-03
RMM:  14    -0.257765721037E+03    0.32021E-07   -0.57629E-06   671   0.602E-03
  51 F= -.26984881E+03 E0= -.26984881E+03  d E =-.480241E+00  mag=     0.0000
       N       E                     dE             d eps       ncg     rms          rms(c)
DAV:   1    -0.257730746634E+03    0.34974E-01   -0.46744E+01   816   0.128E+01    0.105E+00
RMM:   2    -0.257890674572E+03   -0.15993E+00   -0.17643E+00   880   0.438E+00    0.445E-01
RMM:   3    -0.257934411121E+03   -0.43737E-01   -0.46987E-01   970   0.198E+00    0.369E-01
RMM:   4    -0.257937626062E+03   -0.32149E-02   -0.58079E-02  1000   0.733E-01    0.268E-01
RMM:   5    -0.257937044410E+03    0.58165E-03   -0.87785E-03   826   0.253E-01    0.822E-02
RMM:   6    -0.257937268015E+03   -0.22360E-03   -0.24695E-03   960   0.128E-01    0.585E-02
RMM:   7    -0.257937183812E+03    0.84202E-04   -0.12002E-03   802   0.647E-02    0.298E-02
RMM:   8    -0.257937205733E+03   -0.21921E-04   -0.29602E-04  1000   0.414E-02    0.146E-02
RMM:   9    -0.257937204790E+03    0.94330E-06   -0.81192E-05   860   0.201E-02    0.721E-03
RMM:  10    -0.257937206843E+03   -0.20536E-05   -0.21483E-05   980   0.105E-02    0.488E-03
RMM:  11    -0.257937206862E+03   -0.18745E-07   -0.72165E-06   677   0.588E-03
  52 F= -.27001724E+03 E0= -.27001724E+03  d E =-.168435E+00  mag=     0.0000
       N       E                     dE             d eps       ncg     rms          rms(c)
DAV:   1    -0.257888250969E+03    0.48956E-01   -0.19107E+01   816   0.814E+00    0.656E-01
RMM:   2    -0.257952409036E+03   -0.64158E-01   -0.70729E-01   879   0.275E+00    0.280E-01
RMM:   3    -0.257970029356E+03   -0.17620E-01   -0.18817E-01   972   0.124E+00    0.230E-01
RMM:   4    -0.257971328351E+03   -0.12990E-02   -0.23530E-02   995   0.461E-01    0.163E-01
RMM:   5    -0.257971115709E+03    0.21264E-03   -0.34913E-03   819   0.160E-01    0.513E-02
RMM:   6    -0.257971197645E+03   -0.81936E-04   -0.95345E-04   957   0.807E-02    0.366E-02
RMM:   7    -0.257971166984E+03    0.30661E-04   -0.29841E-04   938   0.360E-02    0.173E-02
RMM:   8    -0.257971185170E+03   -0.18186E-04   -0.15600E-04   865   0.226E-02    0.158E-02
RMM:   9    -0.257971178604E+03    0.65662E-05   -0.54991E-05   685   0.153E-02    0.498E-03
RMM:  10    -0.257971180045E+03   -0.14411E-05   -0.14096E-05   875   0.946E-03    0.388E-03
RMM:  11    -0.257971179738E+03    0.30650E-06   -0.46961E-06   624   0.489E-03
  53 F= -.27004925E+03 E0= -.27004925E+03  d E =-.200442E+00  mag=    -0.0000
       N       E                     dE             d eps       ncg     rms          rms(c)
DAV:   1    -0.257922306798E+03    0.48873E-01   -0.56785E+01   736   0.149E+01    0.139E+00
RMM:   2    -0.258107178648E+03   -0.18487E+00   -0.20034E+00   840   0.484E+00    0.558E-01
RMM:   3    -0.258152219718E+03   -0.45041E-01   -0.50019E-01   938   0.224E+00    0.345E-01
RMM:   4    -0.258157547216E+03   -0.53275E-02   -0.85562E-02  1018   0.918E-01    0.239E-01
RMM:   5    -0.258157127594E+03    0.41962E-03   -0.69506E-03   886   0.251E-01    0.874E-02
RMM:   6    -0.258157270969E+03   -0.14338E-03   -0.18783E-03  1013   0.119E-01    0.431E-02
RMM:   7    -0.258157328776E+03   -0.57807E-04   -0.50845E-04  1069   0.547E-02    0.283E-02
RMM:   8    -0.258157327074E+03    0.17018E-05   -0.16617E-04   888   0.302E-02    0.603E-03
RMM:   9    -0.258157334547E+03   -0.74725E-05   -0.71262E-05   980   0.181E-02    0.726E-03
RMM:  10    -0.258157334981E+03   -0.43400E-06   -0.14453E-05   859   0.886E-03    0.365E-03
RMM:  11    -0.258157335183E+03   -0.20215E-06   -0.49448E-06   575   0.548E-03
  54 F= -.27023326E+03 E0= -.27023326E+03  d E =-.184005E+00  mag=    -0.0000
       N       E                     dE             d eps       ncg     rms          rms(c)
DAV:   1    -0.257962920025E+03    0.19441E+00   -0.73497E+01   752   0.169E+01    0.153E+00
RMM:   2    -0.258176773615E+03   -0.21385E+00   -0.23404E+00   834   0.527E+00    0.636E-01
RMM:   3    -0.258227812359E+03   -0.51039E-01   -0.57691E-01   945   0.238E+00    0.378E-01
RMM:   4    -0.258234189303E+03   -0.63769E-02   -0.10635E-01  1010   0.104E+00    0.251E-01
RMM:   5    -0.258233979115E+03    0.21019E-03   -0.10432E-02   907   0.298E-01    0.979E-02
RMM:   6    -0.258234147791E+03   -0.16868E-03   -0.24531E-03  1042   0.134E-01    0.585E-02
RMM:   7    -0.258234217397E+03   -0.69606E-04   -0.60396E-04  1081   0.626E-02    0.275E-02
RMM:   8    -0.258234219380E+03   -0.19824E-05   -0.19837E-04   940   0.342E-02    0.643E-03
RMM:   9    -0.258234226827E+03   -0.74470E-05   -0.71313E-05  1052   0.187E-02    0.644E-03
RMM:  10    -0.258234228060E+03   -0.12331E-05   -0.17268E-05   907   0.953E-03    0.333E-03
RMM:  11    -0.258234228523E+03   -0.46360E-06   -0.63722E-06   658   0.612E-03
  55 F= -.27030786E+03 E0= -.27030786E+03  d E =-.258605E+00  mag=    -0.0000
       N       E                     dE             d eps       ncg     rms          rms(c)
DAV:   1    -0.258180171892E+03    0.54056E-01   -0.27028E+01   736   0.106E+01    0.874E-01
RMM:   2    -0.258274704745E+03   -0.94533E-01   -0.10359E+00   844   0.354E+00    0.333E-01
RMM:   3    -0.258297654241E+03   -0.22949E-01   -0.25512E-01   944   0.162E+00    0.252E-01
RMM:   4    -0.258300927812E+03   -0.32736E-02   -0.51358E-02  1011   0.709E-01    0.173E-01
RMM:   5    -0.258300747067E+03    0.18075E-03   -0.40400E-03   933   0.192E-01    0.753E-02
RMM:   6    -0.258300797240E+03   -0.50174E-04   -0.10535E-03  1005   0.867E-02    0.366E-02
RMM:   7    -0.258300809903E+03   -0.12663E-04   -0.36628E-04   976   0.424E-02    0.219E-02
RMM:   8    -0.258300813171E+03   -0.32673E-05   -0.93622E-05   981   0.224E-02    0.772E-03
RMM:   9    -0.258300815793E+03   -0.26223E-05   -0.36420E-05   892   0.127E-02    0.459E-03
RMM:  10    -0.258300816420E+03   -0.62706E-06   -0.97033E-06   736   0.706E-03
  56 F= -.27037236E+03 E0= -.27037236E+03  d E =-.645041E-01  mag=     0.0000
       N       E                     dE             d eps       ncg     rms          rms(c)
DAV:   1    -0.258291874959E+03    0.89408E-02   -0.34523E+00   816   0.380E+00    0.312E-01
RMM:   2    -0.258303919302E+03   -0.12044E-01   -0.13199E-01   851   0.125E+00    0.118E-01
RMM:   3    -0.258306816971E+03   -0.28977E-02   -0.32085E-02   946   0.571E-01    0.890E-02
RMM:   4    -0.258307211492E+03   -0.39452E-03   -0.63142E-03  1012   0.246E-01    0.589E-02
RMM:   5    -0.258307192667E+03    0.18825E-04   -0.50243E-04   937   0.678E-02    0.259E-02
RMM:   6    -0.258307199442E+03   -0.67752E-05   -0.13342E-04   993   0.304E-02    0.124E-02
RMM:   7    -0.258307200607E+03   -0.11641E-05   -0.38023E-05  1013   0.144E-02    0.740E-03
RMM:   8    -0.258307202241E+03   -0.16345E-05   -0.12019E-05   824   0.792E-03    0.417E-03
RMM:   9    -0.258307202254E+03   -0.13279E-07   -0.39977E-06   583   0.527E-03
  57 F= -.27037803E+03 E0= -.27037803E+03  d E =-.701691E-01  mag=     0.0000
       N       E                     dE             d eps       ncg     rms          rms(c)
DAV:   1    -0.258227175836E+03    0.80026E-01   -0.31167E+01   736   0.110E+01    0.859E-01
RMM:   2    -0.258327523893E+03   -0.10035E+00   -0.10915E+00   884   0.360E+00    0.358E-01
RMM:   3    -0.258353298688E+03   -0.25775E-01   -0.27407E-01   964   0.166E+00    0.247E-01
RMM:   4    -0.258356906395E+03   -0.36077E-02   -0.51278E-02  1028   0.705E-01    0.183E-01
RMM:   5    -0.258356712929E+03    0.19347E-03   -0.44274E-03   938   0.197E-01    0.811E-02
RMM:   6    -0.258356769105E+03   -0.56177E-04   -0.12190E-03   944   0.903E-02    0.326E-02
RMM:   7    -0.258356781908E+03   -0.12803E-04   -0.43080E-04   995   0.475E-02    0.209E-02
RMM:   8    -0.258356790636E+03   -0.87280E-05   -0.11853E-04  1023   0.246E-02    0.905E-03
RMM:   9    -0.258356792282E+03   -0.16460E-05   -0.37234E-05   903   0.127E-02    0.439E-03
RMM:  10    -0.258356793116E+03   -0.83412E-06   -0.10100E-05   810   0.721E-03    0.242E-03
RMM:  11    -0.258356793261E+03   -0.14449E-06   -0.29315E-06   502   0.458E-03
  58 F= -.27042571E+03 E0= -.27042571E+03  d E =-.476867E-01  mag=     0.0000
       N       E                     dE             d eps       ncg     rms          rms(c)
DAV:   1    -0.258347120212E+03    0.96729E-02   -0.31321E+00   840   0.347E+00    0.271E-01
RMM:   2    -0.258357168777E+03   -0.10049E-01   -0.10914E-01   886   0.113E+00    0.111E-01
RMM:   3    -0.258359658026E+03   -0.24892E-02   -0.26538E-02   968   0.514E-01    0.765E-02
RMM:   4    -0.258359980263E+03   -0.32224E-03   -0.47934E-03  1006   0.214E-01    0.523E-02
RMM:   5    -0.258359970629E+03    0.96341E-05   -0.43575E-04   936   0.631E-02    0.225E-02
RMM:   6    -0.258359976573E+03   -0.59436E-05   -0.10790E-04  1013   0.276E-02    0.978E-03
RMM:   7    -0.258359978634E+03   -0.20608E-05   -0.32063E-05  1008   0.131E-02    0.523E-03
RMM:   8    -0.258359979189E+03   -0.55486E-06   -0.90825E-06   749   0.708E-03
  59 F= -.27042830E+03 E0= -.27042830E+03  d E =-.502756E-01  mag=     0.0000
       N       E                     dE             d eps       ncg     rms          rms(c)
DAV:   1    -0.258275878543E+03    0.84100E-01   -0.32149E+01   736   0.106E+01    0.837E-01
RMM:   2    -0.258367825990E+03   -0.91947E-01   -0.99929E-01   864   0.345E+00    0.334E-01
RMM:   3    -0.258392599701E+03   -0.24774E-01   -0.26241E-01   976   0.162E+00    0.213E-01
RMM:   4    -0.258396703715E+03   -0.41040E-02   -0.48298E-02  1008   0.672E-01    0.186E-01
RMM:   5    -0.258396515765E+03    0.18795E-03   -0.38169E-03  1010   0.189E-01    0.107E-01
RMM:   6    -0.258396513388E+03    0.23774E-05   -0.14537E-03   782   0.919E-02    0.288E-02
RMM:   7    -0.258396516965E+03   -0.35773E-05   -0.39956E-04  1033   0.522E-02    0.142E-02
RMM:   8    -0.258396532387E+03   -0.15422E-04   -0.16919E-04   934   0.257E-02    0.179E-02
RMM:   9    -0.258396528720E+03    0.36668E-05   -0.56900E-05   720   0.159E-02    0.447E-03
RMM:  10    -0.258396530462E+03   -0.17415E-05   -0.19188E-05   926   0.993E-03    0.358E-03
RMM:  11    -0.258396530551E+03   -0.89778E-07   -0.42530E-06   580   0.530E-03
  60 F= -.27046316E+03 E0= -.27046316E+03  d E =-.348599E-01  mag=    -0.0000
       N       E                     dE             d eps       ncg     rms          rms(c)
DAV:   1    -0.258391170506E+03    0.53600E-02   -0.19755E+00   896   0.262E+00    0.209E-01
RMM:   2    -0.258396763773E+03   -0.55933E-02   -0.60633E-02   858   0.846E-01    0.796E-02
RMM:   3    -0.258398281579E+03   -0.15178E-02   -0.16054E-02   978   0.398E-01    0.497E-02
RMM:   4    -0.258398528865E+03   -0.24729E-03   -0.28989E-03  1006   0.163E-01    0.448E-02
RMM:   5    -0.258398516813E+03    0.12052E-04   -0.23846E-04   994   0.474E-02    0.273E-02
RMM:   6    -0.258398516021E+03    0.79165E-06   -0.10264E-04   762   0.239E-02    0.799E-03
RMM:   7    -0.258398515689E+03    0.33207E-06   -0.26050E-05   911   0.135E-02    0.364E-03
RMM:   8    -0.258398516951E+03   -0.12626E-05   -0.11602E-05   776   0.750E-03    0.459E-03
RMM:   9    -0.258398516623E+03    0.32829E-06   -0.44087E-06   604   0.514E-03
  61 F= -.27046473E+03 E0= -.27046473E+03  d E =-.364276E-01  mag=     0.0000
       N       E                     dE             d eps       ncg     rms          rms(c)
DAV:   1    -0.258366423478E+03    0.32093E-01   -0.16053E+01   784   0.733E+00    0.489E-01
RMM:   2    -0.258410679403E+03   -0.44256E-01   -0.47578E-01   932   0.225E+00    0.198E-01
RMM:   3    -0.258422609274E+03   -0.11930E-01   -0.12100E-01   980   0.107E+00    0.157E-01
RMM:   4    -0.258424005461E+03   -0.13962E-02   -0.17048E-02   992   0.405E-01    0.129E-01
RMM:   5    -0.258423927412E+03    0.78049E-04   -0.16921E-03   936   0.121E-01    0.650E-02
RMM:   6    -0.258423962813E+03   -0.35401E-04   -0.65340E-04   790   0.599E-02    0.317E-02
RMM:   7    -0.258423948143E+03    0.14670E-04   -0.18194E-04   910   0.344E-02    0.104E-02
RMM:   8    -0.258423956411E+03   -0.82680E-05   -0.10490E-04   834   0.188E-02    0.133E-02
RMM:   9    -0.258423953660E+03    0.27507E-05   -0.38498E-05   698   0.138E-02    0.548E-03
RMM:  10    -0.258423954242E+03   -0.58253E-06   -0.96584E-06   833   0.803E-03
  62 F= -.27048905E+03 E0= -.27048905E+03  d E =-.243232E-01  mag=    -0.0000
       N       E                     dE             d eps       ncg     rms          rms(c)
DAV:   1    -0.258406051625E+03    0.17902E-01   -0.65198E+00   832   0.468E+00    0.313E-01
RMM:   2    -0.258423969724E+03   -0.17918E-01   -0.19241E-01   926   0.143E+00    0.125E-01
RMM:   3    -0.258428734701E+03   -0.47650E-02   -0.48282E-02   976   0.668E-01    0.962E-02
RMM:   4    -0.258429350642E+03   -0.61594E-03   -0.74660E-03   998   0.267E-01    0.810E-02
RMM:   5    -0.258429324125E+03    0.26517E-04   -0.67647E-04   944   0.771E-02    0.448E-02
RMM:   6    -0.258429333976E+03   -0.98509E-05   -0.26334E-04   758   0.380E-02    0.186E-02
RMM:   7    -0.258429330156E+03    0.38195E-05   -0.70295E-05   922   0.220E-02    0.714E-03
RMM:   8    -0.258429332685E+03   -0.25284E-05   -0.39661E-05   767   0.118E-02    0.861E-03
RMM:   9    -0.258429331649E+03    0.10355E-05   -0.14378E-05   662   0.875E-03    0.309E-03
RMM:  10    -0.258429331958E+03   -0.30862E-06   -0.38782E-06   563   0.553E-03
  63 F= -.27049370E+03 E0= -.27049370E+03  d E =-.289754E-01  mag=    -0.0000
       N       E                     dE             d eps       ncg     rms          rms(c)
DAV:   1    -0.258407571270E+03    0.21760E-01   -0.11768E+01   768   0.609E+00    0.406E-01
RMM:   2    -0.258439615531E+03   -0.32044E-01   -0.33878E-01   929   0.186E+00    0.136E-01
RMM:   3    -0.258447244643E+03   -0.76291E-02   -0.77361E-02   935   0.844E-01    0.114E-01
RMM:   4    -0.258448584145E+03   -0.13395E-02   -0.15558E-02   995   0.357E-01    0.118E-01
RMM:   5    -0.258448513869E+03    0.70276E-04   -0.89273E-04  1006   0.892E-02    0.923E-02
RMM:   6    -0.258448508234E+03    0.56341E-05   -0.13376E-03   704   0.662E-02    0.533E-02
RMM:   7    -0.258448485131E+03    0.23103E-04   -0.14248E-04   841   0.331E-02    0.318E-02
RMM:   8    -0.258448460541E+03    0.24590E-04   -0.14875E-04   702   0.229E-02    0.118E-02
RMM:   9    -0.258448467936E+03   -0.73954E-05   -0.50716E-05   895   0.153E-02    0.150E-02
RMM:  10    -0.258448463053E+03    0.48837E-05   -0.29900E-05   683   0.105E-02    0.381E-03
RMM:  11    -0.258448463525E+03   -0.47229E-06   -0.54907E-06   633   0.599E-03
  64 F= -.27051259E+03 E0= -.27051259E+03  d E =-.188864E-01  mag=    -0.0000
       N       E                     dE             d eps       ncg     rms          rms(c)
DAV:   1    -0.258397692758E+03    0.50770E-01   -0.16552E+01   816   0.722E+00    0.480E-01
RMM:   2    -0.258442940069E+03   -0.45247E-01   -0.47855E-01   931   0.222E+00    0.166E-01
RMM:   3    -0.258453957035E+03   -0.11017E-01   -0.11175E-01   928   0.998E-01    0.141E-01
RMM:   4    -0.258455556057E+03   -0.15990E-02   -0.18901E-02   991   0.398E-01    0.137E-01
RMM:   5    -0.258455426980E+03    0.12908E-03   -0.11900E-03   999   0.106E-01    0.988E-02
RMM:   6    -0.258455424971E+03    0.20084E-05   -0.15661E-03   704   0.745E-02    0.542E-02
RMM:   7    -0.258455397479E+03    0.27492E-04   -0.17877E-04   851   0.387E-02    0.307E-02
RMM:   8    -0.258455383637E+03    0.13842E-04   -0.27558E-04   702   0.292E-02    0.231E-02
RMM:   9    -0.258455379783E+03    0.38542E-05   -0.35291E-05   802   0.177E-02    0.110E-02
RMM:  10    -0.258455377716E+03    0.20675E-05   -0.26283E-05   694   0.109E-02    0.467E-03
RMM:  11    -0.258455378287E+03   -0.57104E-06   -0.72568E-06   729   0.711E-03
  65 F= -.27051921E+03 E0= -.27051921E+03  d E =-.255027E-01  mag=    -0.0000
       N       E                     dE             d eps       ncg     rms          rms(c)
DAV:   1    -0.258454699337E+03    0.67838E-03   -0.22220E-01   880   0.832E-01    0.572E-02
RMM:   2    -0.258455300485E+03   -0.60115E-03   -0.63246E-03   940   0.251E-01    0.186E-02
RMM:   3    -0.258455430774E+03   -0.13029E-03   -0.13170E-03   935   0.113E-01    0.135E-02
RMM:   4    -0.258455464376E+03   -0.33602E-04   -0.38412E-04   986   0.519E-02    0.148E-02
RMM:   5    -0.258455463695E+03    0.68081E-06   -0.15318E-05   866   0.115E-02    0.116E-02
RMM:   6    -0.258455464164E+03   -0.46866E-06   -0.22008E-05   672   0.896E-03    0.792E-03
RMM:   7    -0.258455463632E+03    0.53148E-06   -0.21183E-06   499   0.458E-03
  66 F= -.27051933E+03 E0= -.27051933E+03  d E =-.256231E-01  mag=    -0.0000
       N       E                     dE             d eps       ncg     rms          rms(c)
DAV:   1    -0.258452192673E+03    0.32715E-02   -0.25513E+00   784   0.281E+00    0.186E-01
RMM:   2    -0.258458833983E+03   -0.66413E-02   -0.70257E-02   882   0.850E-01    0.739E-02
RMM:   3    -0.258460428477E+03   -0.15945E-02   -0.16779E-02   940   0.399E-01    0.524E-02
RMM:   4    -0.258460721964E+03   -0.29349E-03   -0.34993E-03   996   0.166E-01    0.469E-02
RMM:   5    -0.258460707607E+03    0.14357E-04   -0.16898E-04   968   0.404E-02    0.304E-02
RMM:   6    -0.258460705182E+03    0.24248E-05   -0.10534E-04   714   0.223E-02    0.995E-03
RMM:   7    -0.258460704530E+03    0.65244E-06   -0.17986E-05   812   0.122E-02    0.462E-03
RMM:   8    -0.258460705419E+03   -0.88901E-06   -0.14343E-05   666   0.746E-03    0.670E-03
RMM:   9    -0.258460704740E+03    0.67849E-06   -0.58938E-06   606   0.629E-03
  67 F= -.27052445E+03 E0= -.27052445E+03  d E =-.511892E-02  mag=    -0.0000
       N       E                     dE             d eps       ncg     rms          rms(c)
DAV:   1    -0.258452615981E+03    0.80894E-02   -0.35278E+00   800   0.330E+00    0.212E-01
RMM:   2    -0.258460338690E+03   -0.77227E-02   -0.82589E-02   879   0.938E-01    0.864E-02
RMM:   3    -0.258462072535E+03   -0.17338E-02   -0.18562E-02   939   0.435E-01    0.559E-02
RMM:   4    -0.258462463499E+03   -0.39096E-03   -0.48312E-03   996   0.194E-01    0.487E-02
RMM:   5    -0.258462452492E+03    0.11007E-04   -0.22902E-04   995   0.464E-02    0.319E-02
RMM:   6    -0.258462451193E+03    0.12989E-05   -0.10584E-04   738   0.237E-02    0.810E-03
RMM:   7    -0.258462450979E+03    0.21410E-06   -0.22706E-05   914   0.130E-02    0.495E-03
RMM:   8    -0.258462451665E+03   -0.68619E-06   -0.11854E-05   724   0.700E-03    0.522E-03
RMM:   9    -0.258462451385E+03    0.28040E-06   -0.27359E-06   550   0.510E-03
  68 F= -.27052604E+03 E0= -.27052604E+03  d E =-.671669E-02  mag=     0.0000
       N       E                     dE             d eps       ncg     rms          rms(c)
DAV:   1    -0.258455649582E+03    0.68021E-02   -0.31081E+00   800   0.308E+00    0.208E-01
RMM:   2    -0.258463687883E+03   -0.80383E-02   -0.84874E-02   932   0.935E-01    0.889E-02
RMM:   3    -0.258465764349E+03   -0.20765E-02   -0.21146E-02   978   0.437E-01    0.656E-02
RMM:   4    -0.258466039087E+03   -0.27474E-03   -0.33176E-03   974   0.167E-01    0.527E-02
RMM:   5    -0.258466024635E+03    0.14452E-04   -0.22243E-04   934   0.458E-02    0.273E-02
RMM:   6    -0.258466026209E+03   -0.15735E-05   -0.83518E-05   790   0.218E-02    0.846E-03
RMM:   7    -0.258466026019E+03    0.18999E-06   -0.20538E-05   916   0.122E-02    0.350E-03
RMM:   8    -0.258466026841E+03   -0.82191E-06   -0.87846E-06   762   0.643E-03
  69 F= -.27052980E+03 E0= -.27052980E+03  d E =-.376023E-02  mag=     0.0000
       N       E                     dE             d eps       ncg     rms          rms(c)
DAV:   1    -0.258463773986E+03    0.22520E-02   -0.80303E-01   880   0.157E+00    0.105E-01
RMM:   2    -0.258465848115E+03   -0.20741E-02   -0.21902E-02   934   0.477E-01    0.448E-02
RMM:   3    -0.258466384616E+03   -0.53650E-03   -0.54537E-03   980   0.222E-01    0.332E-02
RMM:   4    -0.258466455516E+03   -0.70900E-04   -0.85502E-04   976   0.845E-02    0.269E-02
RMM:   5    -0.258466451809E+03    0.37063E-05   -0.56880E-05   944   0.227E-02    0.141E-02
RMM:   6    -0.258466452214E+03   -0.40452E-06   -0.22211E-05   770   0.112E-02    0.433E-03
RMM:   7    -0.258466452188E+03    0.25799E-07   -0.52821E-06   632   0.618E-03
  70 F= -.27053032E+03 E0= -.27053032E+03  d E =-.427945E-02  mag=    -0.0000
       N       E                     dE             d eps       ncg     rms          rms(c)
DAV:   1    -0.258466411812E+03    0.40402E-04   -0.74665E-01   800   0.141E+00    0.984E-02
RMM:   2    -0.258468253441E+03   -0.18416E-02   -0.19420E-02   864   0.439E-01    0.431E-02
RMM:   3    -0.258468788296E+03   -0.53486E-03   -0.55447E-03   990   0.215E-01    0.318E-02
RMM:   4    -0.258468833654E+03   -0.45358E-04   -0.54833E-04   978   0.679E-02    0.256E-02
RMM:   5    -0.258468829903E+03    0.37512E-05   -0.52199E-05   862   0.212E-02    0.897E-03
RMM:   6    -0.258468831707E+03   -0.18041E-05   -0.20618E-05   840   0.109E-02    0.518E-03
RMM:   7    -0.258468831428E+03    0.27896E-06   -0.88780E-06   676   0.664E-03
  71 F= -.27053283E+03 E0= -.27053283E+03  d E =-.250533E-02  mag=    -0.0000
       N       E                     dE             d eps       ncg     rms          rms(c)
DAV:   1    -0.258466691993E+03    0.21397E-02   -0.11151E+00   816   0.176E+00    0.120E-01
RMM:   2    -0.258469437675E+03   -0.27457E-02   -0.28977E-02   862   0.534E-01    0.528E-02
RMM:   3    -0.258470251929E+03   -0.81425E-03   -0.84382E-03   990   0.257E-01    0.397E-02
RMM:   4    -0.258470308299E+03   -0.56370E-04   -0.70565E-04   978   0.791E-02    0.312E-02
RMM:   5    -0.258470303266E+03    0.50323E-05   -0.85818E-05   856   0.268E-02    0.111E-02
RMM:   6    -0.258470306275E+03   -0.30081E-05   -0.32737E-05   846   0.134E-02    0.658E-03
RMM:   7    -0.258470305590E+03    0.68433E-06   -0.13110E-05   712   0.793E-03    0.370E-03
RMM:   8    -0.258470305870E+03   -0.27955E-06   -0.37967E-06   568   0.521E-03
  72 F= -.27053445E+03 E0= -.27053445E+03  d E =-.413044E-02  mag=    -0.0000
       N       E                     dE             d eps       ncg     rms          rms(c)
DAV:   1    -0.258470973861E+03   -0.66827E-03   -0.39258E-01   896   0.101E+00    0.633E-02
RMM:   2    -0.258471901828E+03   -0.92797E-03   -0.97880E-03   884   0.303E-01    0.253E-02
RMM:   3    -0.258472174303E+03   -0.27247E-03   -0.28197E-03   978   0.145E-01    0.230E-02
RMM:   4    -0.258472190717E+03   -0.16414E-04   -0.21620E-04   982   0.454E-02    0.190E-02
RMM:   5    -0.258472188386E+03    0.23307E-05   -0.25627E-05   846   0.155E-02    0.877E-03
RMM:   6    -0.258472189285E+03   -0.89862E-06   -0.15612E-05   680   0.909E-03    0.569E-03
RMM:   7    -0.258472188661E+03    0.62394E-06   -0.41017E-06   616   0.590E-03
  73 F= -.27053645E+03 E0= -.27053645E+03  d E =-.199966E-02  mag=    -0.0000
       N       E                     dE             d eps       ncg     rms          rms(c)
DAV:   1    -0.258469192000E+03    0.29973E-02   -0.18621E+00   768   0.222E+00    0.137E-01
RMM:   2    -0.258473603643E+03   -0.44116E-02   -0.46483E-02   884   0.665E-01    0.543E-02
RMM:   3    -0.258474875977E+03   -0.12723E-02   -0.13200E-02   978   0.323E-01    0.491E-02
RMM:   4    -0.258474973276E+03   -0.97299E-04   -0.12204E-03   978   0.104E-01    0.421E-02
RMM:   5    -0.258474960383E+03    0.12893E-04   -0.10835E-04   900   0.321E-02    0.209E-02
RMM:   6    -0.258474964221E+03   -0.38377E-05   -0.81174E-05   710   0.198E-02    0.137E-02
RMM:   7    -0.258474961300E+03    0.29204E-05   -0.17967E-05   746   0.122E-02    0.320E-03
RMM:   8    -0.258474962636E+03   -0.13363E-05   -0.14759E-05   770   0.802E-03    0.559E-03
RMM:   9    -0.258474962167E+03    0.46943E-06   -0.46567E-06   617   0.575E-03
  74 F= -.27053948E+03 E0= -.27053948E+03  d E =-.502397E-02  mag=    -0.0000
       N       E                     dE             d eps       ncg     rms          rms(c)
DAV:   1    -0.258451782044E+03    0.23181E-01   -0.74448E+00   752   0.452E+00    0.282E-01
RMM:   2    -0.258469547197E+03   -0.17765E-01   -0.18764E-01   890   0.136E+00    0.110E-01
RMM:   3    -0.258474768821E+03   -0.52216E-02   -0.53827E-02   984   0.649E-01    0.986E-02
RMM:   4    -0.258475118364E+03   -0.34954E-03   -0.45144E-03   998   0.208E-01    0.828E-02
RMM:   5    -0.258475065663E+03    0.52701E-04   -0.44516E-04   869   0.666E-02    0.374E-02
RMM:   6    -0.258475081962E+03   -0.16299E-04   -0.30282E-04   722   0.403E-02    0.256E-02
RMM:   7    -0.258475070174E+03    0.11788E-04   -0.84853E-05   781   0.258E-02    0.737E-03
RMM:   8    -0.258475076059E+03   -0.58842E-05   -0.54046E-05   878   0.150E-02    0.104E-02
RMM:   9    -0.258475074075E+03    0.19832E-05   -0.19574E-05   676   0.943E-03    0.353E-03
RMM:  10    -0.258475074703E+03   -0.62733E-06   -0.56914E-06   638   0.578E-03
  75 F= -.27054008E+03 E0= -.27054008E+03  d E =-.562254E-02  mag=     0.0000
       N       E                     dE             d eps       ncg     rms          rms(c)
DAV:   1    -0.258472124443E+03    0.29496E-02   -0.12229E+00   816   0.180E+00    0.109E-01
RMM:   2    -0.258475020456E+03   -0.28960E-02   -0.30540E-02   896   0.537E-01    0.456E-02
RMM:   3    -0.258475858672E+03   -0.83822E-03   -0.86551E-03   986   0.259E-01    0.407E-02
RMM:   4    -0.258475912133E+03   -0.53461E-04   -0.69709E-04   984   0.818E-02    0.326E-02
RMM:   5    -0.258475904227E+03    0.79057E-05   -0.74219E-05   822   0.271E-02    0.116E-02
RMM:   6    -0.258475906051E+03   -0.18240E-05   -0.39144E-05   788   0.155E-02    0.896E-03
RMM:   7    -0.258475904983E+03    0.10683E-05   -0.15524E-05   738   0.100E-02    0.417E-03
RMM:   8    -0.258475905345E+03   -0.36182E-06   -0.47525E-06   604   0.569E-03
  76 F= -.27054071E+03 E0= -.27054071E+03  d E =-.625869E-02  mag=     0.0000
       N       E                     dE             d eps       ncg     rms          rms(c)
DAV:   1    -0.258476091241E+03   -0.18626E-03   -0.25214E-01   832   0.822E-01    0.435E-02
RMM:   2    -0.258476676491E+03   -0.58525E-03   -0.60148E-03   928   0.235E-01    0.159E-02
RMM:   3    -0.258476844079E+03   -0.16759E-03   -0.16696E-03   974   0.113E-01    0.170E-02
RMM:   4    -0.258476857243E+03   -0.13165E-04   -0.16158E-04   980   0.377E-02    0.165E-02
RMM:   5    -0.258476855710E+03    0.15330E-05   -0.12475E-05   812   0.108E-02    0.142E-02
RMM:   6    -0.258476859160E+03   -0.34495E-05   -0.39002E-05   694   0.121E-02    0.138E-02
RMM:   7    -0.258476857966E+03    0.11940E-05   -0.30173E-06   573   0.592E-03    0.835E-03
RMM:   8    -0.258476856964E+03    0.10017E-05   -0.79085E-06   630   0.569E-03    0.272E-03
RMM:   9    -0.258476857035E+03   -0.70857E-07   -0.61592E-07   464   0.331E-03
  77 F= -.27054174E+03 E0= -.27054174E+03  d E =-.103036E-02  mag=     0.0000
       N       E                     dE             d eps       ncg     rms          rms(c)
DAV:   1    -0.258472372283E+03    0.44847E-02   -0.22676E+00   752   0.247E+00    0.135E-01
RMM:   2    -0.258477626429E+03   -0.52541E-02   -0.54162E-02   926   0.705E-01    0.487E-02
RMM:   3    -0.258479151409E+03   -0.15250E-02   -0.15147E-02   980   0.338E-01    0.490E-02
RMM:   4    -0.258479277623E+03   -0.12621E-03   -0.14854E-03   992   0.112E-01    0.471E-02
RMM:   5    -0.258479265855E+03    0.11768E-04   -0.11655E-04  1008   0.331E-02    0.393E-02
RMM:   6    -0.258479286896E+03   -0.21040E-04   -0.26184E-04   704   0.314E-02    0.346E-02
RMM:   7    -0.258479279869E+03    0.70265E-05   -0.23024E-05   702   0.141E-02    0.190E-02
RMM:   8    -0.258479276476E+03    0.33930E-05   -0.71895E-05   698   0.161E-02    0.134E-02
[...]
DAV:   1    -0.258927952702E+03    0.25642E-04   -0.24381E-02   816   0.286E-01    0.215E-02
RMM:   2    -0.258928015103E+03   -0.62401E-04   -0.68078E-04   888   0.887E-02    0.619E-03
RMM:   3    -0.258928032760E+03   -0.17657E-04   -0.18218E-04   962   0.418E-02    0.537E-03
RMM:   4    -0.258928035385E+03   -0.26248E-05   -0.31537E-05   896   0.169E-02    0.507E-03
RMM:   5    -0.258928035269E+03    0.11569E-06   -0.24725E-06   496   0.547E-03
 142 F= -.27098222E+03 E0= -.27098222E+03  d E =-.549819E-04  mag=     0.0000
       N       E                     dE             d eps       ncg     rms          rms(c)
DAV:   1    -0.258928040204E+03   -0.48197E-05   -0.28976E-03   928   0.977E-02    0.889E-03
RMM:   2    -0.258928047077E+03   -0.68724E-05   -0.81743E-05   884   0.315E-02    0.296E-03
RMM:   3    -0.258928049427E+03   -0.23498E-05   -0.25769E-05   884   0.149E-02    0.182E-03
RMM:   4    -0.258928049578E+03   -0.15101E-06   -0.29889E-06   504   0.635E-03
 143 F= -.27098223E+03 E0= -.27098223E+03  d E =-.685480E-04  mag=     0.0000
       N       E                     dE             d eps       ncg     rms          rms(c)
DAV:   1    -0.258928031934E+03    0.17493E-04   -0.11880E-02   736   0.199E-01    0.141E-02
RMM:   2    -0.258928062351E+03   -0.30417E-04   -0.32840E-04   880   0.620E-02    0.424E-03
RMM:   3    -0.258928070727E+03   -0.83759E-05   -0.87467E-05   968   0.295E-02    0.398E-03
RMM:   4    -0.258928072024E+03   -0.12968E-05   -0.15993E-05   708   0.118E-02    0.361E-03
RMM:   5    -0.258928071956E+03    0.67692E-07   -0.11833E-06   472   0.480E-03
 144 F= -.27098225E+03 E0= -.27098225E+03  d E =-.894856E-04  mag=    -0.0000
       N       E                     dE             d eps       ncg     rms          rms(c)
DAV:   1    -0.258927923599E+03    0.14842E-03   -0.47161E-02   752   0.397E-01    0.298E-02
RMM:   2    -0.258928044264E+03   -0.12066E-03   -0.13139E-03   892   0.122E-01    0.842E-03
RMM:   3    -0.258928076955E+03   -0.32691E-04   -0.33599E-04   948   0.570E-02    0.716E-03
RMM:   4    -0.258928082778E+03   -0.58232E-05   -0.67020E-05   972   0.234E-02    0.712E-03
RMM:   5    -0.258928082569E+03    0.20936E-06   -0.41952E-06   580   0.641E-03
 145 F= -.27098226E+03 E0= -.27098226E+03  d E =-.971670E-04  mag=    -0.0000
       N       E                     dE             d eps       ncg     rms          rms(c)
DAV:   1    -0.258928003016E+03    0.79762E-04   -0.22209E-02   736   0.275E-01    0.171E-02
RMM:   2    -0.258928063566E+03   -0.60551E-04   -0.62583E-04   876   0.846E-02    0.508E-03
RMM:   3    -0.258928079099E+03   -0.15533E-04   -0.16146E-04   952   0.395E-02    0.623E-03
RMM:   4    -0.258928080746E+03   -0.16466E-05   -0.22585E-05   866   0.142E-02    0.597E-03
RMM:   5    -0.258928080505E+03    0.24091E-06   -0.17830E-06   488   0.520E-03
 146 F= -.27098226E+03 E0= -.27098226E+03  d E =-.970852E-04  mag=     0.0000
       N       E                     dE             d eps       ncg     rms          rms(c)
DAV:   1    -0.258928064193E+03    0.16552E-04   -0.56232E-03   768   0.139E-01    0.768E-03
RMM:   2    -0.258928079606E+03   -0.15412E-04   -0.16001E-04   868   0.429E-02    0.281E-03
RMM:   3    -0.258928083319E+03   -0.37129E-05   -0.40203E-05   920   0.202E-02    0.348E-03
RMM:   4    -0.258928083602E+03   -0.28326E-06   -0.53702E-06   532   0.790E-03
 147 F= -.27098226E+03 E0= -.27098226E+03  d E =-.991833E-04  mag=    -0.0000
       N       E                     dE             d eps       ncg     rms          rms(c)
DAV:   1    -0.258928079343E+03    0.39758E-05   -0.91715E-04   800   0.567E-02    0.517E-03
RMM:   2    -0.258928082025E+03   -0.26820E-05   -0.29113E-05   880   0.184E-02    0.145E-03
RMM:   3    -0.258928082809E+03   -0.78361E-06   -0.83432E-06   650   0.848E-03
 148 F= -.27098226E+03 E0= -.27098226E+03  d E =-.988014E-04  mag=    -0.0000
       N       E                     dE             d eps       ncg     rms          rms(c)
DAV:   1    -0.258928082363E+03   -0.33812E-06   -0.29507E-04   832   0.322E-02    0.298E-03
RMM:   2    -0.258928083177E+03   -0.81410E-06   -0.10159E-05   706   0.109E-02    0.812E-04
RMM:   3    -0.258928083292E+03   -0.11439E-06   -0.22598E-06   466   0.522E-03
 149 F= -.27098226E+03 E0= -.27098226E+03  d E =-.990469E-04  mag=    -0.0000
       N       E                     dE             d eps       ncg     rms          rms(c)
DAV:   1    -0.258928073992E+03    0.91854E-05   -0.12495E-02   720   0.202E-01    0.140E-02
RMM:   2    -0.258928105302E+03   -0.31310E-04   -0.32892E-04   916   0.607E-02    0.362E-03
RMM:   3    -0.258928114407E+03   -0.91046E-05   -0.90719E-05  1010   0.286E-02    0.393E-03
RMM:   4    -0.258928114826E+03   -0.41900E-06   -0.60633E-06   644   0.830E-03
 150 F= -.27098229E+03 E0= -.27098229E+03  d E =-.311925E-04  mag=     0.0000
       N       E                     dE             d eps       ncg     rms          rms(c)
DAV:   1    -0.258928117081E+03   -0.26741E-05   -0.12106E-04   784   0.203E-02    0.206E-03
RMM:   2    -0.258928117387E+03   -0.30682E-06   -0.32952E-06   498   0.735E-03
 151 F= -.27098230E+03 E0= -.27098230E+03  d E =-.337094E-04  mag=    -0.0000
       N       E                     dE             d eps       ncg     rms          rms(c)
DAV:   1    -0.258928121188E+03   -0.41077E-05   -0.44516E-04   880   0.384E-02    0.249E-03
RMM:   2    -0.258928122518E+03   -0.13301E-05   -0.14001E-05   760   0.138E-02    0.807E-04
RMM:   3    -0.258928122784E+03   -0.26583E-06   -0.37197E-06   512   0.637E-03
 152 F= -.27098230E+03 E0= -.27098230E+03  d E =-.390452E-04  mag=     0.0000
       N       E                     dE             d eps       ncg     rms          rms(c)
DAV:   1    -0.258928127823E+03   -0.53049E-05   -0.17797E-03   784   0.762E-02    0.494E-03
RMM:   2    -0.258928132484E+03   -0.46603E-05   -0.48526E-05   870   0.242E-02    0.146E-03
RMM:   3    -0.258928133760E+03   -0.12762E-05   -0.14256E-05   718   0.115E-02    0.174E-03
RMM:   4    -0.258928133748E+03    0.12236E-07   -0.10033E-06   450   0.453E-03
 153 F= -.27098231E+03 E0= -.27098231E+03  d E =-.499011E-04  mag=     0.0000
       N       E                     dE             d eps       ncg     rms          rms(c)
DAV:   1    -0.258928129752E+03    0.40076E-05   -0.70206E-03   832   0.152E-01    0.102E-02
RMM:   2    -0.258928147437E+03   -0.17685E-04   -0.18536E-04   902   0.457E-02    0.285E-03
RMM:   3    -0.258928152164E+03   -0.47267E-05   -0.48630E-05   932   0.214E-02    0.300E-03
RMM:   4    -0.258928152591E+03   -0.42672E-06   -0.60277E-06   572   0.803E-03
 154 F= -.27098233E+03 E0= -.27098233E+03  d E =-.685110E-04  mag=    -0.0000
       N       E                     dE             d eps       ncg     rms          rms(c)
DAV:   1    -0.258928092031E+03    0.60133E-04   -0.28105E-02   784   0.303E-01    0.203E-02
RMM:   2    -0.258928162754E+03   -0.70723E-04   -0.73794E-04   910   0.906E-02    0.560E-03
RMM:   3    -0.258928181495E+03   -0.18741E-04   -0.18743E-04   966   0.420E-02    0.607E-03
RMM:   4    -0.258928183808E+03   -0.23125E-05   -0.27405E-05   856   0.154E-02    0.607E-03
RMM:   5    -0.258928183638E+03    0.17034E-06   -0.20385E-06   492   0.558E-03
 155 F= -.27098236E+03 E0= -.27098236E+03  d E =-.991058E-04  mag=     0.0000
       N       E                     dE             d eps       ncg     rms          rms(c)
DAV:   1    -0.258927859887E+03    0.32392E-03   -0.11136E-01   784   0.603E-01    0.464E-02
RMM:   2    -0.258928134045E+03   -0.27416E-03   -0.29517E-03   916   0.179E-01    0.122E-02
RMM:   3    -0.258928210959E+03   -0.76914E-04   -0.75767E-04   924   0.819E-02    0.102E-02
RMM:   4    -0.258928220454E+03   -0.94949E-05   -0.10688E-04   998   0.298E-02    0.101E-02
RMM:   5    -0.258928220022E+03    0.43181E-06   -0.80322E-06   690   0.837E-03
 156 F= -.27098240E+03 E0= -.27098240E+03  d E =-.134692E-03  mag=    -0.0000
       N       E                     dE             d eps       ncg     rms          rms(c)
DAV:   1    -0.258928233363E+03   -0.12909E-04   -0.13254E-02   880   0.216E-01    0.183E-02
RMM:   2    -0.258928266437E+03   -0.33074E-04   -0.38274E-04   924   0.667E-02    0.749E-03
RMM:   3    -0.258928275427E+03   -0.89896E-05   -0.97442E-05   980   0.316E-02    0.394E-03
RMM:   4    -0.258928277062E+03   -0.16348E-05   -0.20021E-05   740   0.131E-02    0.295E-03
RMM:   5    -0.258928276990E+03    0.71319E-07   -0.10279E-06   468   0.427E-03
 157 F= -.27098245E+03 E0= -.27098245E+03  d E =-.476280E-04  mag=     0.0000
       N       E                     dE             d eps       ncg     rms          rms(c)
DAV:   1    -0.258928283450E+03   -0.63888E-05   -0.14650E-03   928   0.717E-02    0.491E-03
RMM:   2    -0.258928287587E+03   -0.41369E-05   -0.43594E-05   888   0.224E-02    0.184E-03
RMM:   3    -0.258928288517E+03   -0.92941E-06   -0.10556E-05   658   0.106E-02    0.134E-03
RMM:   4    -0.258928288620E+03   -0.10370E-06   -0.20192E-06   498   0.626E-03
 158 F= -.27098245E+03 E0= -.27098245E+03  d E =-.561819E-04  mag=    -0.0000
       N       E                     dE             d eps       ncg     rms          rms(c)
DAV:   1    -0.258928281316E+03    0.72005E-05   -0.58944E-03   768   0.145E-01    0.918E-03
RMM:   2    -0.258928297259E+03   -0.15943E-04   -0.16998E-04   914   0.451E-02    0.357E-03
RMM:   3    -0.258928301615E+03   -0.43555E-05   -0.45350E-05   972   0.212E-02    0.315E-03
RMM:   4    -0.258928301792E+03   -0.17671E-06   -0.48730E-06   514   0.705E-03
 159 F= -.27098246E+03 E0= -.27098246E+03  d E =-.631821E-04  mag=    -0.0000
       N       E                     dE             d eps       ncg     rms          rms(c)
DAV:   1    -0.258928293958E+03    0.76566E-05   -0.10829E-03   816   0.629E-02    0.427E-03
RMM:   2    -0.258928296907E+03   -0.29486E-05   -0.33658E-05   864   0.197E-02    0.161E-03
RMM:   3    -0.258928297477E+03   -0.56987E-06   -0.81867E-06   594   0.905E-03
 160 F= -.27098246E+03 E0= -.27098246E+03  d E =-.615332E-04  mag=    -0.0000
       N       E                     dE             d eps       ncg     rms          rms(c)
DAV:   1    -0.258928298833E+03   -0.19257E-05   -0.48140E-04   800   0.421E-02    0.326E-03
RMM:   2    -0.258928300372E+03   -0.15398E-05   -0.15827E-05   826   0.135E-02    0.110E-03
RMM:   3    -0.258928300625E+03   -0.25261E-06   -0.35259E-06   518   0.628E-03
 161 F= -.27098246E+03 E0= -.27098246E+03  d E =-.628808E-04  mag=    -0.0000
       N       E                     dE             d eps       ncg     rms          rms(c)
DAV:   1    -0.258928310109E+03   -0.97363E-05   -0.87755E-03   768   0.167E-01    0.110E-02
RMM:   2    -0.258928332145E+03   -0.22036E-04   -0.22919E-04   922   0.499E-02    0.442E-03
RMM:   3    -0.258928338224E+03   -0.60795E-05   -0.62984E-05   960   0.236E-02    0.344E-03
RMM:   4    -0.258928338259E+03   -0.34526E-07   -0.31920E-06   550   0.650E-03
 162 F= -.27098249E+03 E0= -.27098249E+03  d E =-.278107E-04  mag=    -0.0000
       N       E                     dE             d eps       ncg     rms          rms(c)
DAV:   1    -0.258928340855E+03   -0.26309E-05   -0.97343E-05   864   0.176E-02    0.150E-03
RMM:   2    -0.258928341148E+03   -0.29271E-06   -0.26582E-06   476   0.621E-03
 163 F= -.27098249E+03 E0= -.27098249E+03  d E =-.296989E-04  mag=    -0.0000
       N       E                     dE             d eps       ncg     rms          rms(c)
DAV:   1    -0.258928345395E+03   -0.45394E-05   -0.37455E-04   848   0.355E-02    0.227E-03
RMM:   2    -0.258928346595E+03   -0.12001E-05   -0.11711E-05   732   0.119E-02    0.982E-04
RMM:   3    -0.258928346779E+03   -0.18411E-06   -0.25314E-06   490   0.564E-03
 164 F= -.27098249E+03 E0= -.27098249E+03  d E =-.333467E-04  mag=    -0.0000
       N       E                     dE             d eps       ncg     rms          rms(c)
DAV:   1    -0.258928351124E+03   -0.45290E-05   -0.14747E-03   832   0.686E-02    0.439E-03
RMM:   2    -0.258928355079E+03   -0.39555E-05   -0.40101E-05   858   0.211E-02    0.191E-03
RMM:   3    -0.258928355992E+03   -0.91216E-06   -0.10780E-05   610   0.102E-02    0.144E-03
RMM:   4    -0.258928356008E+03   -0.16758E-07   -0.80200E-07   464   0.480E-03
 165 F= -.27098250E+03 E0= -.27098250E+03  d E =-.385590E-04  mag=    -0.0000
       N       E                     dE             d eps       ncg     rms          rms(c)
DAV:   1    -0.258928347978E+03    0.80133E-05   -0.58341E-03   800   0.137E-01    0.903E-03
RMM:   2    -0.258928362852E+03   -0.14874E-04   -0.15410E-04   914   0.411E-02    0.356E-03
RMM:   3    -0.258928366391E+03   -0.35385E-05   -0.37026E-05   876   0.193E-02    0.234E-03
RMM:   4    -0.258928366941E+03   -0.55075E-06   -0.79533E-06   538   0.840E-03
 166 F= -.27098250E+03 E0= -.27098250E+03  d E =-.414689E-04  mag=    -0.0000
       N       E                     dE             d eps       ncg     rms          rms(c)
DAV:   1    -0.258928352761E+03    0.13629E-04   -0.25641E-03   768   0.912E-02    0.677E-03
RMM:   2    -0.258928359079E+03   -0.63177E-05   -0.69908E-05   904   0.276E-02    0.256E-03
RMM:   3    -0.258928360656E+03   -0.15768E-05   -0.18629E-05   720   0.127E-02    0.150E-03
RMM:   4    -0.258928360706E+03   -0.50375E-07   -0.11097E-06   468   0.500E-03
 167 F= -.27098250E+03 E0= -.27098250E+03  d E =-.405784E-04  mag=     0.0000
       N       E                     dE             d eps       ncg     rms          rms(c)
DAV:   1    -0.258928362131E+03   -0.14747E-05   -0.74186E-04   800   0.491E-02    0.327E-03
RMM:   2    -0.258928364235E+03   -0.21046E-05   -0.20932E-05   828   0.150E-02    0.134E-03
RMM:   3    -0.258928364632E+03   -0.39646E-06   -0.49964E-06   530   0.709E-03
 168 F= -.27098250E+03 E0= -.27098250E+03  d E =-.416240E-04  mag=     0.0000
       N       E                     dE             d eps       ncg     rms          rms(c)
DAV:   1    -0.258928362353E+03    0.18818E-05   -0.17829E-04   784   0.245E-02    0.204E-03
RMM:   2    -0.258928362731E+03   -0.37797E-06   -0.48888E-06   492   0.803E-03
 169 F= -.27098250E+03 E0= -.27098250E+03  d E =-.411636E-04  mag=     0.0000
       N       E                     dE             d eps       ncg     rms          rms(c)
DAV:   1    -0.258928363756E+03   -0.14029E-05   -0.65931E-05   736   0.152E-02    0.122E-03
RMM:   2    -0.258928363940E+03   -0.18378E-06   -0.16219E-06   422   0.467E-03
 170 F= -.27098250E+03 E0= -.27098250E+03  d E =-.414814E-04  mag=    -0.0000
       N       E                     dE             d eps       ncg     rms          rms(c)
DAV:   1    -0.258928363411E+03    0.34515E-06   -0.15531E-05   480   0.749E-03    0.695E-04
RMM:   2    -0.258928363442E+03   -0.31330E-07   -0.54258E-07   356   0.347E-03
 171 F= -.27098250E+03 E0= -.27098250E+03  d E =-.414292E-04  mag=     0.0000
       N       E                     dE             d eps       ncg     rms          rms(c)
DAV:   1    -0.258928363759E+03   -0.34796E-06   -0.51815E-06   448   0.430E-03    0.448E-04
RMM:   2    -0.258928363778E+03   -0.19294E-07   -0.17567E-07   342   0.185E-03
 172 F= -.27098250E+03 E0= -.27098250E+03  d E =-.415028E-04  mag=     0.0000
       N       E                     dE             d eps       ncg     rms          rms(c)
DAV:   1    -0.258928346231E+03    0.17528E-04   -0.12193E-02   784   0.191E-01    0.118E-02
RMM:   2    -0.258928375473E+03   -0.29241E-04   -0.30475E-04   964   0.548E-02    0.377E-03
RMM:   3    -0.258928382565E+03   -0.70921E-05   -0.73320E-05   936   0.252E-02    0.343E-03
RMM:   4    -0.258928383480E+03   -0.91537E-06   -0.10777E-05   568   0.922E-03    0.336E-03
RMM:   5    -0.258928383455E+03    0.25348E-07   -0.75216E-07   464   0.449E-03
 173 F= -.27098253E+03 E0= -.27098253E+03  d E =-.263982E-04  mag=    -0.0000
       N       E                     dE             d eps       ncg     rms          rms(c)
DAV:   1    -0.258928332500E+03    0.50980E-04   -0.20131E-02   832   0.244E-01    0.162E-02
RMM:   2    -0.258928380364E+03   -0.47864E-04   -0.50227E-04   974   0.710E-02    0.518E-03
RMM:   3    -0.258928392364E+03   -0.12000E-04   -0.12268E-04   964   0.325E-02    0.415E-03
RMM:   4    -0.258928394074E+03   -0.17101E-05   -0.18724E-05   676   0.120E-02    0.392E-03
RMM:   5    -0.258928394019E+03    0.55057E-07   -0.10803E-06   472   0.465E-03
 174 F= -.27098255E+03 E0= -.27098255E+03  d E =-.456445E-04  mag=     0.0000
       N       E                     dE             d eps       ncg     rms          rms(c)
DAV:   1    -0.258928376758E+03    0.17316E-04   -0.79820E-03   784   0.163E-01    0.121E-02
RMM:   2    -0.258928397554E+03   -0.20797E-04   -0.23614E-04   892   0.509E-02    0.514E-03
RMM:   3    -0.258928402783E+03   -0.52282E-05   -0.60486E-05   950   0.240E-02    0.368E-03
RMM:   4    -0.258928403300E+03   -0.51782E-06   -0.79833E-06   598   0.857E-03
 175 F= -.27098257E+03 E0= -.27098257E+03  d E =-.180983E-04  mag=    -0.0000
       N       E                     dE             d eps       ncg     rms          rms(c)
DAV:   1    -0.258928403306E+03   -0.52380E-06   -0.16604E-06   656   0.485E-03    0.931E-04
RMM:   2    -0.258928403331E+03   -0.24842E-07   -0.36218E-07   432   0.257E-03
 176 F= -.27098257E+03 E0= -.27098257E+03  d E =-.180163E-04  mag=    -0.0000
       N       E                     dE             d eps       ncg     rms          rms(c)
DAV:   1    -0.258928403314E+03   -0.76598E-08   -0.10402E-06   608   0.273E-03    0.271E-04
RMM:   2    -0.258928403325E+03   -0.10843E-07   -0.13999E-07   374   0.174E-03
 177 F= -.27098257E+03 E0= -.27098257E+03  d E =-.181143E-04  mag=     0.0000
       N       E                     dE             d eps       ncg     rms          rms(c)
DAV:   1    -0.258928403327E+03   -0.13331E-07   -0.84639E-08   448   0.130E-03    0.106E-04
RMM:   2    -0.258928403331E+03   -0.40454E-08   -0.45869E-08   354   0.107E-03
 178 F= -.27098257E+03 E0= -.27098257E+03  d E =-.181283E-04  mag=     0.0000
       N       E                     dE             d eps       ncg     rms          rms(c)
DAV:   1    -0.258928403334E+03   -0.62082E-08   -0.26866E-08   400   0.741E-04    0.609E-05
RMM:   2    -0.258928403335E+03   -0.98953E-09   -0.14684E-08   298   0.620E-04
 179 F= -.27098257E+03 E0= -.27098257E+03  d E =-.181324E-04  mag=     0.0000
       N       E                     dE             d eps       ncg     rms          rms(c)
DAV:   1    -0.258928403335E+03   -0.13679E-08   -0.10611E-08   400   0.466E-04    0.133E-05
RMM:   2    -0.258928403335E+03   -0.45475E-09   -0.17277E-09   132   0.390E-04
 180 F= -.27098257E+03 E0= -.27098257E+03  d E =-.181333E-04  mag=    -0.0000
       N       E                     dE             d eps       ncg     rms          rms(c)
DAV:   1    -0.258928403336E+03   -0.14315E-08   -0.66702E-09   400   0.374E-04    0.143E-05
RMM:   2    -0.258928403336E+03    0.32742E-09    0.00000E+00    90   0.281E-04
 181 F= -.27098257E+03 E0= -.27098257E+03  d E =-.181339E-04  mag=     0.0000
       N       E                     dE             d eps       ncg     rms          rms(c)
DAV:   1    -0.258928403336E+03    0.39654E-09   -0.38247E-09   400   0.281E-04    0.811E-06
RMM:   2    -0.258928403336E+03   -0.36925E-09    0.00000E+00   102   0.220E-04
 182 F= -.27098257E+03 E0= -.27098257E+03  d E =-.181342E-04  mag=    -0.0000
       N       E                     dE             d eps       ncg     rms          rms(c)
DAV:   1    -0.258928366901E+03    0.36435E-04   -0.80005E-03   736   0.164E-01    0.112E-02
RMM:   2    -0.258928388317E+03   -0.21416E-04   -0.23602E-04   884   0.508E-02    0.482E-03
RMM:   3    -0.258928393413E+03   -0.50955E-05   -0.57441E-05   934   0.240E-02    0.377E-03
RMM:   4    -0.258928394093E+03   -0.68030E-06   -0.10225E-05   602   0.911E-03    0.254E-03
RMM:   5    -0.258928394043E+03    0.50040E-07   -0.68984E-07   464   0.398E-03
 183 F= -.27098255E+03 E0= -.27098255E+03  d E =-.240453E-07  mag=     0.0000
