<?xml version="1.0" encoding="ISO-8859-1"?>
<modeling>
 <generator>
  <i name="program" type="string">vasp </i>
  <i name="version" type="string">6.4.1  </i>
  <i name="subversion" type="string">05Apr23 (build Jun 07 2023 15:38:11) complex                          parallel </i>
  <i name="platform" type="string">LinuxIFC </i>
  <i name="date" type="string">2023 10 30 </i>
  <i name="time" type="string">11:16:18 </i>
 </generator>
 <incar>
  <i type="string" name="PREC">Accu</i>
  <i type="string" name="ALGO">F</i>
  <i type="logical" name="LDIAG"> T  </i>
  <i type="int" name="ISPIN">     2</i>
  <i type="int" name="NELM">   100</i>
  <i type="int" name="NELMDL">   -10</i>
  <i type="int" name="IBRION">     2</i>
  <i name="EDIFF">      0.00000100</i>
  <i name="EDIFFG">     -0.00100000</i>
  <i type="int" name="NSW">  1000</i>
  <i type="int" name="ISIF">     2</i>
  <i name="ENCUT">    520.00000000</i>
  <i name="POTIM">      0.20000000</i>
  <i type="string" name="LREAL">Auto</i>
  <i type="logical" name="LPLANE"> T  </i>
  <i type="int" name="ISMEAR">     0</i>
  <i name="SIGMA">      0.03000000</i>
  <i type="int" name="LMAXMIX">     4</i>
  <i type="logical" name="LWAVE"> F  </i>
  <i type="logical" name="LCHARG"> F  </i>
  <i type="logical" name="LASPH"> T  </i>
  <i type="string" name="GGA">PE</i>
  <i type="int" name="IVDW">    12</i>
 </incar>
 <primitive_cell>
  <structure name="primitive_cell" >
   <crystal>
    <varray name="basis" >
     <v>      -4.89507056       0.00000000       4.89505008 </v>
     <v>       4.89507056       0.00000000       4.89509103 </v>
     <v>       0.00000000       9.79014111       0.00000000 </v>
    </varray>
    <i name="volume">    469.17715733 </i>
    <varray name="rec_basis" >
     <v>      -0.10214400       0.00000000       0.10214357 </v>
     <v>       0.10214315       0.00000000       0.10214357 </v>
     <v>       0.00000000       0.10214357       0.00000000 </v>
    </varray>
   </crystal>
   <varray name="positions" >
    <v>       0.27434981       0.22564203       0.25000000 </v>
    <v>       0.76177987       0.73821604       0.75000000 </v>
    <v>       0.73821595       0.76177977       0.25000000 </v>
    <v>       0.22564601       0.27435379       0.75000000 </v>
    <v>       0.78913586       0.15501109       0.18163935 </v>
    <v>       0.71085996       0.34498473       0.68163935 </v>
    <v>       0.34498738       0.71086261       0.31836065 </v>
    <v>       0.15500843       0.78913321       0.81836065 </v>
    <v>       0.98945557       0.38209405       0.96970514 </v>
    <v>       0.38209151       0.98945303       0.03029486 </v>
    <v>       0.51054025       0.11790176       0.46970514 </v>
    <v>       0.11790430       0.51054279       0.53029486 </v>
    <v>       0.00570218       0.00570218       0.50000000 </v>
    <v>       0.49429782       0.49429782       0.00000000 </v>
    <v>       0.48729481       0.73711432       0.87983610 </v>
    <v>       0.25045643       0.50832301       0.11842012 </v>
    <v>       0.50831990       0.25045333       0.88157988 </v>
    <v>       0.73711176       0.48729253       0.12016499 </v>
    <v>       0.24953939       0.99167281       0.61842012 </v>
    <v>       0.01270014       0.76288092       0.37983501 </v>
    <v>       0.76288046       0.01269996       0.62016390 </v>
    <v>       0.99167591       0.24954249       0.38157988 </v>
    <v>       0.99179961       0.50819823       0.75000000 </v>
    <v>       0.50819621       0.99179759       0.25000000 </v>
    <v>       0.03571060       0.03571060       0.00000000 </v>
    <v>       0.46428940       0.46428940       0.50000000 </v>
   </varray>
  </structure>
  <varray name="primitive_index" >
   <v type="int" >        1 </v>
   <v type="int" >       22 </v>
   <v type="int" >       23 </v>
   <v type="int" >        4 </v>
   <v type="int" >        5 </v>
   <v type="int" >       15 </v>
   <v type="int" >       14 </v>
   <v type="int" >        8 </v>
   <v type="int" >        9 </v>
   <v type="int" >       12 </v>
   <v type="int" >       19 </v>
   <v type="int" >       18 </v>
   <v type="int" >       27 </v>
   <v type="int" >       28 </v>
   <v type="int" >       38 </v>
   <v type="int" >       30 </v>
   <v type="int" >       31 </v>
   <v type="int" >       32 </v>
   <v type="int" >       33 </v>
   <v type="int" >       34 </v>
   <v type="int" >       41 </v>
   <v type="int" >       36 </v>
   <v type="int" >       47 </v>
   <v type="int" >       46 </v>
   <v type="int" >       49 </v>
   <v type="int" >       50 </v>
  </varray>
 </primitive_cell>
 <kpoints>
  <generation param="Monkhorst-Pack">
   <v type="int" name="divisions">       2        2        2 </v>
   <v name="usershift">      0.00000000       0.00000000       0.00000000 </v>
   <v name="genvec1">      0.50000000       0.00000000       0.00000000 </v>
   <v name="genvec2">      0.00000000       0.50000000       0.00000000 </v>
   <v name="genvec3">      0.00000000       0.00000000       0.50000000 </v>
   <v name="shift">      0.50000000       0.50000000       0.50000000 </v>
  </generation>
  <varray name="kpointlist" >
   <v>       0.25000000       0.25000000       0.25000000 </v>
  </varray>
  <varray name="weights" >
   <v>       1.00000000 </v>
  </varray>
 </kpoints>
 <parameters>
  <separator name="general" >
   <i type="string" name="SYSTEM">unknown system</i>
   <i type="logical" name="LCOMPAT"> F  </i>
  </separator>
  <separator name="electronic" >
   <i type="string" name="PREC">accu</i>
   <i name="ENMAX">    520.00000000</i>
   <i name="ENAUG">   1041.69900000</i>
   <i name="EDIFF">      0.00000100</i>
   <i type="int" name="IALGO">    68</i>
   <i type="int" name="IWAVPR">    11</i>
   <i type="int" name="NBANDS">   176</i>
   <i type="int" name="NBANDSLOW">    -1</i>
   <i type="int" name="NBANDSHIGH">    -1</i>
   <i name="NELECT">    240.00000000</i>
   <i type="int" name="TURBO">     0</i>
   <i type="int" name="IRESTART">     0</i>
   <i type="int" name="NREBOOT">     0</i>
   <i type="int" name="NMIN">     0</i>
   <i name="EREF">      0.00000000</i>
   <separator name="electronic smearing" >
    <i type="int" name="ISMEAR">     0</i>
    <i name="SIGMA">      0.03000000</i>
    <i name="KSPACING">      0.50000000</i>
    <i type="logical" name="KGAMMA"> T  </i>
    <i type="logical" name="KBLOWUP"> T  </i>
   </separator>
   <separator name="electronic projectors" >
    <i type="logical" name="LREAL"> T  </i>
    <v name="ROPT">     -0.00025000     -0.00025000     -0.00025000     -0.00025000</v>
    <i type="int" name="LMAXPAW">  -100</i>
    <i type="int" name="LMAXMIX">     4</i>
    <i type="logical" name="NLSPLINE"> F  </i>
   </separator>
   <separator name="electronic startup" >
    <i type="int" name="ISTART">     0</i>
    <i type="int" name="ICHARG">     2</i>
    <i type="int" name="INIWAV">     1</i>
   </separator>
   <separator name="electronic spin" >
    <i type="int" name="ISPIN">     2</i>
    <i type="logical" name="LNONCOLLINEAR"> F  </i>
    <v name="MAGMOM">      1.00000000      1.00000000      1.00000000      1.00000000      1.00000000      1.00000000      1.00000000      1.00000000      1.00000000      1.00000000      1.00000000      1.00000000      1.00000000      1.00000000      1.00000000      1.00000000      1.00000000      1.00000000      1.00000000      1.00000000
      1.00000000      1.00000000      1.00000000      1.00000000      1.00000000      1.00000000      1.00000000      1.00000000      1.00000000      1.00000000      1.00000000      1.00000000      1.00000000      1.00000000      1.00000000      1.00000000      1.00000000      1.00000000      1.00000000      1.00000000
      1.00000000      1.00000000      1.00000000      1.00000000      1.00000000      1.00000000      1.00000000      1.00000000      1.00000000      1.00000000      1.00000000      1.00000000</v>
    <i name="NUPDOWN">     -1.00000000</i>
    <i type="logical" name="LSORBIT"> F  </i>
    <v name="SAXIS">      0.00000000      0.00000000      1.00000000</v>
    <i type="logical" name="LSPIRAL"> F  </i>
    <v name="QSPIRAL">      0.00000000      0.00000000      0.00000000</v>
    <i type="logical" name="LZEROZ"> F  </i>
   </separator>
   <separator name="electronic exchange-correlation" >
    <i type="logical" name="LASPH"> T  </i>
    <i type="logical" name="LMETAGGA"> F  </i>
   </separator>
   <separator name="electronic convergence" >
    <i type="int" name="NELM">   100</i>
    <i type="int" name="NELMDL">   -10</i>
    <i type="int" name="NELMIN">     2</i>
    <i name="ENINI">    520.00000000</i>
    <separator name="electronic convergence detail" >
     <i type="logical" name="LDIAG"> T  </i>
     <i type="logical" name="LSUBROT"> F  </i>
     <i name="WEIMIN">      0.00100000</i>
     <i name="EBREAK">      0.00000000</i>
     <i name="DEPER">      0.30000000</i>
     <i type="int" name="NRMM">     4</i>
     <i name="TIME">      0.40000000</i>
    </separator>
   </separator>
   <separator name="electronic mixer" >
    <i name="AMIX">      0.40000000</i>
    <i name="BMIX">      1.00000000</i>
    <i name="AMIN">      0.10000000</i>
    <i name="AMIX_MAG">      1.60000000</i>
    <i name="BMIX_MAG">      1.00000000</i>
    <separator name="electronic mixer details" >
     <i type="int" name="IMIX">     4</i>
     <i type="logical" name="MIXFIRST"> F  </i>
     <i type="int" name="MAXMIX">   -45</i>
     <i name="WC">    100.00000000</i>
     <i type="int" name="INIMIX">     1</i>
     <i type="int" name="MIXPRE">     1</i>
     <i type="int" name="MREMOVE">     5</i>
    </separator>
   </separator>
   <separator name="electronic dipolcorrection" >
    <i type="logical" name="LDIPOL"> F  </i>
    <i type="logical" name="LMONO"> F  </i>
    <i type="int" name="IDIPOL">     0</i>
    <i name="EPSILON">      1.00000000</i>
    <v name="DIPOL">   -100.00000000   -100.00000000   -100.00000000</v>
    <i name="EFIELD">      0.00000000</i>
   </separator>
  </separator>
  <separator name="grids" >
   <i type="int" name="NGX">    80</i>
   <i type="int" name="NGY">    80</i>
   <i type="int" name="NGZ">    80</i>
   <i type="int" name="NGXF">   160</i>
   <i type="int" name="NGYF">   160</i>
   <i type="int" name="NGZF">   160</i>
   <i type="logical" name="ADDGRID"> F  </i>
  </separator>
  <separator name="ionic" >
   <i type="int" name="NSW">  1000</i>
   <i type="int" name="IBRION">     2</i>
   <i type="int" name="MDALGO">     0</i>
   <i type="int" name="ISIF">     2</i>
   <i name="PSTRESS">      0.00000000</i>
   <i name="EDIFFG">     -0.00100000</i>
   <i type="int" name="NFREE">     1</i>
   <i name="POTIM">      0.20000000</i>
   <i name="SMASS">     -3.00000000</i>
   <i name="SCALEE">      1.00000000</i>
  </separator>
  <separator name="ionic md" >
   <i name="TEBEG">      0.00010000</i>
   <i name="TEEND">      0.00010000</i>
   <i type="int" name="NBLOCK">     1</i>
   <i type="int" name="KBLOCK">  1000</i>
   <i type="int" name="NPACO">   256</i>
   <i name="APACO">     10.00000000</i>
  </separator>
  <separator name="symmetry" >
   <i type="int" name="ISYM">     2</i>
   <i name="SYMPREC">      0.00001000</i>
  </separator>
  <separator name="dos" >
   <i type="int" name="LORBIT">     0</i>
   <v name="RWIGS">     -1.00000000     -1.00000000     -1.00000000     -1.00000000</v>
   <i type="int" name="NEDOS">   301</i>
   <i name="EMIN">     10.00000000</i>
   <i name="EMAX">    -10.00000000</i>
   <i name="EFERMI">      0.00000000</i>
  </separator>
  <separator name="writing" >
   <i type="int" name="NWRITE">     2</i>
   <i type="logical" name="LWAVE"> F  </i>
   <i type="logical" name="LDOWNSAMPLE"> F  </i>
   <i type="logical" name="LCHARG"> F  </i>
   <i type="logical" name="LPARD"> F  </i>
   <i type="logical" name="LVTOT"> F  </i>
   <i type="logical" name="LVHAR"> F  </i>
   <i type="logical" name="LELF"> F  </i>
   <i type="logical" name="LOPTICS"> F  </i>
   <v name="STM">      0.00000000      0.00000000      0.00000000      0.00000000      0.00000000      0.00000000      0.00000000</v>
  </separator>
  <separator name="performance" >
   <i type="int" name="NPAR">     4</i>
   <i type="int" name="NSIM">     4</i>
   <i type="int" name="NBLK">    -1</i>
   <i type="logical" name="LPLANE"> T  </i>
   <i type="logical" name="LSCALAPACK"> T  </i>
   <i type="logical" name="LSCAAWARE"> F  </i>
   <i type="logical" name="LSCALU"> F  </i>
   <i type="logical" name="LASYNC"> F  </i>
   <i type="logical" name="LORBITALREAL"> F  </i>
  </separator>
  <separator name="miscellaneous" >
   <i type="int" name="IDIOT">     3</i>
   <i type="int" name="PHON_NSTRUCT">    -1</i>
   <i type="logical" name="LMUSIC"> F  </i>
   <v name="POMASS">      7.01000000     30.97400000     32.06600000     35.45300000</v>
   <v name="DARWINR">      0.00000000      0.00000000      0.00000000      0.00000000</v>
   <v name="DARWINV">      1.00000000      1.00000000      1.00000000      1.00000000</v>
   <i type="logical" name="LCORR"> T  </i>
  </separator>
  <i type="logical" name="GGA_COMPAT"> T  </i>
  <i type="logical" name="LBERRY"> F  </i>
  <i type="int" name="ICORELEVEL">     0</i>
  <i type="logical" name="LDAU"> F  </i>
  <i type="int" name="I_CONSTRAINED_M">     0</i>
  <separator name="electronic exchange-correlation" >
   <i type="string" name="GGA">PE</i>
   <i type="int" name="VOSKOWN">     0</i>
   <i type="logical" name="LHFCALC"> F  </i>
   <i type="string" name="PRECFOCK"></i>
   <i type="logical" name="LSYMGRAD"> F  </i>
   <i type="logical" name="LHFONE"> F  </i>
   <i type="logical" name="LRHFCALC"> F  </i>
   <i type="logical" name="LTHOMAS"> F  </i>
   <i type="logical" name="LMODELHF"> F  </i>
   <i type="logical" name="LFOCKACE"> F  </i>
   <i name="ENCUT4O">     -1.00000000</i>
   <i type="int" name="EXXOEP">     0</i>
   <i type="int" name="FOURORBIT">     0</i>
   <i name="AEXX">      0.00000000</i>
   <i name="HFALPHA">      0.00000000</i>
   <i name="MCALPHA">      0.00000000</i>
   <i name="ALDAX">      1.00000000</i>
   <i name="AGGAX">      1.00000000</i>
   <i name="ALDAC">      1.00000000</i>
   <i name="AGGAC">      1.00000000</i>
   <i type="int" name="NKREDX">     1</i>
   <i type="int" name="NKREDY">     1</i>
   <i type="int" name="NKREDZ">     1</i>
   <i type="logical" name="SHIFTRED"> F  </i>
   <i type="logical" name="ODDONLY"> F  </i>
   <i type="logical" name="EVENONLY"> F  </i>
   <i type="int" name="LMAXFOCK">     0</i>
   <i type="int" name="NMAXFOCKAE">     0</i>
   <i type="logical" name="LFOCKAEDFT"> F  </i>
   <i name="HFSCREEN">      0.00000000</i>
   <i name="HFSCREENC">      0.00000000</i>
   <i type="int" name="NBANDSGWLOW">     0</i>
  </separator>
  <separator name="vdW DFT" >
   <i type="logical" name="LUSE_VDW"> F  </i>
   <i type="int" name="IVDW_NL">     1</i>
   <i type="logical" name="LSPIN_VDW"> F  </i>
   <i name="Zab_VDW">     -0.84910000</i>
   <i name="PARAM1">      0.12340000</i>
   <i name="PARAM2">      1.00000000</i>
   <i name="PARAM3">      0.00000000</i>
  </separator>
  <separator name="model GW" >
   <i type="int" name="MODEL_GW">     0</i>
   <i name="MODEL_EPS0">     10.82716517</i>
   <i name="MODEL_ALPHA">      1.00000000</i>
  </separator>
  <separator name="linear response parameters" >
   <i type="logical" name="LEPSILON"> F  </i>
   <i type="logical" name="LRPA"> F  </i>
   <i type="logical" name="LNABLA"> F  </i>
   <i type="logical" name="LVEL"> F  </i>
   <i name="CSHIFT">      0.10000000</i>
   <i name="OMEGAMAX">     -1.00000000</i>
   <i name="DEG_THRESHOLD">      0.00200000</i>
   <i name="RTIME">     -0.10000000</i>
   <i name="WPLASMAI">      0.00000000</i>
   <v name="DFIELD">      0.00000000      0.00000000      0.00000000</v>
   <v name="WPLASMA">      0.00000000      0.00000000      0.00000000      0.00000000      0.00000000      0.00000000      0.00000000      0.00000000      0.00000000</v>
  </separator>
  <separator name="orbital magnetization" >
   <i type="logical" name="NUCIND"> F  </i>
   <v name="MAGPOS">      0.00000000      0.00000000      0.00000000</v>
   <i type="logical" name="LNICSALL"> T  </i>
   <i type="logical" name="ORBITALMAG"> F  </i>
   <i type="logical" name="LMAGBLOCH"> F  </i>
   <i type="logical" name="LCHIMAG"> F  </i>
   <i type="logical" name="LGAUGE"> T  </i>
   <i type="int" name="MAGATOM">     0</i>
   <v name="MAGDIPOL">      0.00000000      0.00000000      0.00000000</v>
   <v name="AVECCONST">      0.00000000      0.00000000      0.00000000</v>
  </separator>
  <separator name="response functions" >
   <i type="logical" name="LALL_IN_ONE"> F  </i>
   <i type="int" name="IALL_IN_ONE">    -1</i>
   <i type="int" name="NBANDS_WAVE">    -1</i>
   <i type="logical" name="LFINITE_TEMPERATURE"> F  </i>
   <i type="logical" name="LADDER"> F  </i>
   <i type="logical" name="LRPAFORCE"> F  </i>
   <i type="logical" name="LFXC"> F  </i>
   <i type="logical" name="LHARTREE"> T  </i>
   <i type="int" name="IBSE">     0</i>
   <v type="int" name="KPOINT">    -1     0     0     0</v>
   <i type="logical" name="LTCTC"> F  </i>
   <i type="logical" name="LTCTE"> F  </i>
   <i type="logical" name="LTETE"> F  </i>
   <i type="logical" name="LTRIPLET"> F  </i>
   <i type="logical" name="LFXCEPS"> F  </i>
   <i type="logical" name="LFXHEG"> F  </i>
   <i type="int" name="NATURALO">     2</i>
   <i type="logical" name="LHOLEGF"> F  </i>
   <i type="logical" name="L2ORDER"> F  </i>
   <i type="logical" name="LDMP1"> F  </i>
   <i type="logical" name="LMP2LT"> F  </i>
   <i type="logical" name="LSMP2LT"> F  </i>
   <i type="logical" name="LGWLF"> F  </i>
   <i name="ENCUTGW">     -1.60000002</i>
   <i name="ENCUTGWSOFT">     -1.60000002</i>
   <i name="ENCUTLF">     -1.00000000</i>
   <i type="logical" name="LESF_SPLINES"> F  </i>
   <i type="int" name="LMAXMP2">    -1</i>
   <i name="SCISSOR">      0.00000000</i>
   <i type="int" name="NOMEGA">     0</i>
   <i type="int" name="NOMEGAR">     0</i>
   <i type="int" name="NBANDSGW">    -1</i>
   <i type="int" name="NBANDSO">    -1</i>
   <i type="int" name="NBANDSV">    -1</i>
   <i type="int" name="NELMGW">     1</i>
   <i type="int" name="NELMHF">     1</i>
   <i type="int" name="DIM">     3</i>
   <i type="int" name="IESPILON">     4</i>
   <i type="int" name="ANTIRES">     0</i>
   <i name="OMEGAMAX">    -30.00000000</i>
   <i name="OMEGAMIN">    -30.00000000</i>
   <i name="OMEGATL">   -200.00000000</i>
   <i type="int" name="OMEGAGRID">     0</i>
   <i name="CSHIFT">     -0.10000000</i>
   <i type="logical" name="LSELFENERGY"> F  </i>
   <i type="logical" name="LSPECTRAL"> F  </i>
   <i type="logical" name="LSPECTRALGW"> F  </i>
   <i type="logical" name="LSINGLES"> F  </i>
   <i type="logical" name="LFERMIGW"> F  </i>
   <i type="logical" name="ODDONLYGW"> F  </i>
   <i type="logical" name="EVENONLYGW"> F  </i>
   <i type="int" name="NKREDLFX">     1</i>
   <i type="int" name="NKREDLFY">     1</i>
   <i type="int" name="NKREDLFZ">     1</i>
   <i type="int" name="MAXMEM">  2800</i>
   <i type="int" name="TELESCOPE">     0</i>
   <i type="int" name="NTAUPAR">    -1</i>
   <i type="int" name="NOMEGAPAR">    -1</i>
   <i name="DAMP_NEWTON">      0.80000001</i>
   <i name="LAMBDA">      1.00000000</i>
  </separator>
  <separator name="External order field" >
   <i name="OFIELD_KAPPA">      0.00000000</i>
   <v name="OFIELD_K">      0.00000000      0.00000000      0.00000000</v>
   <i name="OFIELD_Q6_NEAR">      0.00000000</i>
   <i name="OFIELD_Q6_FAR">      0.00000000</i>
   <i name="OFIELD_A">      0.00000000</i>
  </separator>
  <separator name="optional k-points parameters" >
   <i type="int" name="KPOINTS_OPT_MODE">     1</i>
   <i type="logical" name="LKPOINTS_OPT"> F  </i>
  </separator>
 </parameters>
 <atominfo>
  <atoms>      52 </atoms>
  <types>       4 </types>
  <array name="atoms" >
   <dimension dim="1">ion</dimension>
   <field type="string">element</field>
   <field type="int">atomtype</field>
   <set>
    <rc><c>Li</c><c>   1</c></rc>
    <rc><c>Li</c><c>   1</c></rc>
    <rc><c>Li</c><c>   1</c></rc>
    <rc><c>Li</c><c>   1</c></rc>
    <rc><c>Li</c><c>   1</c></rc>
    <rc><c>Li</c><c>   1</c></rc>
    <rc><c>Li</c><c>   1</c></rc>
    <rc><c>Li</c><c>   1</c></rc>
    <rc><c>Li</c><c>   1</c></rc>
    <rc><c>Li</c><c>   1</c></rc>
    <rc><c>Li</c><c>   1</c></rc>
    <rc><c>Li</c><c>   1</c></rc>
    <rc><c>Li</c><c>   1</c></rc>
    <rc><c>Li</c><c>   1</c></rc>
    <rc><c>Li</c><c>   1</c></rc>
    <rc><c>Li</c><c>   1</c></rc>
    <rc><c>Li</c><c>   1</c></rc>
    <rc><c>Li</c><c>   1</c></rc>
    <rc><c>Li</c><c>   1</c></rc>
    <rc><c>Li</c><c>   1</c></rc>
    <rc><c>Li</c><c>   1</c></rc>
    <rc><c>Li</c><c>   1</c></rc>
    <rc><c>Li</c><c>   1</c></rc>
    <rc><c>Li</c><c>   1</c></rc>
    <rc><c>P </c><c>   2</c></rc>
    <rc><c>P </c><c>   2</c></rc>
    <rc><c>P </c><c>   2</c></rc>
    <rc><c>P </c><c>   2</c></rc>
    <rc><c>S </c><c>   3</c></rc>
    <rc><c>S </c><c>   3</c></rc>
    <rc><c>S </c><c>   3</c></rc>
    <rc><c>S </c><c>   3</c></rc>
    <rc><c>S </c><c>   3</c></rc>
    <rc><c>S </c><c>   3</c></rc>
    <rc><c>S </c><c>   3</c></rc>
    <rc><c>S </c><c>   3</c></rc>
    <rc><c>S </c><c>   3</c></rc>
    <rc><c>S </c><c>   3</c></rc>
    <rc><c>S </c><c>   3</c></rc>
    <rc><c>S </c><c>   3</c></rc>
    <rc><c>S </c><c>   3</c></rc>
    <rc><c>S </c><c>   3</c></rc>
    <rc><c>S </c><c>   3</c></rc>
    <rc><c>S </c><c>   3</c></rc>
    <rc><c>S </c><c>   3</c></rc>
    <rc><c>S </c><c>   3</c></rc>
    <rc><c>S </c><c>   3</c></rc>
    <rc><c>S </c><c>   3</c></rc>
    <rc><c>Cl</c><c>   4</c></rc>
    <rc><c>Cl</c><c>   4</c></rc>
    <rc><c>Cl</c><c>   4</c></rc>
    <rc><c>Cl</c><c>   4</c></rc>
   </set>
  </array>
  <array name="atomtypes" >
   <dimension dim="1">type</dimension>
   <field type="int">atomspertype</field>
   <field type="string">element</field>
   <field>mass</field>
   <field>valence</field>
   <field type="string">pseudopotential</field>
   <set>
    <rc><c>  24</c><c>Li</c><c>      7.01000000</c><c>      3.00000000</c><c>  PAW_PBE Li_sv_GW 25Mar2010            </c></rc>
    <rc><c>   4</c><c>P </c><c>     30.97400000</c><c>      5.00000000</c><c>  PAW_PBE P_GW 19Mar2012                </c></rc>
    <rc><c>  20</c><c>S </c><c>     32.06600000</c><c>      6.00000000</c><c>  PAW_PBE S_GW 19Mar2012                </c></rc>
    <rc><c>   4</c><c>Cl</c><c>     35.45300000</c><c>      7.00000000</c><c>  PAW_PBE Cl_GW 19Mar2012               </c></rc>
   </set>
  </array>
 </atominfo>
 <structure name="initialpos" >
  <crystal>
   <varray name="basis" >
    <v>       9.79014111       0.00000000       0.00000000 </v>
    <v>       0.00000000       9.79014111       0.00000000 </v>
    <v>       0.00000000       0.00000000       9.79014111 </v>
   </varray>
   <i name="volume">    938.35431466 </i>
   <varray name="rec_basis" >
    <v>       0.10214357       0.00000000       0.00000000 </v>
    <v>       0.00000000       0.10214357       0.00000000 </v>
    <v>       0.00000000       0.00000000       0.10214357 </v>
   </varray>
  </crystal>
  <varray name="positions" >
   <v>       0.97564611       0.25000000       0.25000000 </v>
   <v>       0.98821946       0.75000000       0.75000000 </v>
   <v>       0.01178054       0.25000000       0.75000000 </v>
   <v>       0.02435389       0.75000000       0.25000000 </v>
   <v>       0.18293761       0.18163935       0.97207424 </v>
   <v>       0.31706339       0.68163392       0.02792707 </v>
   <v>       0.68293661       0.31836608       0.02792707 </v>
   <v>       0.81706239       0.81836065       0.97207424 </v>
   <v>       0.19631924       0.96970514       0.18577563 </v>
   <v>       0.30367860       0.03029249       0.68578200 </v>
   <v>       0.69632140       0.96970751       0.68578200 </v>
   <v>       0.80368076       0.03029486       0.18577563 </v>
   <v>       0.31706339       0.81836608       0.47207293 </v>
   <v>       0.18293761       0.31836065       0.52792576 </v>
   <v>       0.81706239       0.68163935       0.52792576 </v>
   <v>       0.68293661       0.18163392       0.47207293 </v>
   <v>       0.30367860       0.46970751       0.81421800 </v>
   <v>       0.19631924       0.53029486       0.31422437 </v>
   <v>       0.80368076       0.46970514       0.31422437 </v>
   <v>       0.69632140       0.53029249       0.81421800 </v>
   <v>       0.47564543       0.25000000       0.75000000 </v>
   <v>       0.48821809       0.75000000       0.25000000 </v>
   <v>       0.51178191       0.25000000       0.25000000 </v>
   <v>       0.52435457       0.75000000       0.75000000 </v>
   <v>       0.50000000       0.50000000       0.50570009 </v>
   <v>       0.50000000       0.00000000       0.99429991 </v>
   <v>       0.00000000       0.50000000       0.00570218 </v>
   <v>       0.00000000       0.00000000       0.49429782 </v>
   <v>       0.12490961       0.87983501       0.61220581 </v>
   <v>       0.12893329       0.11842012       0.37939026 </v>
   <v>       0.87106671       0.88157988       0.37939026 </v>
   <v>       0.87509039       0.12016499       0.61220581 </v>
   <v>       0.87106671       0.61842012       0.12060974 </v>
   <v>       0.87509039       0.37983501       0.88779419 </v>
   <v>       0.12490961       0.62016499       0.88779419 </v>
   <v>       0.12893329       0.38157988       0.12060974 </v>
   <v>       0.62893289       0.11842201       0.87939244 </v>
   <v>       0.62490975       0.87983610       0.11220718 </v>
   <v>       0.37509025       0.12016390       0.11220718 </v>
   <v>       0.37106711       0.88157799       0.87939244 </v>
   <v>       0.62490975       0.62016390       0.38779282 </v>
   <v>       0.62893289       0.38157799       0.62060756 </v>
   <v>       0.37106711       0.61842201       0.62060756 </v>
   <v>       0.37509025       0.37983610       0.38779282 </v>
   <v>       0.75819988       0.75000000       0.75000000 </v>
   <v>       0.74180069       0.25000000       0.25000000 </v>
   <v>       0.25819931       0.75000000       0.25000000 </v>
   <v>       0.24180012       0.25000000       0.75000000 </v>
   <v>       0.00000000       0.00000000       0.03571060 </v>
   <v>       0.00000000       0.50000000       0.46428940 </v>
   <v>       0.50000000       0.00000000       0.53571813 </v>
   <v>       0.50000000       0.50000000       0.96428187 </v>
  </varray>
 </structure>
 <calculation>
  <scstep>
   <time name="dav">    0.75    0.77</time>
   <time name="total">    1.23    1.28</time>
   <energy>
    <i name="alphaZ">    289.29104863 </i>
    <i name="ewald">  -8582.87342630 </i>
    <i name="hartreedc">  -2245.49268633 </i>
    <i name="XCdc">    532.61195930 </i>
    <i name="pawpsdc">   8141.38806575 </i>
    <i name="pawaedc">  -8271.61346273 </i>
    <i name="eentropy">     -0.00078911 </i>
    <i name="bandstr">   -980.01694074 </i>
    <i name="atom">  12703.13999606 </i>
    <i name="e_fr_energy">   1586.43376452 </i>
    <i name="e_wo_entrp">   1586.43455364 </i>
    <i name="e_0_energy">   1586.43415908 </i>
   </energy>
  </scstep>
  <scstep>
   <time name="dav">    0.81    0.82</time>
   <time name="total">    0.81    0.82</time>
   <energy>
    <i name="e_fr_energy">    -55.33464903 </i>
    <i name="e_wo_entrp">    -55.33464903 </i>
    <i name="e_0_energy">    -55.33464903 </i>
   </energy>
  </scstep>
  <scstep>
   <time name="dav">    0.79    0.81</time>
   <time name="total">    0.80    0.81</time>
   <energy>
    <i name="e_fr_energy">   -228.44254305 </i>
    <i name="e_wo_entrp">   -228.44254305 </i>
    <i name="e_0_energy">   -228.44254305 </i>
   </energy>
  </scstep>
  <scstep>
   <time name="dav">    0.96    0.97</time>
   <time name="total">    0.96    0.97</time>
   <energy>
    <i name="e_fr_energy">   -241.95253166 </i>
    <i name="e_wo_entrp">   -241.95253166 </i>
    <i name="e_0_energy">   -241.95253166 </i>
   </energy>
  </scstep>
  <scstep>
   <time name="dav">    0.94    0.95</time>
   <time name="total">    0.95    0.96</time>
   <energy>
    <i name="e_fr_energy">   -242.20815402 </i>
    <i name="e_wo_entrp">   -242.20815402 </i>
    <i name="e_0_energy">   -242.20815402 </i>
   </energy>
  </scstep>
  <scstep>
   <time name="dav">    0.94    0.95</time>
   <time name="total">    0.94    0.95</time>
   <energy>
    <i name="e_fr_energy">   -242.21684797 </i>
    <i name="e_wo_entrp">   -242.21684797 </i>
    <i name="e_0_energy">   -242.21684797 </i>
   </energy>
  </scstep>
  <scstep>
   <time name="dav">    0.94    0.95</time>
   <time name="total">    0.94    0.95</time>
   <energy>
    <i name="e_fr_energy">   -242.21718214 </i>
    <i name="e_wo_entrp">   -242.21718214 </i>
    <i name="e_0_energy">   -242.21718214 </i>
   </energy>
  </scstep>
  <scstep>
   <time name="dav">    0.94    0.95</time>
   <time name="total">    0.94    0.95</time>
   <energy>
    <i name="e_fr_energy">   -242.21720176 </i>
    <i name="e_wo_entrp">   -242.21720176 </i>
    <i name="e_0_energy">   -242.21720176 </i>
   </energy>
  </scstep>
  <scstep>
   <time name="dav">    0.91    0.92</time>
   <time name="total">    0.91    0.92</time>
   <energy>
    <i name="e_fr_energy">   -242.21720301 </i>
    <i name="e_wo_entrp">   -242.21720301 </i>
    <i name="e_0_energy">   -242.21720301 </i>
   </energy>
  </scstep>
  <scstep>
   <time name="dav">    0.64    0.64</time>
   <time name="total">    0.91    1.36</time>
   <energy>
    <i name="e_fr_energy">   -242.21720307 </i>
    <i name="e_wo_entrp">   -242.21720307 </i>
    <i name="e_0_energy">   -242.21720307 </i>
   </energy>
  </scstep>
  <scstep>
   <time name="diag">    0.10    0.10</time>
   <time name="diis">    0.41    0.41</time>
   <time name="orth">    0.02    0.02</time>
   <time name="total">    1.28    1.62</time>
   <energy>
    <i name="e_fr_energy">   -232.46869882 </i>
    <i name="e_wo_entrp">   -232.46869882 </i>
    <i name="e_0_energy">   -232.46869882 </i>
   </energy>
  </scstep>
  <scstep>
   <time name="diag">    0.10    0.10</time>
   <time name="diis">    0.42    0.43</time>
   <time name="orth">    0.02    0.02</time>
   <time name="total">    1.15    1.23</time>
   <energy>
    <i name="e_fr_energy">   -255.64864713 </i>
    <i name="e_wo_entrp">   -255.64864713 </i>
    <i name="e_0_energy">   -255.64864713 </i>
   </energy>
  </scstep>
  <scstep>
   <time name="diag">    0.10    0.10</time>
   <time name="diis">    0.41    0.42</time>
   <time name="orth">    0.02    0.02</time>
   <time name="total">    1.13    1.19</time>
   <energy>
    <i name="e_fr_energy">   -258.06982455 </i>
    <i name="e_wo_entrp">   -258.06982455 </i>
    <i name="e_0_energy">   -258.06982455 </i>
   </energy>
  </scstep>
  <scstep>
   <time name="diag">    0.10    0.10</time>
   <time name="diis">    0.52    0.53</time>
   <time name="orth">    0.02    0.02</time>
   <time name="total">    1.25    1.29</time>
   <energy>
    <i name="e_fr_energy">   -258.29383860 </i>
    <i name="e_wo_entrp">   -258.29383860 </i>
    <i name="e_0_energy">   -258.29383860 </i>
   </energy>
  </scstep>
  <scstep>
   <time name="diag">    0.10    0.10</time>
   <time name="diis">    0.43    0.43</time>
   <time name="orth">    0.02    0.02</time>
   <time name="total">    1.15    1.17</time>
   <energy>
    <i name="e_fr_energy">   -258.25583614 </i>
    <i name="e_wo_entrp">   -258.25583614 </i>
    <i name="e_0_energy">   -258.25583614 </i>
   </energy>
  </scstep>
  <scstep>
   <time name="diag">    0.10    0.10</time>
   <time name="diis">    0.45    0.46</time>
   <time name="orth">    0.02    0.02</time>
   <time name="total">    1.16    1.17</time>
   <energy>
    <i name="e_fr_energy">   -258.27909994 </i>
    <i name="e_wo_entrp">   -258.27909994 </i>
    <i name="e_0_energy">   -258.27909994 </i>
   </energy>
  </scstep>
  <scstep>
   <time name="diag">    0.10    0.10</time>
   <time name="diis">    0.49    0.50</time>
   <time name="orth">    0.02    0.02</time>
   <time name="total">    1.20    1.21</time>
   <energy>
    <i name="e_fr_energy">   -258.28538087 </i>
    <i name="e_wo_entrp">   -258.28538087 </i>
    <i name="e_0_energy">   -258.28538087 </i>
   </energy>
  </scstep>
  <scstep>
   <time name="diag">    0.10    0.10</time>
   <time name="diis">    0.48    0.48</time>
   <time name="orth">    0.02    0.02</time>
   <time name="total">    1.19    1.21</time>
   <energy>
    <i name="e_fr_energy">   -258.28692901 </i>
    <i name="e_wo_entrp">   -258.28692901 </i>
    <i name="e_0_energy">   -258.28692901 </i>
   </energy>
  </scstep>
  <scstep>
   <time name="diag">    0.10    0.10</time>
   <time name="diis">    0.54    0.55</time>
   <time name="orth">    0.02    0.02</time>
   <time name="total">    1.25    1.28</time>
   <energy>
    <i name="e_fr_energy">   -258.28757183 </i>
    <i name="e_wo_entrp">   -258.28757183 </i>
    <i name="e_0_energy">   -258.28757183 </i>
   </energy>
  </scstep>
  <scstep>
   <time name="diag">    0.09    0.10</time>
   <time name="diis">    0.55    0.56</time>
   <time name="orth">    0.02    0.02</time>
   <time name="total">    1.26    1.28</time>
   <energy>
    <i name="e_fr_energy">   -258.28768608 </i>
    <i name="e_wo_entrp">   -258.28768608 </i>
    <i name="e_0_energy">   -258.28768608 </i>
   </energy>
  </scstep>
  <scstep>
   <time name="diag">    0.10    0.10</time>
   <time name="diis">    0.50    0.50</time>
   <time name="orth">    0.02    0.02</time>
   <time name="total">    1.22    1.24</time>
   <energy>
    <i name="e_fr_energy">   -258.28771286 </i>
    <i name="e_wo_entrp">   -258.28771286 </i>
    <i name="e_0_energy">   -258.28771286 </i>
   </energy>
  </scstep>
  <scstep>
   <time name="diag">    0.10    0.10</time>
   <time name="diis">    0.54    0.55</time>
   <time name="orth">    0.02    0.02</time>
   <time name="total">    1.26    1.27</time>
   <energy>
    <i name="e_fr_energy">   -258.28772142 </i>
    <i name="e_wo_entrp">   -258.28772142 </i>
    <i name="e_0_energy">   -258.28772142 </i>
   </energy>
  </scstep>
  <scstep>
   <time name="diag">    0.10    0.10</time>
   <time name="diis">    0.47    0.48</time>
   <time name="orth">    0.02    0.02</time>
   <time name="total">    1.18    1.20</time>
   <energy>
    <i name="e_fr_energy">   -258.28772168 </i>
    <i name="e_wo_entrp">   -258.28772168 </i>
    <i name="e_0_energy">   -258.28772168 </i>
   </energy>
  </scstep>
  <scstep>
   <time name="diag">    0.09    0.10</time>
   <time name="diis">    0.35    0.36</time>
   <time name="orth">    0.02    0.02</time>
   <time name="total">    0.94    0.94</time>
   <energy>
    <i name="alphaZ">    289.29104863 </i>
    <i name="ewald">  -8582.87342630 </i>
    <i name="hartreedc">  -2362.83264405 </i>
    <i name="XCdc">    537.19845284 </i>
    <i name="pawpsdc">   9845.50957186 </i>
    <i name="pawaedc">  -9989.78633869 </i>
    <i name="eentropy">     -0.00000000 </i>
    <i name="bandstr">  -2697.93438142 </i>
    <i name="atom">  12703.13999606 </i>
    <i name="e_fr_energy">   -258.28772106 </i>
    <i name="e_wo_entrp">   -258.28772106 </i>
    <i name="e_0_energy">   -258.28772106 </i>
   </energy>
  </scstep>
  <structure>
   <crystal>
    <varray name="basis" >
     <v>       9.79014111       0.00000000       0.00000000 </v>
     <v>       0.00000000       9.79014111       0.00000000 </v>
     <v>       0.00000000       0.00000000       9.79014111 </v>
    </varray>
    <i name="volume">    938.35431466 </i>
    <varray name="rec_basis" >
     <v>       0.10214357       0.00000000       0.00000000 </v>
     <v>       0.00000000       0.10214357       0.00000000 </v>
     <v>       0.00000000       0.00000000       0.10214357 </v>
    </varray>
   </crystal>
   <varray name="positions" >
    <v>       0.97564611       0.25000000       0.25000000 </v>
    <v>       0.98821946       0.75000000       0.75000000 </v>
    <v>       0.01178054       0.25000000       0.75000000 </v>
    <v>       0.02435389       0.75000000       0.25000000 </v>
    <v>       0.18293761       0.18163935       0.97207424 </v>
    <v>       0.31706339       0.68163392       0.02792707 </v>
    <v>       0.68293661       0.31836608       0.02792707 </v>
    <v>       0.81706239       0.81836065       0.97207424 </v>
    <v>       0.19631924       0.96970514       0.18577563 </v>
    <v>       0.30367860       0.03029249       0.68578200 </v>
    <v>       0.69632140       0.96970751       0.68578200 </v>
    <v>       0.80368076       0.03029486       0.18577563 </v>
    <v>       0.31706339       0.81836608       0.47207293 </v>
    <v>       0.18293761       0.31836065       0.52792576 </v>
    <v>       0.81706239       0.68163935       0.52792576 </v>
    <v>       0.68293661       0.18163392       0.47207293 </v>
    <v>       0.30367860       0.46970751       0.81421800 </v>
    <v>       0.19631924       0.53029486       0.31422437 </v>
    <v>       0.80368076       0.46970514       0.31422437 </v>
    <v>       0.69632140       0.53029249       0.81421800 </v>
    <v>       0.47564543       0.25000000       0.75000000 </v>
    <v>       0.48821809       0.75000000       0.25000000 </v>
    <v>       0.51178191       0.25000000       0.25000000 </v>
    <v>       0.52435457       0.75000000       0.75000000 </v>
    <v>       0.50000000       0.50000000       0.50570009 </v>
    <v>       0.50000000       0.00000000       0.99429991 </v>
    <v>       0.00000000       0.50000000       0.00570218 </v>
    <v>       0.00000000       0.00000000       0.49429782 </v>
    <v>       0.12490961       0.87983501       0.61220581 </v>
    <v>       0.12893329       0.11842012       0.37939026 </v>
    <v>       0.87106671       0.88157988       0.37939026 </v>
    <v>       0.87509039       0.12016499       0.61220581 </v>
    <v>       0.87106671       0.61842012       0.12060974 </v>
    <v>       0.87509039       0.37983501       0.88779419 </v>
    <v>       0.12490961       0.62016499       0.88779419 </v>
    <v>       0.12893329       0.38157988       0.12060974 </v>
    <v>       0.62893289       0.11842201       0.87939244 </v>
    <v>       0.62490975       0.87983610       0.11220718 </v>
    <v>       0.37509025       0.12016390       0.11220718 </v>
    <v>       0.37106711       0.88157799       0.87939244 </v>
    <v>       0.62490975       0.62016390       0.38779282 </v>
    <v>       0.62893289       0.38157799       0.62060756 </v>
    <v>       0.37106711       0.61842201       0.62060756 </v>
    <v>       0.37509025       0.37983610       0.38779282 </v>
    <v>       0.75819988       0.75000000       0.75000000 </v>
    <v>       0.74180069       0.25000000       0.25000000 </v>
    <v>       0.25819931       0.75000000       0.25000000 </v>
    <v>       0.24180012       0.25000000       0.75000000 </v>
    <v>       0.00000000       0.00000000       0.03571060 </v>
    <v>       0.00000000       0.50000000       0.46428940 </v>
    <v>       0.50000000       0.00000000       0.53571813 </v>
    <v>       0.50000000       0.50000000       0.96428187 </v>
   </varray>
  </structure>
  <varray name="forces" >
   <v>       0.00041702       0.00000000       0.00000000 </v>
   <v>       0.00212428       0.00000000       0.00000000 </v>
   <v>      -0.00212428       0.00000000       0.00000000 </v>
   <v>      -0.00041702       0.00000000       0.00000000 </v>
   <v>      -0.00518424      -0.00239960       0.00229001 </v>
   <v>       0.00518424      -0.00239960      -0.00229001 </v>
   <v>      -0.00518424       0.00239960      -0.00229001 </v>
   <v>       0.00518424       0.00239960       0.00229001 </v>
   <v>      -0.00181203       0.00178381      -0.00180348 </v>
   <v>       0.00181203      -0.00178381      -0.00180348 </v>
   <v>      -0.00181203       0.00178381      -0.00180348 </v>
   <v>       0.00181203      -0.00178381      -0.00180348 </v>
   <v>       0.00518424       0.00239960       0.00229001 </v>
   <v>      -0.00518424       0.00239960      -0.00229001 </v>
   <v>       0.00518424      -0.00239960      -0.00229001 </v>
   <v>      -0.00518424      -0.00239960       0.00229001 </v>
   <v>       0.00181203       0.00178381       0.00180348 </v>
   <v>      -0.00181203      -0.00178381       0.00180348 </v>
   <v>       0.00181203       0.00178381       0.00180348 </v>
   <v>      -0.00181203      -0.00178381       0.00180348 </v>
   <v>       0.00041702       0.00000000       0.00000000 </v>
   <v>       0.00212428       0.00000000       0.00000000 </v>
   <v>      -0.00212428       0.00000000       0.00000000 </v>
   <v>      -0.00041702       0.00000000       0.00000000 </v>
   <v>       0.00000000       0.00000000       0.01516830 </v>
   <v>       0.00000000       0.00000000      -0.01516830 </v>
   <v>      -0.00000000       0.00000000       0.01516830 </v>
   <v>       0.00000000       0.00000000      -0.01516830 </v>
   <v>       0.02502592      -0.02752978       0.02562166 </v>
   <v>       0.03463913       0.02500965      -0.02436377 </v>
   <v>      -0.03463913      -0.02500965      -0.02436377 </v>
   <v>      -0.02502592       0.02752978       0.02562166 </v>
   <v>      -0.03463913       0.02500965       0.02436377 </v>
   <v>      -0.02502592      -0.02752978      -0.02562166 </v>
   <v>       0.02502592       0.02752978      -0.02562166 </v>
   <v>       0.03463913      -0.02500965       0.02436377 </v>
   <v>       0.03463913       0.02500965      -0.02436377 </v>
   <v>       0.02502592      -0.02752978       0.02562166 </v>
   <v>      -0.02502592       0.02752978       0.02562166 </v>
   <v>      -0.03463913      -0.02500965      -0.02436377 </v>
   <v>       0.02502592       0.02752978      -0.02562166 </v>
   <v>       0.03463913      -0.02500965       0.02436377 </v>
   <v>      -0.03463913       0.02500965       0.02436377 </v>
   <v>      -0.02502592      -0.02752978      -0.02562166 </v>
   <v>       0.00003353       0.00000000       0.00000000 </v>
   <v>      -0.00003353       0.00000000       0.00000000 </v>
   <v>       0.00003353       0.00000000       0.00000000 </v>
   <v>      -0.00003353       0.00000000       0.00000000 </v>
   <v>       0.00000000       0.00000000      -0.00875644 </v>
   <v>       0.00000000       0.00000000       0.00875644 </v>
   <v>       0.00000000       0.00000000      -0.00875644 </v>
   <v>       0.00000000       0.00000000       0.00875644 </v>
  </varray>
  <varray name="stress" >
   <v>      -7.48400871       0.00000000       0.00000000 </v>
   <v>       0.00000000      -0.17393254       0.00000000 </v>
   <v>       0.00000000       0.00000000       7.33515293 </v>
  </varray>
  <energy>
   <i name="e_fr_energy">   -271.28392793 </i>
   <i name="e_wo_entrp">   -271.28392793 </i>
   <i name="e_0_energy">   -271.28392793 </i>
  </energy>
  <time name="totalsc">   28.08   29.42</time>
 </calculation>
 <calculation>
  <scstep>
   <time name="dav">    0.67    0.69</time>
   <time name="total">    1.29    1.33</time>
   <energy>
    <i name="alphaZ">    289.29104863 </i>
    <i name="ewald">  -8584.07959683 </i>
    <i name="hartreedc">  -2361.88663653 </i>
    <i name="XCdc">    537.17183447 </i>
    <i name="pawpsdc">   9845.49750374 </i>
    <i name="pawaedc">  -9989.77432163 </i>
    <i name="eentropy">     -0.00000000 </i>
    <i name="bandstr">  -2697.64796258 </i>
    <i name="atom">  12703.13999606 </i>
    <i name="e_fr_energy">   -258.28813465 </i>
    <i name="e_wo_entrp">   -258.28813465 </i>
    <i name="e_0_energy">   -258.28813465 </i>
   </energy>
  </scstep>
  <scstep>
   <time name="diag">    0.10    0.10</time>
   <time name="diis">    0.41    0.41</time>
   <time name="orth">    0.02    0.02</time>
   <time name="total">    1.14    1.19</time>
   <energy>
    <i name="e_fr_energy">   -258.28818164 </i>
    <i name="e_wo_entrp">   -258.28818164 </i>
    <i name="e_0_energy">   -258.28818164 </i>
   </energy>
  </scstep>
  <scstep>
   <time name="diag">    0.10    0.10</time>
   <time name="diis">    0.46    0.46</time>
   <time name="orth">    0.02    0.02</time>
   <time name="total">    1.19    1.23</time>
   <energy>
    <i name="e_fr_energy">   -258.28820942 </i>
    <i name="e_wo_entrp">   -258.28820942 </i>
    <i name="e_0_energy">   -258.28820942 </i>
   </energy>
  </scstep>
  <scstep>
   <time name="diag">    0.15    0.16</time>
   <time name="diis">    0.66    0.68</time>
   <time name="orth">    0.02    0.02</time>
   <time name="total">    1.44    1.49</time>
   <energy>
    <i name="e_fr_energy">   -258.28821577 </i>
    <i name="e_wo_entrp">   -258.28821577 </i>
    <i name="e_0_energy">   -258.28821577 </i>
   </energy>
  </scstep>
  <scstep>
   <time name="diag">    0.10    0.10</time>
   <time name="diis">    0.40    0.40</time>
   <time name="orth">    0.02    0.02</time>
   <time name="total">    0.99    1.00</time>
   <energy>
    <i name="alphaZ">    289.29104863 </i>
    <i name="ewald">  -8584.07959683 </i>
    <i name="hartreedc">  -2361.77836536 </i>
    <i name="XCdc">    537.16668827 </i>
    <i name="pawpsdc">   9843.73941754 </i>
    <i name="pawaedc">  -9988.00924091 </i>
    <i name="eentropy">     -0.00000000 </i>
    <i name="bandstr">  -2697.75816343 </i>
    <i name="atom">  12703.13999606 </i>
    <i name="e_fr_energy">   -258.28821602 </i>
    <i name="e_wo_entrp">   -258.28821602 </i>
    <i name="e_0_energy">   -258.28821602 </i>
   </energy>
  </scstep>
  <structure>
   <crystal>
    <varray name="basis" >
     <v>       9.79014111       0.00000000       0.00000000 </v>
     <v>       0.00000000       9.79014111       0.00000000 </v>
     <v>       0.00000000       0.00000000       9.79014111 </v>
    </varray>
    <i name="volume">    938.35431466 </i>
    <varray name="rec_basis" >
     <v>       0.10214357       0.00000000       0.00000000 </v>
     <v>       0.00000000       0.10214357       0.00000000 </v>
     <v>       0.00000000       0.00000000       0.10214357 </v>
    </varray>
   </crystal>
   <varray name="positions" >
    <v>       0.97564693       0.25000000       0.25000000 </v>
    <v>       0.98822365       0.75000000       0.75000000 </v>
    <v>       0.01177635       0.25000000       0.75000000 </v>
    <v>       0.02435307       0.75000000       0.25000000 </v>
    <v>       0.18292740       0.18163462       0.97207875 </v>
    <v>       0.31707361       0.68162919       0.02792255 </v>
    <v>       0.68292639       0.31837081       0.02792255 </v>
    <v>       0.81707260       0.81836538       0.97207875 </v>
    <v>       0.19631567       0.96970866       0.18577208 </v>
    <v>       0.30368217       0.03028898       0.68577844 </v>
    <v>       0.69631783       0.96971102       0.68577844 </v>
    <v>       0.80368433       0.03029134       0.18577208 </v>
    <v>       0.31707361       0.81837081       0.47207745 </v>
    <v>       0.18292740       0.31836538       0.52792125 </v>
    <v>       0.81707260       0.68163462       0.52792125 </v>
    <v>       0.68292639       0.18162919       0.47207745 </v>
    <v>       0.30368217       0.46971102       0.81422156 </v>
    <v>       0.19631567       0.53029134       0.31422792 </v>
    <v>       0.80368433       0.46970866       0.31422792 </v>
    <v>       0.69631783       0.53028898       0.81422156 </v>
    <v>       0.47564625       0.25000000       0.75000000 </v>
    <v>       0.48822227       0.75000000       0.25000000 </v>
    <v>       0.51177773       0.25000000       0.25000000 </v>
    <v>       0.52435375       0.75000000       0.75000000 </v>
    <v>       0.50000000       0.50000000       0.50572999 </v>
    <v>       0.50000000       0.00000000       0.99427001 </v>
    <v>      -0.00000000       0.50000000       0.00573208 </v>
    <v>       0.00000000       0.00000000       0.49426792 </v>
    <v>       0.12495894       0.87978075       0.61225631 </v>
    <v>       0.12900156       0.11846941       0.37934224 </v>
    <v>       0.87099844       0.88153059       0.37934224 </v>
    <v>       0.87504106       0.12021925       0.61225631 </v>
    <v>       0.87099844       0.61846941       0.12065776 </v>
    <v>       0.87504106       0.37978075       0.88774369 </v>
    <v>       0.12495894       0.62021925       0.88774369 </v>
    <v>       0.12900156       0.38153059       0.12065776 </v>
    <v>       0.62900117       0.11847131       0.87934442 </v>
    <v>       0.62495908       0.87978184       0.11225768 </v>
    <v>       0.37504092       0.12021816       0.11225768 </v>
    <v>       0.37099883       0.88152869       0.87934442 </v>
    <v>       0.62495908       0.62021816       0.38774232 </v>
    <v>       0.62900117       0.38152869       0.62065558 </v>
    <v>       0.37099883       0.61847131       0.62065558 </v>
    <v>       0.37504092       0.37978184       0.38774232 </v>
    <v>       0.75819995       0.75000000       0.75000000 </v>
    <v>       0.74180062       0.25000000       0.25000000 </v>
    <v>       0.25819938       0.75000000       0.25000000 </v>
    <v>       0.24180005       0.25000000       0.75000000 </v>
    <v>       0.00000000       0.00000000       0.03569334 </v>
    <v>       0.00000000       0.50000000       0.46430666 </v>
    <v>       0.50000000       0.00000000       0.53570087 </v>
    <v>       0.50000000       0.50000000       0.96429913 </v>
   </varray>
  </structure>
  <varray name="forces" >
   <v>       0.00010594      -0.00000000       0.00000000 </v>
   <v>       0.00044080      -0.00000000       0.00000000 </v>
   <v>      -0.00044080      -0.00000000       0.00000000 </v>
   <v>      -0.00010594      -0.00000000       0.00000000 </v>
   <v>      -0.00493368      -0.00249581       0.00163898 </v>
   <v>       0.00493368      -0.00249581      -0.00163898 </v>
   <v>      -0.00493368       0.00249581      -0.00163898 </v>
   <v>       0.00493368       0.00249581       0.00163898 </v>
   <v>      -0.00162226       0.00131359      -0.00201586 </v>
   <v>       0.00162226      -0.00131359      -0.00201586 </v>
   <v>      -0.00162226       0.00131359      -0.00201586 </v>
   <v>       0.00162226      -0.00131359      -0.00201586 </v>
   <v>       0.00493368       0.00249581       0.00163898 </v>
   <v>      -0.00493368       0.00249581      -0.00163898 </v>
   <v>       0.00493368      -0.00249581      -0.00163898 </v>
   <v>      -0.00493368      -0.00249581       0.00163898 </v>
   <v>       0.00162226       0.00131359       0.00201586 </v>
   <v>      -0.00162226      -0.00131359       0.00201586 </v>
   <v>       0.00162226       0.00131359       0.00201586 </v>
   <v>      -0.00162226      -0.00131359       0.00201586 </v>
   <v>       0.00010594      -0.00000000       0.00000000 </v>
   <v>       0.00044080      -0.00000000       0.00000000 </v>
   <v>      -0.00044080      -0.00000000       0.00000000 </v>
   <v>      -0.00010594      -0.00000000       0.00000000 </v>
   <v>       0.00000000      -0.00000000       0.00848269 </v>
   <v>       0.00000000      -0.00000000      -0.00848269 </v>
   <v>       0.00000000      -0.00000000       0.00848269 </v>
   <v>       0.00000000      -0.00000000      -0.00848269 </v>
   <v>       0.01384902      -0.01561554       0.01322174 </v>
   <v>       0.02372339       0.01452371      -0.01486820 </v>
   <v>      -0.02372339      -0.01452371      -0.01486820 </v>
   <v>      -0.01384902       0.01561554       0.01322174 </v>
   <v>      -0.02372339       0.01452371       0.01486820 </v>
   <v>      -0.01384902      -0.01561554      -0.01322174 </v>
   <v>       0.01384902       0.01561554      -0.01322174 </v>
   <v>       0.02372339      -0.01452371       0.01486820 </v>
   <v>       0.02372339       0.01452371      -0.01486820 </v>
   <v>       0.01384902      -0.01561554       0.01322174 </v>
   <v>      -0.01384902       0.01561554       0.01322174 </v>
   <v>      -0.02372339      -0.01452371      -0.01486820 </v>
   <v>       0.01384902       0.01561554      -0.01322174 </v>
   <v>       0.02372339      -0.01452371       0.01486820 </v>
   <v>      -0.02372339       0.01452371       0.01486820 </v>
   <v>      -0.01384902      -0.01561554      -0.01322174 </v>
   <v>      -0.00011140      -0.00000000       0.00000000 </v>
   <v>       0.00011140      -0.00000000       0.00000000 </v>
   <v>      -0.00011140      -0.00000000       0.00000000 </v>
   <v>       0.00011140      -0.00000000       0.00000000 </v>
   <v>       0.00000000      -0.00000000      -0.00709830 </v>
   <v>       0.00000000      -0.00000000       0.00709830 </v>
   <v>       0.00000000      -0.00000000      -0.00709830 </v>
   <v>       0.00000000      -0.00000000       0.00709830 </v>
  </varray>
  <varray name="stress" >
   <v>      -7.78777458       0.00000000       0.00000000 </v>
   <v>       0.00000000      -0.44840333       0.00000000 </v>
   <v>       0.00000000       0.00000000       7.06654424 </v>
  </varray>
  <energy>
   <i name="e_fr_energy">   -271.28449995 </i>
   <i name="e_wo_entrp">   -271.28449995 </i>
   <i name="e_0_energy">   -271.28449995 </i>
  </energy>
  <time name="totalsc">    8.13    8.35</time>
 </calculation>
 <calculation>
  <scstep>
   <time name="dav">    0.72    0.72</time>
   <time name="total">    1.35    1.40</time>
   <energy>
    <i name="alphaZ">    289.29104863 </i>
    <i name="ewald">  -8586.55971259 </i>
    <i name="hartreedc">  -2359.82858130 </i>
    <i name="XCdc">    537.11166218 </i>
    <i name="pawpsdc">   9843.63590363 </i>
    <i name="pawaedc">  -9987.90453618 </i>
    <i name="eentropy">     -0.00000000 </i>
    <i name="bandstr">  -2697.17376918 </i>
    <i name="atom">  12703.13999606 </i>
    <i name="e_fr_energy">   -258.28798874 </i>
    <i name="e_wo_entrp">   -258.28798874 </i>
    <i name="e_0_energy">   -258.28798874 </i>
   </energy>
  </scstep>
  <scstep>
   <time name="diag">    0.10    0.10</time>
   <time name="diis">    0.41    0.41</time>
   <time name="orth">    0.02    0.02</time>
   <time name="total">    1.13    1.16</time>
   <energy>
    <i name="e_fr_energy">   -258.28821605 </i>
    <i name="e_wo_entrp">   -258.28821605 </i>
    <i name="e_0_energy">   -258.28821605 </i>
   </energy>
  </scstep>
  <scstep>
   <time name="diag">    0.10    0.10</time>
   <time name="diis">    0.47    0.47</time>
   <time name="orth">    0.02    0.02</time>
   <time name="total">    1.19    1.20</time>
   <energy>
    <i name="e_fr_energy">   -258.28833979 </i>
    <i name="e_wo_entrp">   -258.28833979 </i>
    <i name="e_0_energy">   -258.28833979 </i>
   </energy>
  </scstep>
  <scstep>
   <time name="diag">    0.10    0.10</time>
   <time name="diis">    0.51    0.52</time>
   <time name="orth">    0.02    0.02</time>
   <time name="total">    1.23    1.25</time>
   <energy>
    <i name="e_fr_energy">   -258.28836382 </i>
    <i name="e_wo_entrp">   -258.28836382 </i>
    <i name="e_0_energy">   -258.28836382 </i>
   </energy>
  </scstep>
  <scstep>
   <time name="diag">    0.10    0.10</time>
   <time name="diis">    0.48    0.49</time>
   <time name="orth">    0.02    0.02</time>
   <time name="total">    1.19    1.21</time>
   <energy>
    <i name="e_fr_energy">   -258.28836401 </i>
    <i name="e_wo_entrp">   -258.28836401 </i>
    <i name="e_0_energy">   -258.28836401 </i>
   </energy>
  </scstep>
  <scstep>
   <time name="diag">    0.10    0.10</time>
   <time name="diis">    0.40    0.41</time>
   <time name="orth">    0.02    0.02</time>
   <time name="total">    1.11    1.14</time>
   <energy>
    <i name="e_fr_energy">   -258.28836520 </i>
    <i name="e_wo_entrp">   -258.28836520 </i>
    <i name="e_0_energy">   -258.28836520 </i>
   </energy>
  </scstep>
  <scstep>
   <time name="diag">    0.10    0.10</time>
   <time name="diis">    0.32    0.32</time>
   <time name="orth">    0.02    0.02</time>
   <time name="total">    0.91    0.91</time>
   <energy>
    <i name="alphaZ">    289.29104863 </i>
    <i name="ewald">  -8586.55971259 </i>
    <i name="hartreedc">  -2359.60091039 </i>
    <i name="XCdc">    537.10094190 </i>
    <i name="pawpsdc">   9839.80308582 </i>
    <i name="pawaedc">  -9984.05581325 </i>
    <i name="eentropy">     -0.00000000 </i>
    <i name="bandstr">  -2697.40700140 </i>
    <i name="atom">  12703.13999606 </i>
    <i name="e_fr_energy">   -258.28836521 </i>
    <i name="e_wo_entrp">   -258.28836521 </i>
    <i name="e_0_energy">   -258.28836521 </i>
   </energy>
  </scstep>
  <structure>
   <crystal>
    <varray name="basis" >
     <v>       9.79014111       0.00000000       0.00000000 </v>
     <v>       0.00000000       9.79014111       0.00000000 </v>
     <v>       0.00000000       0.00000000       9.79014111 </v>
    </varray>
    <i name="volume">    938.35431466 </i>
    <varray name="rec_basis" >
     <v>       0.10214357       0.00000000       0.00000000 </v>
     <v>       0.00000000       0.10214357       0.00000000 </v>
     <v>       0.00000000       0.00000000       0.10214357 </v>
    </varray>
   </crystal>
   <varray name="positions" >
    <v>       0.97564863       0.25000000       0.25000000 </v>
    <v>       0.98823230       0.75000000       0.75000000 </v>
    <v>       0.01176770       0.25000000       0.75000000 </v>
    <v>       0.02435137       0.75000000       0.25000000 </v>
    <v>       0.18290629       0.18162485       0.97208808 </v>
    <v>       0.31709472       0.68161942       0.02791323 </v>
    <v>       0.68290528       0.31838058       0.02791323 </v>
    <v>       0.81709371       0.81837515       0.97208808 </v>
    <v>       0.19630829       0.96971592       0.18576473 </v>
    <v>       0.30368955       0.03028171       0.68577110 </v>
    <v>       0.69631045       0.96971829       0.68577110 </v>
    <v>       0.80369171       0.03028408       0.18576473 </v>
    <v>       0.31709472       0.81838058       0.47208677 </v>
    <v>       0.18290629       0.31837515       0.52791192 </v>
    <v>       0.81709371       0.68162485       0.52791192 </v>
    <v>       0.68290528       0.18161942       0.47208677 </v>
    <v>       0.30368955       0.46971829       0.81422890 </v>
    <v>       0.19630829       0.53028408       0.31423527 </v>
    <v>       0.80369171       0.46971592       0.31423527 </v>
    <v>       0.69631045       0.53028171       0.81422890 </v>
    <v>       0.47564795       0.25000000       0.75000000 </v>
    <v>       0.48823092       0.75000000       0.25000000 </v>
    <v>       0.51176908       0.25000000       0.25000000 </v>
    <v>       0.52435205       0.75000000       0.75000000 </v>
    <v>       0.50000000       0.50000000       0.50579176 </v>
    <v>       0.50000000       0.00000000       0.99420824 </v>
    <v>      -0.00000000       0.50000000       0.00579385 </v>
    <v>       0.00000000       0.00000000       0.49420615 </v>
    <v>       0.12506085       0.87966865       0.61236064 </v>
    <v>       0.12914262       0.11857125       0.37924303 </v>
    <v>       0.87085738       0.88142875       0.37924303 </v>
    <v>       0.87493915       0.12033135       0.61236064 </v>
    <v>       0.87085738       0.61857125       0.12075697 </v>
    <v>       0.87493915       0.37966865       0.88763936 </v>
    <v>       0.12506085       0.62033135       0.88763936 </v>
    <v>       0.12914262       0.38142875       0.12075697 </v>
    <v>       0.62914222       0.11857315       0.87924521 </v>
    <v>       0.62506098       0.87966973       0.11236201 </v>
    <v>       0.37493902       0.12033027       0.11236201 </v>
    <v>       0.37085778       0.88142685       0.87924521 </v>
    <v>       0.62506098       0.62033027       0.38763799 </v>
    <v>       0.62914222       0.38142685       0.62075479 </v>
    <v>       0.37085778       0.61857315       0.62075479 </v>
    <v>       0.37493902       0.37966973       0.38763799 </v>
    <v>       0.75820008       0.75000000       0.75000000 </v>
    <v>       0.74180049       0.25000000       0.25000000 </v>
    <v>       0.25819951       0.75000000       0.25000000 </v>
    <v>       0.24179992       0.25000000       0.75000000 </v>
    <v>       0.00000000       0.00000000       0.03565768 </v>
    <v>       0.00000000       0.50000000       0.46434232 </v>
    <v>       0.50000000       0.00000000       0.53566521 </v>
    <v>       0.50000000       0.50000000       0.96433479 </v>
   </varray>
  </structure>
  <varray name="forces" >
   <v>      -0.00043681       0.00000000       0.00000000 </v>
   <v>      -0.00246009       0.00000000       0.00000000 </v>
   <v>       0.00246009       0.00000000      -0.00000000 </v>
   <v>       0.00043681       0.00000000       0.00000000 </v>
   <v>      -0.00545467      -0.00310656       0.00072652 </v>
   <v>       0.00545467      -0.00310656      -0.00072652 </v>
   <v>      -0.00545467       0.00310656      -0.00072652 </v>
   <v>       0.00545467       0.00310656       0.00072652 </v>
   <v>      -0.00163321       0.00058124      -0.00279298 </v>
   <v>       0.00163321      -0.00058124      -0.00279298 </v>
   <v>      -0.00163321       0.00058124      -0.00279298 </v>
   <v>       0.00163321      -0.00058124      -0.00279298 </v>
   <v>       0.00545467       0.00310656       0.00072652 </v>
   <v>      -0.00545467       0.00310656      -0.00072652 </v>
   <v>       0.00545467      -0.00310656      -0.00072652 </v>
   <v>      -0.00545467      -0.00310656       0.00072652 </v>
   <v>       0.00163321       0.00058124       0.00279298 </v>
   <v>      -0.00163321      -0.00058124       0.00279298 </v>
   <v>       0.00163321       0.00058124       0.00279298 </v>
   <v>      -0.00163321      -0.00058124       0.00279298 </v>
   <v>      -0.00043681       0.00000000       0.00000000 </v>
   <v>      -0.00246009       0.00000000       0.00000000 </v>
   <v>       0.00246009       0.00000000      -0.00000000 </v>
   <v>       0.00043681       0.00000000       0.00000000 </v>
   <v>       0.00000000       0.00000000      -0.00195267 </v>
   <v>       0.00000000       0.00000000       0.00195267 </v>
   <v>       0.00000000       0.00000000      -0.00195267 </v>
   <v>       0.00000000       0.00000000       0.00195267 </v>
   <v>      -0.00870158       0.00827314      -0.01179541 </v>
   <v>       0.00233846      -0.00643656       0.00409985 </v>
   <v>      -0.00233846       0.00643656       0.00409985 </v>
   <v>       0.00870158      -0.00827314      -0.01179541 </v>
   <v>      -0.00233846      -0.00643656      -0.00409985 </v>
   <v>       0.00870158       0.00827314       0.01179541 </v>
   <v>      -0.00870158      -0.00827314       0.01179541 </v>
   <v>       0.00233846       0.00643656      -0.00409985 </v>
   <v>       0.00233846      -0.00643656       0.00409985 </v>
   <v>      -0.00870158       0.00827314      -0.01179541 </v>
   <v>       0.00870158      -0.00827314      -0.01179541 </v>
   <v>      -0.00233846       0.00643656       0.00409985 </v>
   <v>      -0.00870158      -0.00827314       0.01179541 </v>
   <v>       0.00233846       0.00643656      -0.00409985 </v>
   <v>      -0.00233846      -0.00643656      -0.00409985 </v>
   <v>       0.00870158       0.00827314       0.01179541 </v>
   <v>      -0.00037752       0.00000000       0.00000000 </v>
   <v>       0.00037752       0.00000000       0.00000000 </v>
   <v>      -0.00037752       0.00000000       0.00000000 </v>
   <v>       0.00037752       0.00000000       0.00000000 </v>
   <v>       0.00000000       0.00000000      -0.00670201 </v>
   <v>       0.00000000       0.00000000       0.00670201 </v>
   <v>       0.00000000       0.00000000      -0.00670201 </v>
   <v>       0.00000000       0.00000000       0.00670201 </v>
  </varray>
  <varray name="stress" >
   <v>      -8.39532584       0.00000000       0.00000000 </v>
   <v>       0.00000000      -0.99630761       0.00000000 </v>
   <v>       0.00000000       0.00000000       6.50459839 </v>
  </varray>
  <energy>
   <i name="e_fr_energy">   -271.28480572 </i>
   <i name="e_wo_entrp">   -271.28480572 </i>
   <i name="e_0_energy">   -271.28480572 </i>
  </energy>
  <time name="totalsc">   10.19   10.41</time>
 </calculation>
 <calculation>
  <scstep>
   <time name="dav">    0.68    0.68</time>
   <time name="total">    1.28    1.30</time>
   <energy>
    <i name="alphaZ">    289.29104863 </i>
    <i name="ewald">  -8585.97396370 </i>
    <i name="hartreedc">  -2360.05971848 </i>
    <i name="XCdc">    537.11349025 </i>
    <i name="pawpsdc">   9839.72966036 </i>
    <i name="pawaedc">  -9983.98177705 </i>
    <i name="eentropy">     -0.00000000 </i>
    <i name="bandstr">  -2697.54714869 </i>
    <i name="atom">  12703.13999606 </i>
    <i name="e_fr_energy">   -258.28841263 </i>
    <i name="e_wo_entrp">   -258.28841263 </i>
    <i name="e_0_energy">   -258.28841263 </i>
   </energy>
  </scstep>
  <scstep>
   <time name="diag">    0.10    0.10</time>
   <time name="diis">    0.40    0.40</time>
   <time name="orth">    0.02    0.02</time>
   <time name="total">    1.11    1.13</time>
   <energy>
    <i name="e_fr_energy">   -258.28842830 </i>
    <i name="e_wo_entrp">   -258.28842830 </i>
    <i name="e_0_energy">   -258.28842830 </i>
   </energy>
  </scstep>
  <scstep>
   <time name="diag">    0.10    0.10</time>
   <time name="diis">    0.44    0.45</time>
   <time name="orth">    0.02    0.02</time>
   <time name="total">    1.15    1.16</time>
   <energy>
    <i name="e_fr_energy">   -258.28843655 </i>
    <i name="e_wo_entrp">   -258.28843655 </i>
    <i name="e_0_energy">   -258.28843655 </i>
   </energy>
  </scstep>
  <scstep>
   <time name="diag">    0.10    0.10</time>
   <time name="diis">    0.41    0.41</time>
   <time name="orth">    0.02    0.02</time>
   <time name="total">    1.12    1.13</time>
   <energy>
    <i name="e_fr_energy">   -258.28843728 </i>
    <i name="e_wo_entrp">   -258.28843728 </i>
    <i name="e_0_energy">   -258.28843728 </i>
   </energy>
  </scstep>
  <scstep>
   <time name="diag">    0.09    0.10</time>
   <time name="diis">    0.28    0.28</time>
   <time name="orth">    0.02    0.02</time>
   <time name="total">    0.86    0.87</time>
   <energy>
    <i name="alphaZ">    289.29104863 </i>
    <i name="ewald">  -8585.97396370 </i>
    <i name="hartreedc">  -2360.11294878 </i>
    <i name="XCdc">    537.11539454 </i>
    <i name="pawpsdc">   9840.49539030 </i>
    <i name="pawaedc">  -9984.74970766 </i>
    <i name="eentropy">     -0.00000000 </i>
    <i name="bandstr">  -2697.49364641 </i>
    <i name="atom">  12703.13999606 </i>
    <i name="e_fr_energy">   -258.28843701 </i>
    <i name="e_wo_entrp">   -258.28843701 </i>
    <i name="e_0_energy">   -258.28843701 </i>
   </energy>
  </scstep>
  <structure>
   <crystal>
    <varray name="basis" >
     <v>       9.79014111       0.00000000       0.00000000 </v>
     <v>       0.00000000       9.79014111       0.00000000 </v>
     <v>       0.00000000       0.00000000       9.79014111 </v>
    </varray>
    <i name="volume">    938.35431466 </i>
    <varray name="rec_basis" >
     <v>       0.10214357       0.00000000       0.00000000 </v>
     <v>       0.00000000       0.10214357       0.00000000 </v>
     <v>       0.00000000       0.00000000       0.10214357 </v>
    </varray>
   </crystal>
   <varray name="positions" >
    <v>       0.97564823       0.25000000       0.25000000 </v>
    <v>       0.98823025       0.75000000       0.75000000 </v>
    <v>       0.01176975       0.25000000       0.75000000 </v>
    <v>       0.02435177       0.75000000       0.25000000 </v>
    <v>       0.18291128       0.18162716       0.97208587 </v>
    <v>       0.31708972       0.68162174       0.02791544 </v>
    <v>       0.68291028       0.31837826       0.02791544 </v>
    <v>       0.81708872       0.81837284       0.97208587 </v>
    <v>       0.19631004       0.96971420       0.18576647 </v>
    <v>       0.30368780       0.03028343       0.68577284 </v>
    <v>       0.69631220       0.96971657       0.68577284 </v>
    <v>       0.80368996       0.03028580       0.18576647 </v>
    <v>       0.31708972       0.81837826       0.47208456 </v>
    <v>       0.18291128       0.31837284       0.52791413 </v>
    <v>       0.81708872       0.68162716       0.52791413 </v>
    <v>       0.68291028       0.18162174       0.47208456 </v>
    <v>       0.30368780       0.46971657       0.81422716 </v>
    <v>       0.19631004       0.53028580       0.31423353 </v>
    <v>       0.80368996       0.46971420       0.31423353 </v>
    <v>       0.69631220       0.53028343       0.81422716 </v>
    <v>       0.47564755       0.25000000       0.75000000 </v>
    <v>       0.48822888       0.75000000       0.25000000 </v>
    <v>       0.51177112       0.25000000       0.25000000 </v>
    <v>       0.52435245       0.75000000       0.75000000 </v>
    <v>       0.50000000       0.50000000       0.50577713 </v>
    <v>       0.50000000       0.00000000       0.99422287 </v>
    <v>      -0.00000000       0.50000000       0.00577922 </v>
    <v>       0.00000000       0.00000000       0.49422078 </v>
    <v>       0.12503672       0.87969519       0.61233594 </v>
    <v>       0.12910922       0.11854714       0.37926651 </v>
    <v>       0.87089078       0.88145286       0.37926651 </v>
    <v>       0.87496328       0.12030481       0.61233594 </v>
    <v>       0.87089078       0.61854714       0.12073349 </v>
    <v>       0.87496328       0.37969519       0.88766406 </v>
    <v>       0.12503672       0.62030481       0.88766406 </v>
    <v>       0.12910922       0.38145286       0.12073349 </v>
    <v>       0.62910882       0.11854904       0.87926870 </v>
    <v>       0.62503686       0.87969627       0.11233731 </v>
    <v>       0.37496314       0.12030373       0.11233731 </v>
    <v>       0.37089118       0.88145096       0.87926870 </v>
    <v>       0.62503686       0.62030373       0.38766269 </v>
    <v>       0.62910882       0.38145096       0.62073130 </v>
    <v>       0.37089118       0.61854904       0.62073130 </v>
    <v>       0.37496314       0.37969627       0.38766269 </v>
    <v>       0.75820005       0.75000000       0.75000000 </v>
    <v>       0.74180052       0.25000000       0.25000000 </v>
    <v>       0.25819948       0.75000000       0.25000000 </v>
    <v>       0.24179995       0.25000000       0.75000000 </v>
    <v>       0.00000000       0.00000000       0.03566612 </v>
    <v>       0.00000000       0.50000000       0.46433388 </v>
    <v>       0.50000000       0.00000000       0.53567366 </v>
    <v>       0.50000000       0.50000000       0.96432634 </v>
   </varray>
  </structure>
  <varray name="forces" >
   <v>      -0.00023529       0.00000000       0.00000000 </v>
   <v>      -0.00153228       0.00000000       0.00000000 </v>
   <v>       0.00153228       0.00000000       0.00000000 </v>
   <v>       0.00023529       0.00000000       0.00000000 </v>
   <v>      -0.00576381      -0.00312428       0.00109118 </v>
   <v>       0.00576381      -0.00312428      -0.00109118 </v>
   <v>      -0.00576381       0.00312428      -0.00109118 </v>
   <v>       0.00576381       0.00312428       0.00109118 </v>
   <v>      -0.00188409       0.00095073      -0.00282339 </v>
   <v>       0.00188409      -0.00095073      -0.00282339 </v>
   <v>      -0.00188409       0.00095073      -0.00282339 </v>
   <v>       0.00188409      -0.00095073      -0.00282339 </v>
   <v>       0.00576381       0.00312428       0.00109118 </v>
   <v>      -0.00576381       0.00312428      -0.00109118 </v>
   <v>       0.00576381      -0.00312428      -0.00109118 </v>
   <v>      -0.00576381      -0.00312428       0.00109118 </v>
   <v>       0.00188409       0.00095073       0.00282339 </v>
   <v>      -0.00188409      -0.00095073       0.00282339 </v>
   <v>       0.00188409       0.00095073       0.00282339 </v>
   <v>      -0.00188409      -0.00095073       0.00282339 </v>
   <v>      -0.00023529       0.00000000       0.00000000 </v>
   <v>      -0.00153228       0.00000000       0.00000000 </v>
   <v>       0.00153228       0.00000000       0.00000000 </v>
   <v>       0.00023529       0.00000000       0.00000000 </v>
   <v>       0.00000000       0.00000000      -0.00215583 </v>
   <v>       0.00000000       0.00000000       0.00215583 </v>
   <v>       0.00000000       0.00000000      -0.00215583 </v>
   <v>       0.00000000       0.00000000       0.00215583 </v>
   <v>      -0.00309918       0.00226925      -0.00557853 </v>
   <v>       0.00800310      -0.00108605      -0.00078904 </v>
   <v>      -0.00800310       0.00108605      -0.00078904 </v>
   <v>       0.00309918      -0.00226925      -0.00557853 </v>
   <v>      -0.00800310      -0.00108605       0.00078904 </v>
   <v>       0.00309918       0.00226925       0.00557853 </v>
   <v>      -0.00309918      -0.00226925       0.00557853 </v>
   <v>       0.00800310       0.00108605       0.00078904 </v>
   <v>       0.00800310      -0.00108605      -0.00078904 </v>
   <v>      -0.00309918       0.00226925      -0.00557853 </v>
   <v>       0.00309918      -0.00226925      -0.00557853 </v>
   <v>      -0.00800310       0.00108605      -0.00078904 </v>
   <v>      -0.00309918      -0.00226925       0.00557853 </v>
   <v>       0.00800310       0.00108605       0.00078904 </v>
   <v>      -0.00800310      -0.00108605       0.00078904 </v>
   <v>       0.00309918       0.00226925       0.00557853 </v>
   <v>      -0.00035026       0.00000000       0.00000000 </v>
   <v>       0.00035026       0.00000000       0.00000000 </v>
   <v>      -0.00035026       0.00000000       0.00000000 </v>
   <v>       0.00035026       0.00000000       0.00000000 </v>
   <v>       0.00000000       0.00000000      -0.00716469 </v>
   <v>       0.00000000       0.00000000       0.00716469 </v>
   <v>       0.00000000       0.00000000      -0.00716469 </v>
   <v>       0.00000000       0.00000000       0.00716469 </v>
  </varray>
  <varray name="stress" >
   <v>      -8.24636454       0.00000000       0.00000000 </v>
   <v>       0.00000000      -0.86108070       0.00000000 </v>
   <v>       0.00000000       0.00000000       6.66380828 </v>
  </varray>
  <energy>
   <i name="e_fr_energy">   -271.28484080 </i>
   <i name="e_wo_entrp">   -271.28484080 </i>
   <i name="e_0_energy">   -271.28484080 </i>
  </energy>
  <time name="totalsc">    7.61    7.72</time>
 </calculation>
 <calculation>
  <scstep>
   <time name="dav">    0.70    0.70</time>
   <time name="total">    1.29    1.31</time>
   <energy>
    <i name="alphaZ">    289.29104863 </i>
    <i name="ewald">  -8586.00568320 </i>
    <i name="hartreedc">  -2360.08793556 </i>
    <i name="XCdc">    537.11470121 </i>
    <i name="pawpsdc">   9840.52934727 </i>
    <i name="pawaedc">  -9984.78405163 </i>
    <i name="eentropy">     -0.00000000 </i>
    <i name="bandstr">  -2697.48585762 </i>
    <i name="atom">  12703.13999606 </i>
    <i name="e_fr_energy">   -258.28843483 </i>
    <i name="e_wo_entrp">   -258.28843483 </i>
    <i name="e_0_energy">   -258.28843483 </i>
   </energy>
  </scstep>
  <scstep>
   <time name="diag">    0.10    0.10</time>
   <time name="diis">    0.25    0.26</time>
   <time name="orth">    0.02    0.02</time>
   <time name="total">    0.84    0.84</time>
   <energy>
    <i name="alphaZ">    289.29104863 </i>
    <i name="ewald">  -8586.00568320 </i>
    <i name="hartreedc">  -2360.08661967 </i>
    <i name="XCdc">    537.11469313 </i>
    <i name="pawpsdc">   9840.51562724 </i>
    <i name="pawaedc">  -9984.77033989 </i>
    <i name="eentropy">     -0.00000000 </i>
    <i name="bandstr">  -2697.48715708 </i>
    <i name="atom">  12703.13999606 </i>
    <i name="e_fr_energy">   -258.28843479 </i>
    <i name="e_wo_entrp">   -258.28843479 </i>
    <i name="e_0_energy">   -258.28843479 </i>
   </energy>
  </scstep>
  <structure>
   <crystal>
    <varray name="basis" >
     <v>       9.79014111       0.00000000       0.00000000 </v>
     <v>       0.00000000       9.79014111       0.00000000 </v>
     <v>       0.00000000       0.00000000       9.79014111 </v>
    </varray>
    <i name="volume">    938.35431466 </i>
    <varray name="rec_basis" >
     <v>       0.10214357       0.00000000       0.00000000 </v>
     <v>       0.00000000       0.10214357       0.00000000 </v>
     <v>       0.00000000       0.00000000       0.10214357 </v>
    </varray>
   </crystal>
   <varray name="positions" >
    <v>       0.97564825       0.25000000       0.25000000 </v>
    <v>       0.98823036       0.75000000       0.75000000 </v>
    <v>       0.01176964       0.25000000       0.75000000 </v>
    <v>       0.02435175       0.75000000       0.25000000 </v>
    <v>       0.18291101       0.18162703       0.97208599 </v>
    <v>       0.31708999       0.68162161       0.02791532 </v>
    <v>       0.68291001       0.31837839       0.02791532 </v>
    <v>       0.81708899       0.81837297       0.97208599 </v>
    <v>       0.19630995       0.96971429       0.18576638 </v>
    <v>       0.30368789       0.03028334       0.68577274 </v>
    <v>       0.69631211       0.96971666       0.68577274 </v>
    <v>       0.80369005       0.03028571       0.18576638 </v>
    <v>       0.31708999       0.81837839       0.47208468 </v>
    <v>       0.18291101       0.31837297       0.52791401 </v>
    <v>       0.81708899       0.68162703       0.52791401 </v>
    <v>       0.68291001       0.18162161       0.47208468 </v>
    <v>       0.30368789       0.46971666       0.81422726 </v>
    <v>       0.19630995       0.53028571       0.31423362 </v>
    <v>       0.80369005       0.46971429       0.31423362 </v>
    <v>       0.69631211       0.53028334       0.81422726 </v>
    <v>       0.47564757       0.25000000       0.75000000 </v>
    <v>       0.48822899       0.75000000       0.25000000 </v>
    <v>       0.51177101       0.25000000       0.25000000 </v>
    <v>       0.52435243       0.75000000       0.75000000 </v>
    <v>       0.50000000       0.50000000       0.50577792 </v>
    <v>       0.50000000       0.00000000       0.99422208 </v>
    <v>      -0.00000000       0.50000000       0.00578001 </v>
    <v>       0.00000000       0.00000000       0.49421999 </v>
    <v>       0.12503803       0.87969375       0.61233728 </v>
    <v>       0.12911103       0.11854845       0.37926524 </v>
    <v>       0.87088897       0.88145155       0.37926524 </v>
    <v>       0.87496197       0.12030625       0.61233728 </v>
    <v>       0.87088897       0.61854845       0.12073476 </v>
    <v>       0.87496197       0.37969375       0.88766272 </v>
    <v>       0.12503803       0.62030625       0.88766272 </v>
    <v>       0.12911103       0.38145155       0.12073476 </v>
    <v>       0.62911063       0.11855034       0.87926743 </v>
    <v>       0.62503816       0.87969484       0.11233865 </v>
    <v>       0.37496184       0.12030516       0.11233865 </v>
    <v>       0.37088937       0.88144966       0.87926743 </v>
    <v>       0.62503816       0.62030516       0.38766135 </v>
    <v>       0.62911063       0.38144966       0.62073257 </v>
    <v>       0.37088937       0.61855034       0.62073257 </v>
    <v>       0.37496184       0.37969484       0.38766135 </v>
    <v>       0.75820005       0.75000000       0.75000000 </v>
    <v>       0.74180052       0.25000000       0.25000000 </v>
    <v>       0.25819948       0.75000000       0.25000000 </v>
    <v>       0.24179995       0.25000000       0.75000000 </v>
    <v>       0.00000000       0.00000000       0.03566567 </v>
    <v>       0.00000000       0.50000000       0.46433433 </v>
    <v>       0.50000000       0.00000000       0.53567320 </v>
    <v>       0.50000000       0.50000000       0.96432680 </v>
   </varray>
  </structure>
  <varray name="forces" >
[...]
       <r>     7.5218    12.1127   143.9030 </r>
       <r>     7.7138    13.5856   146.5209 </r>
       <r>     7.9058    17.7014   149.9193 </r>
       <r>     8.0977     9.2541   151.7014 </r>
       <r>     8.2897     7.3386   153.1103 </r>
       <r>     8.4817    24.6782   157.8482 </r>
       <r>     8.6737    10.4771   159.8597 </r>
       <r>     8.8657    15.9523   162.9223 </r>
       <r>     9.0577    23.0340   167.3446 </r>
       <r>     9.2497    22.4197   171.6513 </r>
       <r>     9.4417    17.4413   174.9998 </r>
       <r>     9.6336     5.2061   176.0000 </r>
       <r>     9.8256     0.0000   176.0000 </r>
       <r>    10.0176     0.0000   176.0000 </r>
       <r>    10.2096     0.0000   176.0000 </r>
       <r>    10.4016     0.0000   176.0000 </r>
       <r>    10.5936     0.0000   176.0000 </r>
       <r>    10.7856     0.0000   176.0000 </r>
       <r>    10.9776     0.0000   176.0000 </r>
       <r>    11.1695     0.0000   176.0000 </r>
       <r>    11.3615     0.0000   176.0000 </r>
       <r>    11.5535     0.0000   176.0000 </r>
       <r>    11.7455     0.0000   176.0000 </r>
       <r>    11.9375     0.0000   176.0000 </r>
       <r>    12.1295     0.0000   176.0000 </r>
      </set>
      <set comment="spin 2">
       <r>   -45.4666     0.0000     0.0000 </r>
       <r>   -45.2746     0.0000     0.0000 </r>
       <r>   -45.0827     0.0000     0.0000 </r>
       <r>   -44.8907     0.0000     0.0000 </r>
       <r>   -44.6987     0.0000     0.0000 </r>
       <r>   -44.5067     0.0000     0.0000 </r>
       <r>   -44.3147     0.0000     0.0000 </r>
       <r>   -44.1227     0.0000     0.0000 </r>
       <r>   -43.9307     0.0000     0.0000 </r>
       <r>   -43.7387     0.0000     0.0000 </r>
       <r>   -43.5468     0.0000     0.0000 </r>
       <r>   -43.3548     0.0000     0.0000 </r>
       <r>   -43.1628     0.0000     0.0000 </r>
       <r>   -42.9708     0.0000     0.0000 </r>
       <r>   -42.7788    41.6479     7.9959 </r>
       <r>   -42.5868    65.4580    20.5671 </r>
       <r>   -42.3948    17.8804    24.0000 </r>
       <r>   -42.2029     0.0000    24.0000 </r>
       <r>   -42.0109     0.0000    24.0000 </r>
       <r>   -41.8189     0.0000    24.0000 </r>
       <r>   -41.6269     0.0000    24.0000 </r>
       <r>   -41.4349     0.0000    24.0000 </r>
       <r>   -41.2429     0.0000    24.0000 </r>
       <r>   -41.0509     0.0000    24.0000 </r>
       <r>   -40.8589     0.0000    24.0000 </r>
       <r>   -40.6670     0.0000    24.0000 </r>
       <r>   -40.4750     0.0000    24.0000 </r>
       <r>   -40.2830     0.0000    24.0000 </r>
       <r>   -40.0910     0.0000    24.0000 </r>
       <r>   -39.8990     0.0000    24.0000 </r>
       <r>   -39.7070     0.0000    24.0000 </r>
       <r>   -39.5150     0.0000    24.0000 </r>
       <r>   -39.3230     0.0000    24.0000 </r>
       <r>   -39.1311     0.0000    24.0000 </r>
       <r>   -38.9391     0.0000    24.0000 </r>
       <r>   -38.7471     0.0000    24.0000 </r>
       <r>   -38.5551     0.0000    24.0000 </r>
       <r>   -38.3631     0.0000    24.0000 </r>
       <r>   -38.1711     0.0000    24.0000 </r>
       <r>   -37.9791     0.0000    24.0000 </r>
       <r>   -37.7871     0.0000    24.0000 </r>
       <r>   -37.5952     0.0000    24.0000 </r>
       <r>   -37.4032     0.0000    24.0000 </r>
       <r>   -37.2112     0.0000    24.0000 </r>
       <r>   -37.0192     0.0000    24.0000 </r>
       <r>   -36.8272     0.0000    24.0000 </r>
       <r>   -36.6352     0.0000    24.0000 </r>
       <r>   -36.4432     0.0000    24.0000 </r>
       <r>   -36.2513     0.0000    24.0000 </r>
       <r>   -36.0593     0.0000    24.0000 </r>
       <r>   -35.8673     0.0000    24.0000 </r>
       <r>   -35.6753     0.0000    24.0000 </r>
       <r>   -35.4833     0.0000    24.0000 </r>
       <r>   -35.2913     0.0000    24.0000 </r>
       <r>   -35.0993     0.0000    24.0000 </r>
       <r>   -34.9073     0.0000    24.0000 </r>
       <r>   -34.7154     0.0000    24.0000 </r>
       <r>   -34.5234     0.0000    24.0000 </r>
       <r>   -34.3314     0.0000    24.0000 </r>
       <r>   -34.1394     0.0000    24.0000 </r>
       <r>   -33.9474     0.0000    24.0000 </r>
       <r>   -33.7554     0.0000    24.0000 </r>
       <r>   -33.5634     0.0000    24.0000 </r>
       <r>   -33.3714     0.0000    24.0000 </r>
       <r>   -33.1795     0.0000    24.0000 </r>
       <r>   -32.9875     0.0000    24.0000 </r>
       <r>   -32.7955     0.0000    24.0000 </r>
       <r>   -32.6035     0.0000    24.0000 </r>
       <r>   -32.4115     0.0000    24.0000 </r>
       <r>   -32.2195     0.0000    24.0000 </r>
       <r>   -32.0275     0.0000    24.0000 </r>
       <r>   -31.8356     0.0000    24.0000 </r>
       <r>   -31.6436     0.0000    24.0000 </r>
       <r>   -31.4516     0.0000    24.0000 </r>
       <r>   -31.2596     0.0000    24.0000 </r>
       <r>   -31.0676     0.0000    24.0000 </r>
       <r>   -30.8756     0.0000    24.0000 </r>
       <r>   -30.6836     0.0000    24.0000 </r>
       <r>   -30.4916     0.0000    24.0000 </r>
       <r>   -30.2997     0.0000    24.0000 </r>
       <r>   -30.1077     0.0000    24.0000 </r>
       <r>   -29.9157     0.0000    24.0000 </r>
       <r>   -29.7237     0.0000    24.0000 </r>
       <r>   -29.5317     0.0000    24.0000 </r>
       <r>   -29.3397     0.0000    24.0000 </r>
       <r>   -29.1477     0.0000    24.0000 </r>
       <r>   -28.9557     0.0000    24.0000 </r>
       <r>   -28.7638     0.0000    24.0000 </r>
       <r>   -28.5718     0.0000    24.0000 </r>
       <r>   -28.3798     0.0000    24.0000 </r>
       <r>   -28.1878     0.0000    24.0000 </r>
       <r>   -27.9958     0.0000    24.0000 </r>
       <r>   -27.8038     0.0000    24.0000 </r>
       <r>   -27.6118     0.0000    24.0000 </r>
       <r>   -27.4199     0.0000    24.0000 </r>
       <r>   -27.2279     0.0000    24.0000 </r>
       <r>   -27.0359     0.0000    24.0000 </r>
       <r>   -26.8439     0.0000    24.0000 </r>
       <r>   -26.6519     0.0000    24.0000 </r>
       <r>   -26.4599     0.0000    24.0000 </r>
       <r>   -26.2679     0.0000    24.0000 </r>
       <r>   -26.0759     0.0000    24.0000 </r>
       <r>   -25.8840     0.0000    24.0000 </r>
       <r>   -25.6920     0.0000    24.0000 </r>
       <r>   -25.5000     0.0000    24.0000 </r>
       <r>   -25.3080     0.0000    24.0000 </r>
       <r>   -25.1160     0.0000    24.0000 </r>
       <r>   -24.9240     0.0000    24.0000 </r>
       <r>   -24.7320     0.0000    24.0000 </r>
       <r>   -24.5400     0.0000    24.0000 </r>
       <r>   -24.3481     0.0000    24.0000 </r>
       <r>   -24.1561     0.0000    24.0000 </r>
       <r>   -23.9641     0.0000    24.0000 </r>
       <r>   -23.7721     0.0000    24.0000 </r>
       <r>   -23.5801     0.0000    24.0000 </r>
       <r>   -23.3881     0.0000    24.0000 </r>
       <r>   -23.1961     0.0000    24.0000 </r>
       <r>   -23.0041     0.0000    24.0000 </r>
       <r>   -22.8122     0.0000    24.0000 </r>
       <r>   -22.6202     0.0000    24.0000 </r>
       <r>   -22.4282     0.0000    24.0000 </r>
       <r>   -22.2362     0.0000    24.0000 </r>
       <r>   -22.0442     0.0000    24.0000 </r>
       <r>   -21.8522     0.0000    24.0000 </r>
       <r>   -21.6602     0.0000    24.0000 </r>
       <r>   -21.4683     0.0000    24.0000 </r>
       <r>   -21.2763     0.0000    24.0000 </r>
       <r>   -21.0843     0.0000    24.0000 </r>
       <r>   -20.8923     0.0000    24.0000 </r>
       <r>   -20.7003     0.0000    24.0000 </r>
       <r>   -20.5083     0.0000    24.0000 </r>
       <r>   -20.3163     0.0000    24.0000 </r>
       <r>   -20.1243     0.0000    24.0000 </r>
       <r>   -19.9324     0.0000    24.0000 </r>
       <r>   -19.7404     0.0000    24.0000 </r>
       <r>   -19.5484     0.0000    24.0000 </r>
       <r>   -19.3564     0.0000    24.0000 </r>
       <r>   -19.1644     0.0000    24.0000 </r>
       <r>   -18.9724     0.0000    24.0000 </r>
       <r>   -18.7804     0.0000    24.0000 </r>
       <r>   -18.5884     0.0000    24.0000 </r>
       <r>   -18.3965     0.0000    24.0000 </r>
       <r>   -18.2045     0.0000    24.0000 </r>
       <r>   -18.0125     0.0000    24.0000 </r>
       <r>   -17.8205     0.0000    24.0000 </r>
       <r>   -17.6285     0.0000    24.0000 </r>
       <r>   -17.4365     0.0000    24.0000 </r>
       <r>   -17.2445     0.0000    24.0000 </r>
       <r>   -17.0526     0.0000    24.0000 </r>
       <r>   -16.8606     0.0000    24.0000 </r>
       <r>   -16.6686     0.0000    24.0000 </r>
       <r>   -16.4766     0.0000    24.0000 </r>
       <r>   -16.2846     0.0000    24.0000 </r>
       <r>   -16.0926     0.0000    24.0000 </r>
       <r>   -15.9006     0.0000    24.0000 </r>
       <r>   -15.7086     0.0000    24.0000 </r>
       <r>   -15.5167     0.0000    24.0000 </r>
       <r>   -15.3247     0.0000    24.0000 </r>
       <r>   -15.1327     0.0000    24.0000 </r>
       <r>   -14.9407     0.0000    24.0000 </r>
       <r>   -14.7487     0.0000    24.0000 </r>
       <r>   -14.5567     0.0000    24.0000 </r>
       <r>   -14.3647     0.0000    24.0000 </r>
       <r>   -14.1727     0.0000    24.0000 </r>
       <r>   -13.9808     0.0000    24.0000 </r>
       <r>   -13.7888     0.0000    24.0000 </r>
       <r>   -13.5968     0.0000    24.0000 </r>
       <r>   -13.4048     0.0220    24.0042 </r>
       <r>   -13.2128    20.8127    28.0000 </r>
       <r>   -13.0208     0.0000    28.0000 </r>
       <r>   -12.8288     0.0000    28.0000 </r>
       <r>   -12.6369     0.0000    28.0000 </r>
       <r>   -12.4449     2.1782    28.4182 </r>
       <r>   -12.2529    18.6566    32.0000 </r>
       <r>   -12.0609     0.0000    32.0000 </r>
       <r>   -11.8689     0.0000    32.0000 </r>
       <r>   -11.6769     0.0000    32.0000 </r>
       <r>   -11.4849     0.0000    32.0000 </r>
       <r>   -11.2929     0.0000    32.0000 </r>
       <r>   -11.1010     0.0000    32.0000 </r>
       <r>   -10.9090     0.0000    32.0000 </r>
       <r>   -10.7170     0.0000    32.0000 </r>
       <r>   -10.5250    13.1857    34.5315 </r>
       <r>   -10.3330    20.3451    38.4375 </r>
       <r>   -10.1410    28.9698    44.0000 </r>
       <r>    -9.9490     0.0000    44.0000 </r>
       <r>    -9.7570     0.0000    44.0000 </r>
       <r>    -9.5651     0.0000    44.0000 </r>
       <r>    -9.3731     0.0000    44.0000 </r>
       <r>    -9.1811     0.0000    44.0000 </r>
       <r>    -8.9891     0.0000    44.0000 </r>
       <r>    -8.7971     6.8670    45.3184 </r>
       <r>    -8.6051    13.9678    48.0000 </r>
       <r>    -8.4131     0.0000    48.0000 </r>
       <r>    -8.2211     0.0000    48.0000 </r>
       <r>    -8.0292     0.0000    48.0000 </r>
       <r>    -7.8372     0.0000    48.0000 </r>
       <r>    -7.6452     0.0000    48.0000 </r>
       <r>    -7.4532     0.0000    48.0000 </r>
       <r>    -7.2612     0.0000    48.0000 </r>
       <r>    -7.0692     0.0000    48.0000 </r>
       <r>    -6.8772     0.0000    48.0000 </r>
       <r>    -6.6853     0.0000    48.0000 </r>
       <r>    -6.4933     0.0015    48.0003 </r>
       <r>    -6.3013     5.2072    49.0000 </r>
       <r>    -6.1093     0.0150    49.0029 </r>
       <r>    -5.9173    15.6095    51.9997 </r>
       <r>    -5.7253     0.0000    52.0000 </r>
       <r>    -5.5333     0.0000    52.0000 </r>
       <r>    -5.3413     0.0000    52.0000 </r>
       <r>    -5.1494     0.0000    52.0000 </r>
       <r>    -4.9574     0.0000    52.0000 </r>
       <r>    -4.7654     0.0000    52.0000 </r>
       <r>    -4.5734     0.0000    52.0000 </r>
       <r>    -4.3814     0.0000    52.0000 </r>
       <r>    -4.1894     0.0000    52.0000 </r>
       <r>    -3.9974     0.0000    52.0000 </r>
       <r>    -3.8054     0.0000    52.0000 </r>
       <r>    -3.6135     0.0018    52.0003 </r>
       <r>    -3.4215    15.1957    54.9177 </r>
       <r>    -3.2295     0.4181    55.0005 </r>
       <r>    -3.0375     5.2405    56.0066 </r>
       <r>    -2.8455    18.6068    59.5789 </r>
       <r>    -2.6535    22.8024    63.9566 </r>
       <r>    -2.4615     0.2005    64.0000 </r>
       <r>    -2.2696     0.0000    64.0000 </r>
       <r>    -2.0776     0.0000    64.0000 </r>
       <r>    -1.8856     0.0000    64.0000 </r>
       <r>    -1.6936     0.0000    64.0000 </r>
       <r>    -1.5016     7.5815    65.4556 </r>
       <r>    -1.3096    13.2613    68.0015 </r>
       <r>    -1.1176    20.6819    71.9722 </r>
       <r>    -0.9256    20.9742    75.9990 </r>
       <r>    -0.7337     8.6729    77.6651 </r>
       <r>    -0.5417    11.9329    79.9561 </r>
       <r>    -0.3497    16.8821    83.1972 </r>
       <r>    -0.1577    29.0326    88.7711 </r>
       <r>     0.0343    25.1746    93.6071 </r>
       <r>     0.2263    12.4397    96.0000 </r>
       <r>     0.4183     4.6539    96.8935 </r>
       <r>     0.6103    27.1933   102.1142 </r>
       <r>     0.8022    25.2193   106.9573 </r>
       <r>     0.9942    33.4433   113.3787 </r>
       <r>     1.1862    27.7704   118.7160 </r>
       <r>     1.3782     6.6869   120.0000 </r>
       <r>     1.5702     0.0000   120.0000 </r>
       <r>     1.7622     0.0000   120.0000 </r>
       <r>     1.9542     0.0000   120.0000 </r>
       <r>     2.1461     0.0000   120.0000 </r>
       <r>     2.3381     0.0000   120.0000 </r>
       <r>     2.5301     0.0000   120.0000 </r>
       <r>     2.7221     0.0000   120.0000 </r>
       <r>     2.9141     0.0000   120.0000 </r>
       <r>     3.1061     0.0000   120.0000 </r>
       <r>     3.2981     0.0000   120.0000 </r>
       <r>     3.4901     0.0000   120.0000 </r>
       <r>     3.6820     0.0000   120.0000 </r>
       <r>     3.8740     0.0000   120.0000 </r>
       <r>     4.0660     3.0634   120.5881 </r>
       <r>     4.2580     2.1453   121.0000 </r>
       <r>     4.4500     0.0000   121.0000 </r>
       <r>     4.6420     0.0000   121.0000 </r>
       <r>     4.8340     0.0339   121.0065 </r>
       <r>     5.0260    15.5894   123.9995 </r>
       <r>     5.2179     0.0000   124.0000 </r>
       <r>     5.4099     0.0000   124.0000 </r>
       <r>     5.6019     5.2477   125.0075 </r>
       <r>     5.7939    19.5734   128.7656 </r>
       <r>     5.9859     6.0369   129.9246 </r>
       <r>     6.1779     6.6977   131.2105 </r>
       <r>     6.3699     9.6041   133.0544 </r>
       <r>     6.5619    14.8713   135.9095 </r>
       <r>     6.7538     5.6553   136.9990 </r>
       <r>     6.9458     0.0904   137.0174 </r>
       <r>     7.1378    10.4494   139.0235 </r>
       <r>     7.3298    13.3029   141.5775 </r>
       <r>     7.5218    12.1127   143.9030 </r>
       <r>     7.7138    13.5856   146.5209 </r>
       <r>     7.9058    17.7014   149.9193 </r>
       <r>     8.0977     9.2541   151.7014 </r>
       <r>     8.2897     7.3386   153.1103 </r>
       <r>     8.4817    24.6782   157.8482 </r>
       <r>     8.6737    10.4771   159.8597 </r>
       <r>     8.8657    15.9523   162.9223 </r>
       <r>     9.0577    23.0340   167.3446 </r>
       <r>     9.2497    22.4197   171.6513 </r>
       <r>     9.4417    17.4413   174.9998 </r>
       <r>     9.6336     5.2061   176.0000 </r>
       <r>     9.8256     0.0000   176.0000 </r>
       <r>    10.0176     0.0000   176.0000 </r>
       <r>    10.2096     0.0000   176.0000 </r>
       <r>    10.4016     0.0000   176.0000 </r>
       <r>    10.5936     0.0000   176.0000 </r>
       <r>    10.7856     0.0000   176.0000 </r>
       <r>    10.9776     0.0000   176.0000 </r>
       <r>    11.1695     0.0000   176.0000 </r>
       <r>    11.3615     0.0000   176.0000 </r>
       <r>    11.5535     0.0000   176.0000 </r>
       <r>    11.7455     0.0000   176.0000 </r>
       <r>    11.9375     0.0000   176.0000 </r>
       <r>    12.1295     0.0000   176.0000 </r>
      </set>
     </set>
    </array>
   </total>
  </dos>
 </calculation>
 <structure name="finalpos" >
  <crystal>
   <varray name="basis" >
    <v>       9.79014111       0.00000000       0.00000000 </v>
    <v>       0.00000000       9.79014111       0.00000000 </v>
    <v>       0.00000000       0.00000000       9.79014111 </v>
   </varray>
   <i name="volume">    938.35431466 </i>
   <varray name="rec_basis" >
    <v>       0.10214357       0.00000000       0.00000000 </v>
    <v>       0.00000000       0.10214357       0.00000000 </v>
    <v>       0.00000000       0.00000000       0.10214357 </v>
   </varray>
  </crystal>
  <varray name="positions" >
   <v>       0.97574320       0.25000000       0.25000000 </v>
   <v>       0.98825747       0.75000000       0.75000000 </v>
   <v>       0.01174253       0.25000000       0.75000000 </v>
   <v>       0.02425680       0.75000000       0.25000000 </v>
   <v>       0.18246865       0.18140408       0.97201854 </v>
   <v>       0.31753235       0.68139866       0.02798277 </v>
   <v>       0.68246765       0.31860134       0.02798277 </v>
   <v>       0.81753135       0.81859592       0.97201854 </v>
   <v>       0.19639059       0.96966772       0.18532409 </v>
   <v>       0.30360725       0.03032991       0.68533045 </v>
   <v>       0.69639275       0.96967009       0.68533045 </v>
   <v>       0.80360941       0.03033228       0.18532409 </v>
   <v>       0.31753235       0.81860134       0.47201723 </v>
   <v>       0.18246865       0.31859592       0.52798146 </v>
   <v>       0.81753135       0.68140408       0.52798146 </v>
   <v>       0.68246765       0.18139866       0.47201723 </v>
   <v>       0.30360725       0.46967009       0.81466955 </v>
   <v>       0.19639059       0.53033228       0.31467591 </v>
   <v>       0.80360941       0.46966772       0.31467591 </v>
   <v>       0.69639275       0.53032991       0.81466955 </v>
   <v>       0.47574252       0.25000000       0.75000000 </v>
   <v>       0.48825609       0.75000000       0.25000000 </v>
   <v>       0.51174391       0.25000000       0.25000000 </v>
   <v>       0.52425748       0.75000000       0.75000000 </v>
   <v>       0.50000000       0.50000000       0.50614584 </v>
   <v>       0.50000000       0.00000000       0.99385416 </v>
   <v>      -0.00000000       0.50000000       0.00614793 </v>
   <v>      -0.00000000       0.00000000       0.49385207 </v>
   <v>       0.12492183       0.87953532       0.61190409 </v>
   <v>       0.12938209       0.11842312       0.37902151 </v>
   <v>       0.87061791       0.88157688       0.37902151 </v>
   <v>       0.87507817       0.12046468       0.61190409 </v>
   <v>       0.87061791       0.61842312       0.12097849 </v>
   <v>       0.87507817       0.37953532       0.88809591 </v>
   <v>       0.12492183       0.62046468       0.88809591 </v>
   <v>       0.12938209       0.38157688       0.12097849 </v>
   <v>       0.62938169       0.11842501       0.87902369 </v>
   <v>       0.62492197       0.87953640       0.11190546 </v>
   <v>       0.37507803       0.12046360       0.11190546 </v>
   <v>       0.37061831       0.88157499       0.87902369 </v>
   <v>       0.62492197       0.62046360       0.38809454 </v>
   <v>       0.62938169       0.38157499       0.62097631 </v>
   <v>       0.37061831       0.61842501       0.62097631 </v>
   <v>       0.37507803       0.37953640       0.38809454 </v>
   <v>       0.75818103       0.75000000       0.75000000 </v>
   <v>       0.74181953       0.25000000       0.25000000 </v>
   <v>       0.25818047       0.75000000       0.25000000 </v>
   <v>       0.24181897       0.25000000       0.75000000 </v>
   <v>      -0.00000000       0.00000000       0.03505198 </v>
   <v>      -0.00000000       0.50000000       0.46494802 </v>
   <v>       0.50000000       0.00000000       0.53505952 </v>
   <v>       0.50000000       0.50000000       0.96494048 </v>
  </varray>
 </structure>
</modeling>
