unknown system                          
           1
     9.790141    0.000000    0.000000
     0.000000    9.790141    0.000000
     0.000000    0.000000    9.790141
   Li   P    S    Cl
    24     4    20     4
Direct configuration=     1
   0.97564611  0.25000000  0.25000000
   0.98821946  0.75000000  0.75000000
   0.01178054  0.25000000  0.75000000
   0.02435389  0.75000000  0.25000000
   0.18293761  0.18163935  0.97207424
   0.31706339  0.68163392  0.02792707
   0.68293661  0.31836608  0.02792707
   0.81706239  0.81836065  0.97207424
   0.19631924  0.96970514  0.18577563
   0.30367860  0.03029249  0.68578200
   0.69632140  0.96970751  0.68578200
   0.80368076  0.03029486  0.18577563
   0.31706339  0.81836608  0.47207293
   0.18293761  0.31836065  0.52792576
   0.81706239  0.68163935  0.52792576
   0.68293661  0.18163392  0.47207293
   0.30367860  0.46970751  0.81421800
   0.19631924  0.53029486  0.31422437
   0.80368076  0.46970514  0.31422437
   0.69632140  0.53029249  0.81421800
   0.47564543  0.25000000  0.75000000
   0.48821809  0.75000000  0.25000000
   0.51178191  0.25000000  0.25000000
   0.52435457  0.75000000  0.75000000
   0.50000000  0.50000000  0.50570009
   0.50000000  0.00000000  0.99429991
   0.00000000  0.50000000  0.00570218
   0.00000000  0.00000000  0.49429782
   0.12490961  0.87983501  0.61220581
   0.12893329  0.11842012  0.37939026
   0.87106671  0.88157988  0.37939026
   0.87509039  0.12016499  0.61220581
   0.87106671  0.61842012  0.12060974
   0.87509039  0.37983501  0.88779419
   0.12490961  0.62016499  0.88779419
   0.12893329  0.38157988  0.12060974
   0.62893289  0.11842201  0.87939244
   0.62490975  0.87983610  0.11220718
   0.37509025  0.12016390  0.11220718
   0.37106711  0.88157799  0.87939244
   0.62490975  0.62016390  0.38779282
   0.62893289  0.38157799  0.62060756
   0.37106711  0.61842201  0.62060756
   0.37509025  0.37983610  0.38779282
   0.75819988  0.75000000  0.75000000
   0.74180069  0.25000000  0.25000000
   0.25819931  0.75000000  0.25000000
   0.24180012  0.25000000  0.75000000
   0.00000000  0.00000000  0.03571060
   0.00000000  0.50000000  0.46428940
   0.50000000  0.00000000  0.53571813
   0.50000000  0.50000000  0.96428187
Direct configuration=     2
   0.97564693  0.25000000  0.25000000
   0.98822365  0.75000000  0.75000000
   0.01177635  0.25000000  0.75000000
   0.02435307  0.75000000  0.25000000
   0.18292740  0.18163462  0.97207875
   0.31707361  0.68162919  0.02792255
   0.68292639  0.31837081  0.02792255
   0.81707260  0.81836538  0.97207875
   0.19631567  0.96970866  0.18577208
   0.30368217  0.03028898  0.68577844
   0.69631783  0.96971102  0.68577844
   0.80368433  0.03029134  0.18577208
   0.31707361  0.81837081  0.47207745
   0.18292740  0.31836538  0.52792125
   0.81707260  0.68163462  0.52792125
   0.68292639  0.18162919  0.47207745
   0.30368217  0.46971102  0.81422156
   0.19631567  0.53029134  0.31422792
   0.80368433  0.46970866  0.31422792
   0.69631783  0.53028898  0.81422156
   0.47564625  0.25000000  0.75000000
   0.48822227  0.75000000  0.25000000
   0.51177773  0.25000000  0.25000000
   0.52435375  0.75000000  0.75000000
   0.50000000  0.50000000  0.50572999
   0.50000000  0.00000000  0.99427001
  -0.00000000  0.50000000  0.00573208
   0.00000000  0.00000000  0.49426792
   0.12495894  0.87978075  0.61225631
   0.12900156  0.11846941  0.37934224
   0.87099844  0.88153059  0.37934224
   0.87504106  0.12021925  0.61225631
   0.87099844  0.61846941  0.12065776
   0.87504106  0.37978075  0.88774369
   0.12495894  0.62021925  0.88774369
   0.12900156  0.38153059  0.12065776
   0.62900117  0.11847131  0.87934442
   0.62495908  0.87978184  0.11225768
   0.37504092  0.12021816  0.11225768
   0.37099883  0.88152869  0.87934442
   0.62495908  0.62021816  0.38774232
   0.62900117  0.38152869  0.62065558
   0.37099883  0.61847131  0.62065558
   0.37504092  0.37978184  0.38774232
   0.75819995  0.75000000  0.75000000
   0.74180062  0.25000000  0.25000000
   0.25819938  0.75000000  0.25000000
   0.24180005  0.25000000  0.75000000
   0.00000000  0.00000000  0.03569334
   0.00000000  0.50000000  0.46430666
   0.50000000  0.00000000  0.53570087
   0.50000000  0.50000000  0.96429913
Direct configuration=     3
   0.97564863  0.25000000  0.25000000
   0.98823230  0.75000000  0.75000000
   0.01176770  0.25000000  0.75000000
   0.02435137  0.75000000  0.25000000
   0.18290629  0.18162485  0.97208808
   0.31709472  0.68161942  0.02791323
   0.68290528  0.31838058  0.02791323
   0.81709371  0.81837515  0.97208808
   0.19630829  0.96971592  0.18576473
   0.30368955  0.03028171  0.68577110
   0.69631045  0.96971829  0.68577110
   0.80369171  0.03028408  0.18576473
   0.31709472  0.81838058  0.47208677
   0.18290629  0.31837515  0.52791192
   0.81709371  0.68162485  0.52791192
   0.68290528  0.18161942  0.47208677
   0.30368955  0.46971829  0.81422890
   0.19630829  0.53028408  0.31423527
   0.80369171  0.46971592  0.31423527
   0.69631045  0.53028171  0.81422890
   0.47564795  0.25000000  0.75000000
   0.48823092  0.75000000  0.25000000
   0.51176908  0.25000000  0.25000000
   0.52435205  0.75000000  0.75000000
   0.50000000  0.50000000  0.50579176
   0.50000000  0.00000000  0.99420824
  -0.00000000  0.50000000  0.00579385
   0.00000000  0.00000000  0.49420615
   0.12506085  0.87966865  0.61236064
   0.12914262  0.11857125  0.37924303
   0.87085738  0.88142875  0.37924303
   0.87493915  0.12033135  0.61236064
   0.87085738  0.61857125  0.12075697
   0.87493915  0.37966865  0.88763936
   0.12506085  0.62033135  0.88763936
   0.12914262  0.38142875  0.12075697
   0.62914222  0.11857315  0.87924521
   0.62506098  0.87966973  0.11236201
   0.37493902  0.12033027  0.11236201
   0.37085778  0.88142685  0.87924521
   0.62506098  0.62033027  0.38763799
   0.62914222  0.38142685  0.62075479
   0.37085778  0.61857315  0.62075479
   0.37493902  0.37966973  0.38763799
   0.75820008  0.75000000  0.75000000
   0.74180049  0.25000000  0.25000000
   0.25819951  0.75000000  0.25000000
   0.24179992  0.25000000  0.75000000
   0.00000000  0.00000000  0.03565768
   0.00000000  0.50000000  0.46434232
   0.50000000  0.00000000  0.53566521
   0.50000000  0.50000000  0.96433479
Direct configuration=     4
   0.97564823  0.25000000  0.25000000
   0.98823025  0.75000000  0.75000000
   0.01176975  0.25000000  0.75000000
   0.02435177  0.75000000  0.25000000
   0.18291128  0.18162716  0.97208587
   0.31708972  0.68162174  0.02791544
   0.68291028  0.31837826  0.02791544
   0.81708872  0.81837284  0.97208587
   0.19631004  0.96971420  0.18576647
   0.30368780  0.03028343  0.68577284
   0.69631220  0.96971657  0.68577284
   0.80368996  0.03028580  0.18576647
   0.31708972  0.81837826  0.47208456
   0.18291128  0.31837284  0.52791413
   0.81708872  0.68162716  0.52791413
   0.68291028  0.18162174  0.47208456
   0.30368780  0.46971657  0.81422716
   0.19631004  0.53028580  0.31423353
   0.80368996  0.46971420  0.31423353
   0.69631220  0.53028343  0.81422716
   0.47564755  0.25000000  0.75000000
   0.48822888  0.75000000  0.25000000
   0.51177112  0.25000000  0.25000000
   0.52435245  0.75000000  0.75000000
   0.50000000  0.50000000  0.50577713
   0.50000000  0.00000000  0.99422287
  -0.00000000  0.50000000  0.00577922
   0.00000000  0.00000000  0.49422078
   0.12503672  0.87969519  0.61233594
   0.12910922  0.11854714  0.37926651
   0.87089078  0.88145286  0.37926651
   0.87496328  0.12030481  0.61233594
   0.87089078  0.61854714  0.12073349
   0.87496328  0.37969519  0.88766406
   0.12503672  0.62030481  0.88766406
   0.12910922  0.38145286  0.12073349
   0.62910882  0.11854904  0.87926870
   0.62503686  0.87969627  0.11233731
   0.37496314  0.12030373  0.11233731
   0.37089118  0.88145096  0.87926870
   0.62503686  0.62030373  0.38766269
   0.62910882  0.38145096  0.62073130
   0.37089118  0.61854904  0.62073130
   0.37496314  0.37969627  0.38766269
   0.75820005  0.75000000  0.75000000
   0.74180052  0.25000000  0.25000000
   0.25819948  0.75000000  0.25000000
   0.24179995  0.25000000  0.75000000
   0.00000000  0.00000000  0.03566612
   0.00000000  0.50000000  0.46433388
   0.50000000  0.00000000  0.53567366
   0.50000000  0.50000000  0.96432634
Direct configuration=     5
   0.97564825  0.25000000  0.25000000
   0.98823036  0.75000000  0.75000000
   0.01176964  0.25000000  0.75000000
   0.02435175  0.75000000  0.25000000
   0.18291101  0.18162703  0.97208599
   0.31708999  0.68162161  0.02791532
   0.68291001  0.31837839  0.02791532
   0.81708899  0.81837297  0.97208599
   0.19630995  0.96971429  0.18576638
   0.30368789  0.03028334  0.68577274
   0.69631211  0.96971666  0.68577274
   0.80369005  0.03028571  0.18576638
   0.31708999  0.81837839  0.47208468
   0.18291101  0.31837297  0.52791401
   0.81708899  0.68162703  0.52791401
   0.68291001  0.18162161  0.47208468
   0.30368789  0.46971666  0.81422726
   0.19630995  0.53028571  0.31423362
   0.80369005  0.46971429  0.31423362
   0.69631211  0.53028334  0.81422726
   0.47564757  0.25000000  0.75000000
   0.48822899  0.75000000  0.25000000
   0.51177101  0.25000000  0.25000000
   0.52435243  0.75000000  0.75000000
   0.50000000  0.50000000  0.50577792
   0.50000000  0.00000000  0.99422208
  -0.00000000  0.50000000  0.00578001
   0.00000000  0.00000000  0.49421999
   0.12503803  0.87969375  0.61233728
   0.12911103  0.11854845  0.37926524
   0.87088897  0.88145155  0.37926524
   0.87496197  0.12030625  0.61233728
   0.87088897  0.61854845  0.12073476
   0.87496197  0.37969375  0.88766272
   0.12503803  0.62030625  0.88766272
   0.12911103  0.38145155  0.12073476
   0.62911063  0.11855034  0.87926743
   0.62503816  0.87969484  0.11233865
   0.37496184  0.12030516  0.11233865
   0.37088937  0.88144966  0.87926743
   0.62503816  0.62030516  0.38766135
   0.62911063  0.38144966  0.62073257
   0.37088937  0.61855034  0.62073257
   0.37496184  0.37969484  0.38766135
   0.75820005  0.75000000  0.75000000
   0.74180052  0.25000000  0.25000000
   0.25819948  0.75000000  0.25000000
   0.24179995  0.25000000  0.75000000
   0.00000000  0.00000000  0.03566567
   0.00000000  0.50000000  0.46433433
   0.50000000  0.00000000  0.53567320
   0.50000000  0.50000000  0.96432680
Direct configuration=     6
   0.97564824  0.25000000  0.25000000
   0.98823031  0.75000000  0.75000000
   0.01176969  0.25000000  0.75000000
   0.02435176  0.75000000  0.25000000
   0.18291114  0.18162709  0.97208593
   0.31708986  0.68162167  0.02791537
   0.68291014  0.31837833  0.02791537
   0.81708886  0.81837291  0.97208593
   0.19630999  0.96971425  0.18576642
   0.30368785  0.03028338  0.68577279
   0.69631215  0.96971662  0.68577279
   0.80369001  0.03028575  0.18576642
   0.31708986  0.81837833  0.47208463
   0.18291114  0.31837291  0.52791407
   0.81708886  0.68162709  0.52791407
   0.68291014  0.18162167  0.47208463
   0.30368785  0.46971662  0.81422721
   0.19630999  0.53028575  0.31423358
   0.80369001  0.46971425  0.31423358
   0.69631215  0.53028338  0.81422721
   0.47564756  0.25000000  0.75000000
   0.48822893  0.75000000  0.25000000
   0.51177107  0.25000000  0.25000000
   0.52435244  0.75000000  0.75000000
   0.50000000  0.50000000  0.50577754
   0.50000000  0.00000000  0.99422246
  -0.00000000  0.50000000  0.00577964
   0.00000000  0.00000000  0.49422036
   0.12503740  0.87969444  0.61233664
   0.12911016  0.11854782  0.37926585
   0.87088984  0.88145218  0.37926585
   0.87496260  0.12030556  0.61233664
   0.87088984  0.61854782  0.12073415
   0.87496260  0.37969444  0.88766336
   0.12503740  0.62030556  0.88766336
   0.12911016  0.38145218  0.12073415
   0.62910977  0.11854972  0.87926804
   0.62503754  0.87969552  0.11233801
   0.37496246  0.12030448  0.11233801
   0.37089023  0.88145028  0.87926804
   0.62503754  0.62030448  0.38766199
   0.62910977  0.38145028  0.62073196
   0.37089023  0.61854972  0.62073196
   0.37496246  0.37969552  0.38766199
   0.75820005  0.75000000  0.75000000
   0.74180052  0.25000000  0.25000000
   0.25819948  0.75000000  0.25000000
   0.24179995  0.25000000  0.75000000
   0.00000000  0.00000000  0.03566589
   0.00000000  0.50000000  0.46433411
   0.50000000  0.00000000  0.53567342
   0.50000000  0.50000000  0.96432658
Direct configuration=     7
   0.97564764  0.25000000  0.25000000
   0.98822633  0.75000000  0.75000000
   0.01177367  0.25000000  0.75000000
   0.02435236  0.75000000  0.25000000
   0.18289605  0.18161888  0.97208887
   0.31710495  0.68161346  0.02791243
   0.68289505  0.31838654  0.02791243
   0.81710395  0.81838112  0.97208887
   0.19630512  0.96971675  0.18575906
   0.30369272  0.03028088  0.68576543
   0.69630728  0.96971912  0.68576543
   0.80369488  0.03028325  0.18575906
   0.31710495  0.81838654  0.47208757
   0.18289605  0.31838112  0.52791113
   0.81710395  0.68161888  0.52791113
   0.68289505  0.18161346  0.47208757
   0.30369272  0.46971912  0.81423457
   0.19630512  0.53028325  0.31424094
   0.80369488  0.46971675  0.31424094
   0.69630728  0.53028088  0.81423457
   0.47564696  0.25000000  0.75000000
   0.48822496  0.75000000  0.25000000
   0.51177504  0.25000000  0.25000000
   0.52435304  0.75000000  0.75000000
   0.50000000  0.50000000  0.50577316
   0.50000000  0.00000000  0.99422684
  -0.00000000  0.50000000  0.00577525
  -0.00000000  0.00000000  0.49422475
   0.12503145  0.87969805  0.61232423
   0.12913381  0.11854698  0.37926184
   0.87086619  0.88145302  0.37926184
   0.87496855  0.12030195  0.61232423
   0.87086619  0.61854698  0.12073816
   0.87496855  0.37969805  0.88767577
   0.12503145  0.62030195  0.88767577
   0.12913381  0.38145302  0.12073816
   0.62913341  0.11854888  0.87926403
   0.62503159  0.87969913  0.11232560
   0.37496841  0.12030087  0.11232560
   0.37086659  0.88145112  0.87926403
   0.62503159  0.62030087  0.38767440
   0.62913341  0.38145112  0.62073597
   0.37086659  0.61854888  0.62073597
   0.37496841  0.37969913  0.38767440
   0.75819917  0.75000000  0.75000000
   0.74180140  0.25000000  0.25000000
   0.25819860  0.75000000  0.25000000
   0.24180083  0.25000000  0.75000000
  -0.00000000  0.00000000  0.03564636
  -0.00000000  0.50000000  0.46435364
   0.50000000  0.00000000  0.53565389
   0.50000000  0.50000000  0.96434611
Direct configuration=     8
   0.97564609  0.25000000  0.25000000
   0.98821604  0.75000000  0.75000000
   0.01178396  0.25000000  0.75000000
   0.02435391  0.75000000  0.25000000
   0.18285699  0.18159762  0.97209648
   0.31714402  0.68159220  0.02790483
   0.68285598  0.31840780  0.02790483
   0.81714301  0.81840238  0.97209648
   0.19629252  0.96972322  0.18574001
   0.30370532  0.03027441  0.68574637
   0.69629468  0.96972559  0.68574637
   0.80370748  0.03027678  0.18574001
   0.31714402  0.81840780  0.47209517
   0.18285699  0.31840238  0.52790352
   0.81714301  0.68159762  0.52790352
   0.68285598  0.18159220  0.47209517
   0.30370532  0.46972559  0.81425363
   0.19629252  0.53027678  0.31425999
   0.80370748  0.46972322  0.31425999
   0.69629468  0.53027441  0.81425363
   0.47564541  0.25000000  0.75000000
   0.48821466  0.75000000  0.25000000
   0.51178534  0.25000000  0.25000000
   0.52435459  0.75000000  0.75000000
   0.50000000  0.50000000  0.50576180
   0.50000000  0.00000000  0.99423820
  -0.00000000  0.50000000  0.00576389
  -0.00000000  0.00000000  0.49423611
   0.12501603  0.87970739  0.61229209
   0.12919502  0.11854480  0.37925146
   0.87080498  0.88145520  0.37925146
   0.87498397  0.12029261  0.61229209
   0.87080498  0.61854480  0.12074854
   0.87498397  0.37970739  0.88770791
   0.12501603  0.62029261  0.88770791
   0.12919502  0.38145520  0.12074854
   0.62919462  0.11854670  0.87925364
   0.62501617  0.87970848  0.11229346
   0.37498383  0.12029152  0.11229346
   0.37080538  0.88145330  0.87925364
   0.62501617  0.62029152  0.38770654
   0.62919462  0.38145330  0.62074636
   0.37080538  0.61854670  0.62074636
   0.37498383  0.37970848  0.38770654
   0.75819689  0.75000000  0.75000000
   0.74180368  0.25000000  0.25000000
   0.25819632  0.75000000  0.25000000
   0.24180311  0.25000000  0.75000000
  -0.00000000  0.00000000  0.03559580
  -0.00000000  0.50000000  0.46440420
   0.50000000  0.00000000  0.53560333
   0.50000000  0.50000000  0.96439667
Direct configuration=     9
   0.97564977  0.25000000  0.25000000
   0.98821323  0.75000000  0.75000000
   0.01178677  0.25000000  0.75000000
   0.02435023  0.75000000  0.25000000
   0.18284000  0.18158836  0.97209837
   0.31716100  0.68158294  0.02790293
   0.68283900  0.31841706  0.02790293
   0.81716000  0.81841164  0.97209837
   0.19628764  0.96972474  0.18573140
   0.30371020  0.03027289  0.68573777
   0.69628980  0.96972711  0.68573777
   0.80371236  0.03027526  0.18573140
   0.31716100  0.81841706  0.47209707
   0.18284000  0.31841164  0.52790163
   0.81716000  0.68158836  0.52790163
   0.68283900  0.18158294  0.47209707
   0.30371020  0.46972711  0.81426223
   0.19628764  0.53027526  0.31426860
   0.80371236  0.46972474  0.31426860
   0.69628980  0.53027289  0.81426223
   0.47564908  0.25000000  0.75000000
   0.48821186  0.75000000  0.25000000
   0.51178814  0.25000000  0.25000000
   0.52435092  0.75000000  0.75000000
   0.50000000  0.50000000  0.50578691
   0.50000000  0.00000000  0.99421309
  -0.00000000  0.50000000  0.00578900
  -0.00000000  0.00000000  0.49421100
   0.12501264  0.87970461  0.61228265
   0.12920809  0.11853448  0.37925465
   0.87079191  0.88146552  0.37925465
   0.87498736  0.12029539  0.61228265
   0.87079191  0.61853448  0.12074535
   0.87498736  0.37970461  0.88771735
   0.12501264  0.62029539  0.88771735
   0.12920809  0.38146552  0.12074535
   0.62920769  0.11853638  0.87925684
   0.62501278  0.87970569  0.11228402
   0.37498722  0.12029431  0.11228402
   0.37079231  0.88146362  0.87925684
   0.62501278  0.62029431  0.38771598
   0.62920769  0.38146362  0.62074316
   0.37079231  0.61853638  0.62074316
   0.37498722  0.37970569  0.38771598
   0.75819573  0.75000000  0.75000000
   0.74180483  0.25000000  0.25000000
   0.25819517  0.75000000  0.25000000
   0.24180427  0.25000000  0.75000000
  -0.00000000  0.00000000  0.03557270
  -0.00000000  0.50000000  0.46442730
   0.50000000  0.00000000  0.53558023
   0.50000000  0.50000000  0.96441977
Direct configuration=    10
   0.97566079  0.25000000  0.25000000
   0.98820482  0.75000000  0.75000000
   0.01179518  0.25000000  0.75000000
   0.02433921  0.75000000  0.25000000
   0.18278906  0.18156058  0.97210404
   0.31721194  0.68155516  0.02789726
   0.68278806  0.31844484  0.02789726
   0.81721094  0.81843942  0.97210404
   0.19627303  0.96972930  0.18570558
   0.30372481  0.03026833  0.68571195
   0.69627519  0.96973167  0.68571195
   0.80372697  0.03027070  0.18570558
   0.31721194  0.81844484  0.47210274
   0.18278906  0.31843942  0.52789596
   0.81721094  0.68156058  0.52789596
   0.68278806  0.18155516  0.47210274
   0.30372481  0.46973167  0.81428805
   0.19627303  0.53027070  0.31429442
   0.80372697  0.46972930  0.31429442
   0.69627519  0.53026833  0.81428805
   0.47566011  0.25000000  0.75000000
   0.48820344  0.75000000  0.25000000
   0.51179656  0.25000000  0.25000000
   0.52433989  0.75000000  0.75000000
   0.50000000  0.50000000  0.50586225
   0.50000000  0.00000000  0.99413775
  -0.00000000  0.50000000  0.00586434
  -0.00000000  0.00000000  0.49413566
   0.12500247  0.87969625  0.61225432
   0.12924730  0.11850352  0.37926423
   0.87075270  0.88149648  0.37926423
   0.87499753  0.12030375  0.61225432
   0.87075270  0.61850352  0.12073577
   0.87499753  0.37969625  0.88774568
   0.12500247  0.62030375  0.88774568
   0.12924730  0.38149648  0.12073577
   0.62924690  0.11850542  0.87926641
   0.62500261  0.87969734  0.11225569
   0.37499739  0.12030266  0.11225569
   0.37075310  0.88149458  0.87926641
   0.62500261  0.62030266  0.38774431
   0.62924690  0.38149458  0.62073359
   0.37075310  0.61850542  0.62073359
   0.37499739  0.37969734  0.38774431
   0.75819227  0.75000000  0.75000000
   0.74180830  0.25000000  0.25000000
   0.25819170  0.75000000  0.25000000
   0.24180773  0.25000000  0.75000000
  -0.00000000  0.00000000  0.03550340
  -0.00000000  0.50000000  0.46449660
   0.50000000  0.00000000  0.53551093
   0.50000000  0.50000000  0.96448907
Direct configuration=    11
   0.97568284  0.25000000  0.25000000
   0.98818798  0.75000000  0.75000000
   0.01181202  0.25000000  0.75000000
   0.02431716  0.75000000  0.25000000
   0.18268717  0.18150501  0.97211539
   0.31731383  0.68149959  0.02788592
   0.68268617  0.31850041  0.02788592
   0.81731283  0.81849499  0.97211539
   0.19624379  0.96973841  0.18565394
   0.30375405  0.03025922  0.68566030
   0.69624595  0.96974078  0.68566030
   0.80375621  0.03026159  0.18565394
   0.31731383  0.81850041  0.47211408
   0.18268717  0.31849499  0.52788461
   0.81731283  0.68150501  0.52788461
   0.68268617  0.18149959  0.47211408
   0.30375405  0.46974078  0.81433970
   0.19624379  0.53026159  0.31434606
   0.80375621  0.46973841  0.31434606
   0.69624595  0.53025922  0.81433970
   0.47568216  0.25000000  0.75000000
   0.48818661  0.75000000  0.25000000
   0.51181339  0.25000000  0.25000000
   0.52431784  0.75000000  0.75000000
   0.50000000  0.50000000  0.50601293
   0.50000000  0.00000000  0.99398707
  -0.00000000  0.50000000  0.00601502
  -0.00000000  0.00000000  0.49398498
   0.12498212  0.87967954  0.61219766
   0.12932571  0.11844160  0.37928338
   0.87067429  0.88155840  0.37928338
   0.87501788  0.12032046  0.61219766
   0.87067429  0.61844160  0.12071662
   0.87501788  0.37967954  0.88780234
   0.12498212  0.62032046  0.88780234
   0.12932571  0.38155840  0.12071662
   0.62932531  0.11844350  0.87928556
   0.62498226  0.87968062  0.11219903
   0.37501774  0.12031938  0.11219903
   0.37067469  0.88155650  0.87928556
   0.62498226  0.62031938  0.38780097
   0.62932531  0.38155650  0.62071444
   0.37067469  0.61844350  0.62071444
   0.37501774  0.37968062  0.38780097
   0.75818534  0.75000000  0.75000000
   0.74181522  0.25000000  0.25000000
   0.25818478  0.75000000  0.25000000
   0.24181466  0.25000000  0.75000000
  -0.00000000  0.00000000  0.03536480
  -0.00000000  0.50000000  0.46463520
   0.50000000  0.00000000  0.53537233
   0.50000000  0.50000000  0.96462767
Direct configuration=    12
   0.97567068  0.25000000  0.25000000
   0.98819727  0.75000000  0.75000000
   0.01180273  0.25000000  0.75000000
   0.02432932  0.75000000  0.25000000
   0.18274336  0.18153565  0.97210913
   0.31725765  0.68153023  0.02789217
   0.68274235  0.31846977  0.02789217
   0.81725664  0.81846435  0.97210913
   0.19625991  0.96973339  0.18568241
   0.30373793  0.03026425  0.68568878
   0.69626207  0.96973575  0.68568878
   0.80374009  0.03026661  0.18568241
   0.31725765  0.81846977  0.47210783
   0.18274336  0.31846435  0.52789087
   0.81725664  0.68153565  0.52789087
   0.68274235  0.18153023  0.47210783
   0.30373793  0.46973575  0.81431122
   0.19625991  0.53026661  0.31431759
   0.80374009  0.46973339  0.31431759
   0.69626207  0.53026425  0.81431122
   0.47567000  0.25000000  0.75000000
   0.48819589  0.75000000  0.25000000
   0.51180411  0.25000000  0.25000000
   0.52433000  0.75000000  0.75000000
   0.50000000  0.50000000  0.50592984
   0.50000000  0.00000000  0.99407016
  -0.00000000  0.50000000  0.00593193
  -0.00000000  0.00000000  0.49406807
   0.12499334  0.87968876  0.61222890
   0.12928247  0.11847575  0.37927282
   0.87071753  0.88152425  0.37927282
   0.87500666  0.12031124  0.61222890
   0.87071753  0.61847575  0.12072718
   0.87500666  0.37968876  0.88777110
   0.12499334  0.62031124  0.88777110
   0.12928247  0.38152425  0.12072718
   0.62928207  0.11847764  0.87927500
   0.62499348  0.87968984  0.11223027
   0.37500652  0.12031016  0.11223027
   0.37071793  0.88152236  0.87927500
   0.62499348  0.62031016  0.38776973
   0.62928207  0.38152236  0.62072500
   0.37071793  0.61847764  0.62072500
   0.37500652  0.37968984  0.38776973
   0.75818916  0.75000000  0.75000000
   0.74181140  0.25000000  0.25000000
   0.25818860  0.75000000  0.25000000
   0.24181084  0.25000000  0.75000000
  -0.00000000  0.00000000  0.03544123
  -0.00000000  0.50000000  0.46455877
   0.50000000  0.00000000  0.53544876
   0.50000000  0.50000000  0.96455124
Direct configuration=    13
   0.97567958  0.25000000  0.25000000
   0.98819565  0.75000000  0.75000000
   0.01180435  0.25000000  0.75000000
   0.02432042  0.75000000  0.25000000
   0.18272210  0.18152338  0.97210953
   0.31727891  0.68151796  0.02789177
   0.68272109  0.31848204  0.02789177
   0.81727790  0.81847662  0.97210953
   0.19625596  0.96973404  0.18566919
   0.30374188  0.03026359  0.68567555
   0.69625812  0.96973641  0.68567555
   0.80374404  0.03026596  0.18566919
   0.31727891  0.81848204  0.47210823
   0.18272210  0.31847662  0.52789047
   0.81727790  0.68152338  0.52789047
   0.68272109  0.18151796  0.47210823
   0.30374188  0.46973641  0.81432445
   0.19625596  0.53026596  0.31433081
   0.80374404  0.46973404  0.31433081
   0.69625812  0.53026359  0.81432445
   0.47567890  0.25000000  0.75000000
   0.48819427  0.75000000  0.25000000
   0.51180573  0.25000000  0.25000000
   0.52432110  0.75000000  0.75000000
   0.50000000  0.50000000  0.50594148
   0.50000000  0.00000000  0.99405852
  -0.00000000  0.50000000  0.00594357
  -0.00000000  0.00000000  0.49405643
   0.12498699  0.87968428  0.61221308
   0.12929971  0.11846848  0.37926618
   0.87070029  0.88153152  0.37926618
   0.87501301  0.12031572  0.61221308
   0.87070029  0.61846848  0.12073382
   0.87501301  0.37968428  0.88778692
   0.12498699  0.62031572  0.88778692
   0.12929971  0.38153152  0.12073382
   0.62929931  0.11847038  0.87926836
   0.62498712  0.87968537  0.11221445
   0.37501288  0.12031463  0.11221445
   0.37070069  0.88152962  0.87926836
   0.62498712  0.62031463  0.38778555
   0.62929931  0.38152962  0.62073164
   0.37070069  0.61847038  0.62073164
   0.37501288  0.37968537  0.38778555
   0.75818490  0.75000000  0.75000000
   0.74181567  0.25000000  0.25000000
   0.25818433  0.75000000  0.25000000
   0.24181510  0.25000000  0.75000000
  -0.00000000  0.00000000  0.03541263
  -0.00000000  0.50000000  0.46458737
   0.50000000  0.00000000  0.53542016
   0.50000000  0.50000000  0.96457984
Direct configuration=    14
   0.97569290  0.25000000  0.25000000
   0.98819322  0.75000000  0.75000000
   0.01180678  0.25000000  0.75000000
   0.02430710  0.75000000  0.25000000
   0.18269027  0.18150500  0.97211013
   0.31731074  0.68149958  0.02789117
   0.68268926  0.31850042  0.02789117
   0.81730973  0.81849500  0.97211013
   0.19625004  0.96973502  0.18564938
   0.30374780  0.03026261  0.68565574
   0.69625220  0.96973739  0.68565574
   0.80374996  0.03026498  0.18564938
   0.31731074  0.81850042  0.47210883
   0.18269027  0.31849500  0.52788987
   0.81730973  0.68150500  0.52788987
   0.68268926  0.18149958  0.47210883
   0.30374780  0.46973739  0.81434426
   0.19625004  0.53026498  0.31435062
   0.80374996  0.46973502  0.31435062
   0.69625220  0.53026261  0.81434426
   0.47569222  0.25000000  0.75000000
   0.48819185  0.75000000  0.25000000
   0.51180815  0.25000000  0.25000000
   0.52430778  0.75000000  0.75000000
   0.50000000  0.50000000  0.50595890
   0.50000000  0.00000000  0.99404110
  -0.00000000  0.50000000  0.00596099
  -0.00000000  0.00000000  0.49403901
   0.12497747  0.87967759  0.61218940
   0.12932553  0.11845761  0.37925624
   0.87067447  0.88154239  0.37925624
   0.87502253  0.12032241  0.61218940
   0.87067447  0.61845761  0.12074376
   0.87502253  0.37967759  0.88781060
   0.12497747  0.62032241  0.88781060
   0.12932553  0.38154239  0.12074376
   0.62932513  0.11845950  0.87925842
   0.62497761  0.87967868  0.11219077
   0.37502239  0.12032132  0.11219077
   0.37067487  0.88154050  0.87925842
   0.62497761  0.62032132  0.38780923
   0.62932513  0.38154050  0.62074158
   0.37067487  0.61845950  0.62074158
   0.37502239  0.37967868  0.38780923
   0.75817851  0.75000000  0.75000000
   0.74182206  0.25000000  0.25000000
   0.25817794  0.75000000  0.25000000
   0.24182149  0.25000000  0.75000000
  -0.00000000  0.00000000  0.03536981
  -0.00000000  0.50000000  0.46463019
   0.50000000  0.00000000  0.53537735
   0.50000000  0.50000000  0.96462265
Direct configuration=    15
   0.97571955  0.25000000  0.25000000
   0.98818837  0.75000000  0.75000000
   0.01181163  0.25000000  0.75000000
   0.02428045  0.75000000  0.25000000
   0.18262661  0.18146824  0.97211133
   0.31737440  0.68146282  0.02788997
   0.68262560  0.31853718  0.02788997
   0.81737339  0.81853176  0.97211133
   0.19623819  0.96973698  0.18560976
   0.30375965  0.03026065  0.68561613
   0.69624035  0.96973935  0.68561613
   0.80376181  0.03026302  0.18560976
   0.31737440  0.81853718  0.47211003
   0.18262661  0.31853176  0.52788867
   0.81737339  0.68146824  0.52788867
   0.68262560  0.18146282  0.47211003
   0.30375965  0.46973935  0.81438387
   0.19623819  0.53026302  0.31439024
   0.80376181  0.46973698  0.31439024
   0.69624035  0.53026065  0.81438387
   0.47571887  0.25000000  0.75000000
   0.48818700  0.75000000  0.25000000
   0.51181300  0.25000000  0.25000000
   0.52428113  0.75000000  0.75000000
   0.50000000  0.50000000  0.50599374
   0.50000000  0.00000000  0.99400626
  -0.00000000  0.50000000  0.00599583
  -0.00000000  0.00000000  0.49400417
   0.12495843  0.87966420  0.61214202
   0.12937716  0.11843585  0.37923635
   0.87062284  0.88156415  0.37923635
   0.87504157  0.12033580  0.61214202
   0.87062284  0.61843585  0.12076365
   0.87504157  0.37966420  0.88785798
   0.12495843  0.62033580  0.88785798
   0.12937716  0.38156415  0.12076365
   0.62937676  0.11843774  0.87923854
   0.62495857  0.87966529  0.11214340
   0.37504143  0.12033471  0.11214340
   0.37062324  0.88156226  0.87923854
   0.62495857  0.62033471  0.38785660
   0.62937676  0.38156226  0.62076146
   0.37062324  0.61843774  0.62076146
   0.37504143  0.37966529  0.38785660