  52  52   0  16
  0.1744602E+02  0.9680547E-09  0.9680547E-09  0.9680547E-09  0.2000000E-15
  1.000000000000000E-004
  CAR 
 unknown system                          
     12.55333150    -45.26078567  301      1.97816590      1.00000000
    -45.261  0.0000E+00  0.0000E+00  0.0000E+00  0.0000E+00
    -45.068  0.0000E+00  0.0000E+00  0.0000E+00  0.0000E+00
    -44.875  0.0000E+00  0.0000E+00  0.0000E+00  0.0000E+00
    -44.683  0.0000E+00  0.0000E+00  0.0000E+00  0.0000E+00
    -44.490  0.0000E+00  0.0000E+00  0.0000E+00  0.0000E+00
    -44.297  0.0000E+00  0.0000E+00  0.0000E+00  0.0000E+00
    -44.105  0.0000E+00  0.0000E+00  0.0000E+00  0.0000E+00
    -43.912  0.0000E+00  0.0000E+00  0.0000E+00  0.0000E+00
    -43.719  0.0000E+00  0.0000E+00  0.0000E+00  0.0000E+00
    -43.526  0.0000E+00  0.0000E+00  0.0000E+00  0.0000E+00
    -43.334  0.0000E+00  0.0000E+00  0.0000E+00  0.0000E+00
    -43.141  0.0000E+00  0.0000E+00  0.0000E+00  0.0000E+00
    -42.948  0.0000E+00  0.0000E+00  0.0000E+00  0.0000E+00
    -42.756  0.2037E-10  0.2037E-10  0.3926E-11  0.3926E-11
    -42.563  0.1706E-01  0.1706E-01  0.3288E-02  0.3288E-02
    -42.370  0.5812E-01  0.5812E-01  0.1449E-01  0.1449E-01
    -42.177  0.4931E-01  0.4931E-01  0.2400E-01  0.2400E-01
    -41.985  0.0000E+00  0.0000E+00  0.2400E-01  0.2400E-01
    -41.792  0.0000E+00  0.0000E+00  0.2400E-01  0.2400E-01
    -41.599  0.0000E+00  0.0000E+00  0.2400E-01  0.2400E-01
    -41.407  0.0000E+00  0.0000E+00  0.2400E-01  0.2400E-01
    -41.214  0.0000E+00  0.0000E+00  0.2400E-01  0.2400E-01
    -41.021  0.0000E+00  0.0000E+00  0.2400E-01  0.2400E-01
    -40.828  0.0000E+00  0.0000E+00  0.2400E-01  0.2400E-01
    -40.636  0.0000E+00  0.0000E+00  0.2400E-01  0.2400E-01
    -40.443  0.0000E+00  0.0000E+00  0.2400E-01  0.2400E-01
    -40.250  0.0000E+00  0.0000E+00  0.2400E-01  0.2400E-01
    -40.058  0.0000E+00  0.0000E+00  0.2400E-01  0.2400E-01
    -39.865  0.0000E+00  0.0000E+00  0.2400E-01  0.2400E-01
    -39.672  0.0000E+00  0.0000E+00  0.2400E-01  0.2400E-01
    -39.479  0.0000E+00  0.0000E+00  0.2400E-01  0.2400E-01
    -39.287  0.0000E+00  0.0000E+00  0.2400E-01  0.2400E-01
    -39.094  0.0000E+00  0.0000E+00  0.2400E-01  0.2400E-01
    -38.901  0.0000E+00  0.0000E+00  0.2400E-01  0.2400E-01
    -38.709  0.0000E+00  0.0000E+00  0.2400E-01  0.2400E-01
    -38.516  0.0000E+00  0.0000E+00  0.2400E-01  0.2400E-01
    -38.323  0.0000E+00  0.0000E+00  0.2400E-01  0.2400E-01
    -38.130  0.0000E+00  0.0000E+00  0.2400E-01  0.2400E-01
    -37.938  0.0000E+00  0.0000E+00  0.2400E-01  0.2400E-01
    -37.745  0.0000E+00  0.0000E+00  0.2400E-01  0.2400E-01
    -37.552  0.0000E+00  0.0000E+00  0.2400E-01  0.2400E-01
    -37.360  0.0000E+00  0.0000E+00  0.2400E-01  0.2400E-01
    -37.167  0.0000E+00  0.0000E+00  0.2400E-01  0.2400E-01
    -36.974  0.0000E+00  0.0000E+00  0.2400E-01  0.2400E-01
    -36.781  0.0000E+00  0.0000E+00  0.2400E-01  0.2400E-01
    -36.589  0.0000E+00  0.0000E+00  0.2400E-01  0.2400E-01
    -36.396  0.0000E+00  0.0000E+00  0.2400E-01  0.2400E-01
    -36.203  0.0000E+00  0.0000E+00  0.2400E-01  0.2400E-01
    -36.011  0.0000E+00  0.0000E+00  0.2400E-01  0.2400E-01
    -35.818  0.0000E+00  0.0000E+00  0.2400E-01  0.2400E-01
    -35.625  0.0000E+00  0.0000E+00  0.2400E-01  0.2400E-01
    -35.432  0.0000E+00  0.0000E+00  0.2400E-01  0.2400E-01
    -35.240  0.0000E+00  0.0000E+00  0.2400E-01  0.2400E-01
    -35.047  0.0000E+00  0.0000E+00  0.2400E-01  0.2400E-01
    -34.854  0.0000E+00  0.0000E+00  0.2400E-01  0.2400E-01
    -34.662  0.0000E+00  0.0000E+00  0.2400E-01  0.2400E-01
    -34.469  0.0000E+00  0.0000E+00  0.2400E-01  0.2400E-01
    -34.276  0.0000E+00  0.0000E+00  0.2400E-01  0.2400E-01
    -34.083  0.0000E+00  0.0000E+00  0.2400E-01  0.2400E-01
    -33.891  0.0000E+00  0.0000E+00  0.2400E-01  0.2400E-01
    -33.698  0.0000E+00  0.0000E+00  0.2400E-01  0.2400E-01
    -33.505  0.0000E+00  0.0000E+00  0.2400E-01  0.2400E-01
    -33.313  0.0000E+00  0.0000E+00  0.2400E-01  0.2400E-01
    -33.120  0.0000E+00  0.0000E+00  0.2400E-01  0.2400E-01
    -32.927  0.0000E+00  0.0000E+00  0.2400E-01  0.2400E-01
    -32.734  0.0000E+00  0.0000E+00  0.2400E-01  0.2400E-01
    -32.542  0.0000E+00  0.0000E+00  0.2400E-01  0.2400E-01
    -32.349  0.0000E+00  0.0000E+00  0.2400E-01  0.2400E-01
    -32.156  0.0000E+00  0.0000E+00  0.2400E-01  0.2400E-01
    -31.964  0.0000E+00  0.0000E+00  0.2400E-01  0.2400E-01
    -31.771  0.0000E+00  0.0000E+00  0.2400E-01  0.2400E-01
    -31.578  0.0000E+00  0.0000E+00  0.2400E-01  0.2400E-01
    -31.385  0.0000E+00  0.0000E+00  0.2400E-01  0.2400E-01
    -31.193  0.0000E+00  0.0000E+00  0.2400E-01  0.2400E-01
    -31.000  0.0000E+00  0.0000E+00  0.2400E-01  0.2400E-01
    -30.807  0.0000E+00  0.0000E+00  0.2400E-01  0.2400E-01
    -30.615  0.0000E+00  0.0000E+00  0.2400E-01  0.2400E-01
    -30.422  0.0000E+00  0.0000E+00  0.2400E-01  0.2400E-01
    -30.229  0.0000E+00  0.0000E+00  0.2400E-01  0.2400E-01
    -30.036  0.0000E+00  0.0000E+00  0.2400E-01  0.2400E-01
    -29.844  0.0000E+00  0.0000E+00  0.2400E-01  0.2400E-01
    -29.651  0.0000E+00  0.0000E+00  0.2400E-01  0.2400E-01
    -29.458  0.0000E+00  0.0000E+00  0.2400E-01  0.2400E-01
    -29.266  0.0000E+00  0.0000E+00  0.2400E-01  0.2400E-01
    -29.073  0.0000E+00  0.0000E+00  0.2400E-01  0.2400E-01
    -28.880  0.0000E+00  0.0000E+00  0.2400E-01  0.2400E-01
    -28.687  0.0000E+00  0.0000E+00  0.2400E-01  0.2400E-01
    -28.495  0.0000E+00  0.0000E+00  0.2400E-01  0.2400E-01
    -28.302  0.0000E+00  0.0000E+00  0.2400E-01  0.2400E-01
    -28.109  0.0000E+00  0.0000E+00  0.2400E-01  0.2400E-01
    -27.917  0.0000E+00  0.0000E+00  0.2400E-01  0.2400E-01
    -27.724  0.0000E+00  0.0000E+00  0.2400E-01  0.2400E-01
    -27.531  0.0000E+00  0.0000E+00  0.2400E-01  0.2400E-01
    -27.338  0.0000E+00  0.0000E+00  0.2400E-01  0.2400E-01
    -27.146  0.0000E+00  0.0000E+00  0.2400E-01  0.2400E-01
    -26.953  0.0000E+00  0.0000E+00  0.2400E-01  0.2400E-01
    -26.760  0.0000E+00  0.0000E+00  0.2400E-01  0.2400E-01
    -26.568  0.0000E+00  0.0000E+00  0.2400E-01  0.2400E-01
    -26.375  0.0000E+00  0.0000E+00  0.2400E-01  0.2400E-01
    -26.182  0.0000E+00  0.0000E+00  0.2400E-01  0.2400E-01
    -25.989  0.0000E+00  0.0000E+00  0.2400E-01  0.2400E-01
    -25.797  0.0000E+00  0.0000E+00  0.2400E-01  0.2400E-01
    -25.604  0.0000E+00  0.0000E+00  0.2400E-01  0.2400E-01
    -25.411  0.0000E+00  0.0000E+00  0.2400E-01  0.2400E-01
    -25.219  0.0000E+00  0.0000E+00  0.2400E-01  0.2400E-01
    -25.026  0.0000E+00  0.0000E+00  0.2400E-01  0.2400E-01
    -24.833  0.0000E+00  0.0000E+00  0.2400E-01  0.2400E-01
    -24.640  0.0000E+00  0.0000E+00  0.2400E-01  0.2400E-01
    -24.448  0.0000E+00  0.0000E+00  0.2400E-01  0.2400E-01
    -24.255  0.0000E+00  0.0000E+00  0.2400E-01  0.2400E-01
    -24.062  0.0000E+00  0.0000E+00  0.2400E-01  0.2400E-01
    -23.870  0.0000E+00  0.0000E+00  0.2400E-01  0.2400E-01
    -23.677  0.0000E+00  0.0000E+00  0.2400E-01  0.2400E-01
    -23.484  0.0000E+00  0.0000E+00  0.2400E-01  0.2400E-01
    -23.291  0.0000E+00  0.0000E+00  0.2400E-01  0.2400E-01
    -23.099  0.0000E+00  0.0000E+00  0.2400E-01  0.2400E-01
    -22.906  0.0000E+00  0.0000E+00  0.2400E-01  0.2400E-01
    -22.713  0.0000E+00  0.0000E+00  0.2400E-01  0.2400E-01
    -22.521  0.0000E+00  0.0000E+00  0.2400E-01  0.2400E-01
    -22.328  0.0000E+00  0.0000E+00  0.2400E-01  0.2400E-01
    -22.135  0.0000E+00  0.0000E+00  0.2400E-01  0.2400E-01
    -21.942  0.0000E+00  0.0000E+00  0.2400E-01  0.2400E-01
    -21.750  0.0000E+00  0.0000E+00  0.2400E-01  0.2400E-01
    -21.557  0.0000E+00  0.0000E+00  0.2400E-01  0.2400E-01
    -21.364  0.0000E+00  0.0000E+00  0.2400E-01  0.2400E-01
    -21.172  0.0000E+00  0.0000E+00  0.2400E-01  0.2400E-01
    -20.979  0.0000E+00  0.0000E+00  0.2400E-01  0.2400E-01
    -20.786  0.0000E+00  0.0000E+00  0.2400E-01  0.2400E-01
    -20.593  0.0000E+00  0.0000E+00  0.2400E-01  0.2400E-01
    -20.401  0.0000E+00  0.0000E+00  0.2400E-01  0.2400E-01
    -20.208  0.0000E+00  0.0000E+00  0.2400E-01  0.2400E-01
    -20.015  0.0000E+00  0.0000E+00  0.2400E-01  0.2400E-01
    -19.823  0.0000E+00  0.0000E+00  0.2400E-01  0.2400E-01
    -19.630  0.0000E+00  0.0000E+00  0.2400E-01  0.2400E-01
    -19.437  0.0000E+00  0.0000E+00  0.2400E-01  0.2400E-01
    -19.244  0.0000E+00  0.0000E+00  0.2400E-01  0.2400E-01
    -19.052  0.0000E+00  0.0000E+00  0.2400E-01  0.2400E-01
    -18.859  0.0000E+00  0.0000E+00  0.2400E-01  0.2400E-01
    -18.666  0.0000E+00  0.0000E+00  0.2400E-01  0.2400E-01
    -18.474  0.0000E+00  0.0000E+00  0.2400E-01  0.2400E-01
    -18.281  0.0000E+00  0.0000E+00  0.2400E-01  0.2400E-01
    -18.088  0.0000E+00  0.0000E+00  0.2400E-01  0.2400E-01
    -17.895  0.0000E+00  0.0000E+00  0.2400E-01  0.2400E-01
    -17.703  0.0000E+00  0.0000E+00  0.2400E-01  0.2400E-01
    -17.510  0.0000E+00  0.0000E+00  0.2400E-01  0.2400E-01
    -17.317  0.0000E+00  0.0000E+00  0.2400E-01  0.2400E-01
    -17.125  0.0000E+00  0.0000E+00  0.2400E-01  0.2400E-01
    -16.932  0.0000E+00  0.0000E+00  0.2400E-01  0.2400E-01
    -16.739  0.0000E+00  0.0000E+00  0.2400E-01  0.2400E-01
    -16.546  0.0000E+00  0.0000E+00  0.2400E-01  0.2400E-01
    -16.354  0.0000E+00  0.0000E+00  0.2400E-01  0.2400E-01
    -16.161  0.0000E+00  0.0000E+00  0.2400E-01  0.2400E-01
    -15.968  0.0000E+00  0.0000E+00  0.2400E-01  0.2400E-01
    -15.776  0.0000E+00  0.0000E+00  0.2400E-01  0.2400E-01
    -15.583  0.0000E+00  0.0000E+00  0.2400E-01  0.2400E-01
    -15.390  0.0000E+00  0.0000E+00  0.2400E-01  0.2400E-01
    -15.197  0.0000E+00  0.0000E+00  0.2400E-01  0.2400E-01
    -15.005  0.0000E+00  0.0000E+00  0.2400E-01  0.2400E-01
    -14.812  0.0000E+00  0.0000E+00  0.2400E-01  0.2400E-01
    -14.619  0.0000E+00  0.0000E+00  0.2400E-01  0.2400E-01
    -14.427  0.0000E+00  0.0000E+00  0.2400E-01  0.2400E-01
    -14.234  0.0000E+00  0.0000E+00  0.2400E-01  0.2400E-01
    -14.041  0.0000E+00  0.0000E+00  0.2400E-01  0.2400E-01
    -13.848  0.0000E+00  0.0000E+00  0.2400E-01  0.2400E-01
    -13.656  0.0000E+00  0.0000E+00  0.2400E-01  0.2400E-01
    -13.463  0.0000E+00  0.0000E+00  0.2400E-01  0.2400E-01
    -13.270  0.0000E+00  0.0000E+00  0.2400E-01  0.2400E-01
    -13.078  0.2806E-02  0.2806E-02  0.2454E-01  0.2454E-01
    -12.885  0.1795E-01  0.1795E-01  0.2800E-01  0.2800E-01
    -12.692  0.7010E-04  0.7010E-04  0.2801E-01  0.2801E-01
    -12.499  0.1990E-01  0.1990E-01  0.3185E-01  0.3185E-01
    -12.307  0.7835E-03  0.7835E-03  0.3200E-01  0.3200E-01
    -12.114  0.0000E+00  0.0000E+00  0.3200E-01  0.3200E-01
    -11.921  0.0000E+00  0.0000E+00  0.3200E-01  0.3200E-01
    -11.729  0.0000E+00  0.0000E+00  0.3200E-01  0.3200E-01
    -11.536  0.0000E+00  0.0000E+00  0.3200E-01  0.3200E-01
    -11.343  0.0000E+00  0.0000E+00  0.3200E-01  0.3200E-01
    -11.150  0.0000E+00  0.0000E+00  0.3200E-01  0.3200E-01
    -10.958  0.0000E+00  0.0000E+00  0.3200E-01  0.3200E-01
    -10.765  0.0000E+00  0.0000E+00  0.3200E-01  0.3200E-01
    -10.572  0.0000E+00  0.0000E+00  0.3200E-01  0.3200E-01
    -10.380  0.3211E-05  0.3211E-05  0.3200E-01  0.3200E-01
    -10.187  0.1585E-01  0.1585E-01  0.3505E-01  0.3505E-01
     -9.994  0.2848E-01  0.2848E-01  0.4054E-01  0.4054E-01
     -9.801  0.1792E-01  0.1792E-01  0.4400E-01  0.4400E-01
     -9.609  0.0000E+00  0.0000E+00  0.4400E-01  0.4400E-01
     -9.416  0.0000E+00  0.0000E+00  0.4400E-01  0.4400E-01
     -9.223  0.0000E+00  0.0000E+00  0.4400E-01  0.4400E-01
     -9.031  0.0000E+00  0.0000E+00  0.4400E-01  0.4400E-01
     -8.838  0.0000E+00  0.0000E+00  0.4400E-01  0.4400E-01
     -8.645  0.0000E+00  0.0000E+00  0.4400E-01  0.4400E-01
     -8.452  0.3543E-02  0.3543E-02  0.4468E-01  0.4468E-01
     -8.260  0.1721E-01  0.1721E-01  0.4800E-01  0.4800E-01
     -8.067  0.0000E+00  0.0000E+00  0.4800E-01  0.4800E-01
     -7.874  0.0000E+00  0.0000E+00  0.4800E-01  0.4800E-01
     -7.682  0.0000E+00  0.0000E+00  0.4800E-01  0.4800E-01
     -7.489  0.0000E+00  0.0000E+00  0.4800E-01  0.4800E-01
     -7.296  0.0000E+00  0.0000E+00  0.4800E-01  0.4800E-01
     -7.103  0.0000E+00  0.0000E+00  0.4800E-01  0.4800E-01
     -6.911  0.0000E+00  0.0000E+00  0.4800E-01  0.4800E-01
     -6.718  0.0000E+00  0.0000E+00  0.4800E-01  0.4800E-01
     -6.525  0.0000E+00  0.0000E+00  0.4800E-01  0.4800E-01
     -6.333  0.9362E-18  0.9362E-18  0.4800E-01  0.4800E-01
     -6.140  0.4037E-02  0.4037E-02  0.4878E-01  0.4878E-01
     -5.947  0.1152E-02  0.1152E-02  0.4900E-01  0.4900E-01
     -5.754  0.2798E-02  0.2798E-02  0.4954E-01  0.4954E-01
     -5.562  0.1277E-01  0.1277E-01  0.5200E-01  0.5200E-01
     -5.369  0.0000E+00  0.0000E+00  0.5200E-01  0.5200E-01
     -5.176  0.0000E+00  0.0000E+00  0.5200E-01  0.5200E-01
     -4.984  0.0000E+00  0.0000E+00  0.5200E-01  0.5200E-01
     -4.791  0.0000E+00  0.0000E+00  0.5200E-01  0.5200E-01
     -4.598  0.0000E+00  0.0000E+00  0.5200E-01  0.5200E-01
     -4.405  0.0000E+00  0.0000E+00  0.5200E-01  0.5200E-01
     -4.213  0.0000E+00  0.0000E+00  0.5200E-01  0.5200E-01
     -4.020  0.0000E+00  0.0000E+00  0.5200E-01  0.5200E-01
     -3.827  0.0000E+00  0.0000E+00  0.5200E-01  0.5200E-01
     -3.635  0.0000E+00  0.0000E+00  0.5200E-01  0.5200E-01
     -3.442  0.2736E-17  0.2736E-17  0.5200E-01  0.5200E-01
     -3.249  0.4957E-02  0.4957E-02  0.5296E-01  0.5296E-01
     -3.056  0.1061E-01  0.1061E-01  0.5500E-01  0.5500E-01
     -2.864  0.4062E-02  0.4062E-02  0.5578E-01  0.5578E-01
     -2.671  0.1104E-01  0.1104E-01  0.5791E-01  0.5791E-01
     -2.478  0.1322E-01  0.1322E-01  0.6046E-01  0.6046E-01
     -2.286  0.1829E-01  0.1829E-01  0.6398E-01  0.6398E-01
     -2.093  0.6885E-04  0.6885E-04  0.6400E-01  0.6400E-01
     -1.900  0.0000E+00  0.0000E+00  0.6400E-01  0.6400E-01
     -1.707  0.0000E+00  0.0000E+00  0.6400E-01  0.6400E-01
     -1.515  0.2560E-02  0.2560E-02  0.6449E-01  0.6449E-01
     -1.322  0.3304E-01  0.3304E-01  0.7086E-01  0.7086E-01
     -1.129  0.2033E-01  0.2033E-01  0.7479E-01  0.7479E-01
     -0.937  0.6300E-02  0.6300E-02  0.7600E-01  0.7600E-01
     -0.744  0.2235E-14  0.2235E-14  0.7600E-01  0.7600E-01
     -0.551  0.7933E-02  0.7933E-02  0.7753E-01  0.7753E-01
     -0.358  0.1091E-01  0.1091E-01  0.7963E-01  0.7963E-01
     -0.166  0.1283E-01  0.1283E-01  0.8210E-01  0.8210E-01
      0.027  0.2838E-01  0.2838E-01  0.8757E-01  0.8757E-01
      0.220  0.2710E-01  0.2710E-01  0.9280E-01  0.9280E-01
      0.412  0.1600E-01  0.1600E-01  0.9589E-01  0.9589E-01
      0.605  0.5735E-03  0.5735E-03  0.9600E-01  0.9600E-01
      0.798  0.1218E-01  0.1218E-01  0.9835E-01  0.9835E-01
      0.991  0.2224E-01  0.2224E-01  0.1026E+00  0.1026E+00
      1.183  0.2333E-01  0.2333E-01  0.1071E+00  0.1071E+00
      1.376  0.2829E-01  0.2829E-01  0.1126E+00  0.1126E+00
      1.569  0.2838E-01  0.2838E-01  0.1181E+00  0.1181E+00
      1.761  0.1005E-01  0.1005E-01  0.1200E+00  0.1200E+00
      1.954  0.0000E+00  0.0000E+00  0.1200E+00  0.1200E+00
      2.147  0.0000E+00  0.0000E+00  0.1200E+00  0.1200E+00
      2.340  0.0000E+00  0.0000E+00  0.1200E+00  0.1200E+00
      2.532  0.0000E+00  0.0000E+00  0.1200E+00  0.1200E+00
      2.725  0.0000E+00  0.0000E+00  0.1200E+00  0.1200E+00
      2.918  0.0000E+00  0.0000E+00  0.1200E+00  0.1200E+00
      3.110  0.0000E+00  0.0000E+00  0.1200E+00  0.1200E+00
      3.303  0.0000E+00  0.0000E+00  0.1200E+00  0.1200E+00
      3.496  0.0000E+00  0.0000E+00  0.1200E+00  0.1200E+00
      3.689  0.0000E+00  0.0000E+00  0.1200E+00  0.1200E+00
      3.881  0.0000E+00  0.0000E+00  0.1200E+00  0.1200E+00
      4.074  0.0000E+00  0.0000E+00  0.1200E+00  0.1200E+00
      4.267  0.1774E-08  0.1774E-08  0.1200E+00  0.1200E+00
      4.459  0.5184E-02  0.5184E-02  0.1210E+00  0.1210E+00
      4.652  0.0000E+00  0.0000E+00  0.1210E+00  0.1210E+00
      4.845  0.0000E+00  0.0000E+00  0.1210E+00  0.1210E+00
      5.037  0.7702E-14  0.7702E-14  0.1210E+00  0.1210E+00
      5.230  0.5727E-02  0.5727E-02  0.1221E+00  0.1221E+00
      5.423  0.9826E-02  0.9826E-02  0.1240E+00  0.1240E+00
      5.616  0.0000E+00  0.0000E+00  0.1240E+00  0.1240E+00
      5.808  0.4083E-03  0.4083E-03  0.1241E+00  0.1241E+00
      6.001  0.1440E-01  0.1440E-01  0.1269E+00  0.1269E+00
      6.194  0.1426E-01  0.1426E-01  0.1296E+00  0.1296E+00
      6.386  0.2133E-02  0.2133E-02  0.1300E+00  0.1300E+00
      6.579  0.1342E-01  0.1342E-01  0.1326E+00  0.1326E+00
      6.772  0.7717E-02  0.7717E-02  0.1341E+00  0.1341E+00
      6.965  0.9900E-02  0.9900E-02  0.1360E+00  0.1360E+00
      7.157  0.5187E-02  0.5187E-02  0.1370E+00  0.1370E+00
      7.350  0.4569E-02  0.4569E-02  0.1379E+00  0.1379E+00
      7.543  0.9503E-02  0.9503E-02  0.1397E+00  0.1397E+00
      7.735  0.1305E-01  0.1305E-01  0.1422E+00  0.1422E+00
      7.928  0.9155E-02  0.9155E-02  0.1440E+00  0.1440E+00
      8.121  0.1175E-01  0.1175E-01  0.1463E+00  0.1463E+00
      8.314  0.1771E-01  0.1771E-01  0.1497E+00  0.1497E+00
      8.506  0.1792E-01  0.1792E-01  0.1531E+00  0.1531E+00
      8.699  0.1439E-01  0.1439E-01  0.1559E+00  0.1559E+00
      8.892  0.1578E-01  0.1578E-01  0.1589E+00  0.1589E+00
      9.084  0.1541E-01  0.1541E-01  0.1619E+00  0.1619E+00
      9.277  0.1688E-01  0.1688E-01  0.1652E+00  0.1652E+00
      9.470  0.2083E-01  0.2087E-01  0.1692E+00  0.1692E+00
      9.663  0.1865E-01  0.1864E-01  0.1728E+00  0.1728E+00
      9.855  0.1285E-01  0.1283E-01  0.1753E+00  0.1753E+00
     10.048  0.3861E-02  0.3855E-02  0.1760E+00  0.1760E+00
     10.241  0.0000E+00  0.0000E+00  0.1760E+00  0.1760E+00
     10.433  0.0000E+00  0.0000E+00  0.1760E+00  0.1760E+00
     10.626  0.0000E+00  0.0000E+00  0.1760E+00  0.1760E+00
     10.819  0.0000E+00  0.0000E+00  0.1760E+00  0.1760E+00
     11.012  0.0000E+00  0.0000E+00  0.1760E+00  0.1760E+00
     11.204  0.0000E+00  0.0000E+00  0.1760E+00  0.1760E+00
     11.397  0.0000E+00  0.0000E+00  0.1760E+00  0.1760E+00
     11.590  0.0000E+00  0.0000E+00  0.1760E+00  0.1760E+00
     11.782  0.0000E+00  0.0000E+00  0.1760E+00  0.1760E+00
     11.975  0.0000E+00  0.0000E+00  0.1760E+00  0.1760E+00
     12.168  0.0000E+00  0.0000E+00  0.1760E+00  0.1760E+00
     12.361  0.0000E+00  0.0000E+00  0.1760E+00  0.1760E+00
     12.553  0.0000E+00  0.0000E+00  0.1760E+00  0.1760E+00
