 vasp.6.4.1 05Apr23 (build Jun 07 2023 15:38:11) complex                        
  
 executed on             LinuxIFC date 2023.10.20  08:27:03
 running  128 mpi-ranks, with    1 threads/rank, on    1 nodes
 distrk:  each k-point on  128 cores,    1 groups
 distr:  one band on NCORE=  32 cores,    4 groups


--------------------------------------------------------------------------------------------------------


 INCAR:
   GGA = PE
   PREC = Accu
   EDIFF = 1.e-6
   EDIFFG = -1.e-3
   ENCUT = 520.
   NELM = 100
   NELMDL = -10
   LASPH = .TRUE.
   LREAL = Auto
   LMAXMIX = 4
   ISPIN = 2
   LDIAG = .TRUE.
   LPLANE = .TRUE.
   IVDW = 12
   SIGMA = 0.03
   ISMEAR = 0
   NSW = 1000    number of steps for IOM
   IBRION = 2    ionic relax: 0-MD 1-quasi-New 2-CG
   ISIF = 2    ionic relaxation + stress tensor calcn.
   LCHARG = .FALSE.
   LWAVE = .FALSE.
   ALGO = F
   KPAR = 1
   NPAR = 4
   POTIM = 0.2

 POTCAR:    PAW_PBE Li_sv_GW 25Mar2010            
 POTCAR:    PAW_PBE P_GW 19Mar2012                
 POTCAR:    PAW_PBE S_GW 19Mar2012                
 POTCAR:    PAW_PBE Cl_GW 19Mar2012               
 -----------------------------------------------------------------------------
|                                                                             |
|           W    W    AA    RRRRR   N    N  II  N    N   GGGG   !!!           |
|           W    W   A  A   R    R  NN   N  II  NN   N  G    G  !!!           |
|           W    W  A    A  R    R  N N  N  II  N N  N  G       !!!           |
|           W WW W  AAAAAA  RRRRR   N  N N  II  N  N N  G  GGG   !            |
|           WW  WW  A    A  R   R   N   NN  II  N   NN  G    G                |
|           W    W  A    A  R    R  N    N  II  N    N   GGGG   !!!           |
|                                                                             |
|     You use a magnetic or noncollinear calculation, but did not specify     |
|     the initial magnetic moment with the MAGMOM tag. Note that a            |
|     default of 1 will be used for all atoms. This ferromagnetic setup       |
|     may break the symmetry of the crystal, in particular it may rule        |
|     out finding an antiferromagnetic solution. Thence, we recommend         |
|     setting the initial magnetic moment manually or verifying carefully     |
|     that this magnetic setup is desired.                                    |
|                                                                             |
 -----------------------------------------------------------------------------

 POTCAR:    PAW_PBE Li_sv_GW 25Mar2010            
   SHA256 =  24a6ace15a582615486b36ce4dc781b048409f4015b7684ed1273ae395fa2fdc Li_sv_GW/POTCAR       
   COPYR  = (c) Copyright 25Mar2010 Georg Kresse                                                    
   COPYR  = This file is part of the software VASP. Any use, copying, and all other rights are regul
   COPYR  = If you do not have a valid VASP license, you may not use, copy or distribute this file. 
   VRHFIN =Li: 1s2s                                                                                 
   LEXCH  = PE                                                                                      
   EATOM  =   200.9989 eV,   14.7730 Ry                                                             
                                                                                                    
   TITEL  = PAW_PBE Li_sv_GW 25Mar2010                                                              
   LULTRA =        F    use ultrasoft PP ?                                                          
   IUNSCR =        0    unscreen: 0-lin 1-nonlin 2-no                                               
   RPACOR =    0.000    partial core radius                                                         
   POMASS =    7.010; ZVAL   =    3.000    mass and valenz                                          
   RCORE  =    1.500    outmost cutoff radius                                                       
   RWIGS  =    1.600; RWIGS  =    0.847    wigner-seitz radius (au A)                               
   ENMAX  =  433.699; ENMIN  =  325.274 eV                                                          
   RCLOC  =    1.003    cutoff for local pot                                                        
   LCOR   =        T    correct aug charges                                                         
   LPAW   =        T    paw PP                                                                      
   EAUG   = 1041.699                                                                                
   RMAX   =    1.536    core radius for proj-oper                                                   
   RAUG   =    1.300    factor for augmentation sphere                                              
   RDEP   =    1.520    radius for radial grids                                                     
   RDEPT  =    1.300    core radius for aug-charge                                                  
                                                                                                    
   Atomic configuration                                                                             
    4 entries                                                                                       
     n  l   j            E        occ.                                                              
     1  0  0.50       -53.3604   2.0000                                                             
     1  0  0.50       -52.0001   0.0000                                                             
     2  1  0.50        -1.5636   1.0000                                                             
     3  2  1.50        -1.3606   0.0000                                                             
   Description                                                                                      
     l       E           TYP  RCUT    TYP  RCUT                                                     
     0    -53.3603633     23  1.200                                                                 
     0    -52.0001064     23  1.200                                                                 
     0    176.8757380     23  1.300                                                                 
     1     -1.5635925     23  1.500                                                                 
     1    108.8466080     23  1.500                                                                 
     2     81.6349560     23  1.500                                                                 
  local pseudopotential read in
  kinetic energy density of atom read in
  atomic valenz-charges read in
  non local Contribution for L=           0  read in
    real space projection operators read in
  non local Contribution for L=           0  read in
    real space projection operators read in
  non local Contribution for L=           0  read in
    real space projection operators read in
  non local Contribution for L=           1  read in
    real space projection operators read in
  non local Contribution for L=           1  read in
    real space projection operators read in
  non local Contribution for L=           2  read in
    real space projection operators read in
    PAW grid and wavefunctions read in
 
   number of l-projection  operators is LMAX  =           6
   number of lm-projection operators is LMMAX =          14
 
 POTCAR:    PAW_PBE P_GW 19Mar2012                
   SHA256 =  715c28f2291d37b61637ce89646c59f66f71c8b8d8bfba631e5feb9f7b42defe P_GW/POTCAR           
   COPYR  = (c) Copyright 19Mar2012 Georg Kresse                                                    
   COPYR  = This file is part of the software VASP. Any use, copying, and all other rights are regul
   COPYR  = If you do not have a valid VASP license, you may not use, copy or distribute this file. 
   VRHFIN =P : s2p3                                                                                 
   LEXCH  = PE                                                                                      
   EATOM  =   176.0430 eV,   12.9388 Ry                                                             
                                                                                                    
   TITEL  = PAW_PBE P_GW 19Mar2012                                                                  
   LULTRA =        F    use ultrasoft PP ?                                                          
   IUNSCR =        1    unscreen: 0-lin 1-nonlin 2-no                                               
   RPACOR =    1.400    partial core radius                                                         
   POMASS =   30.974; ZVAL   =    5.000    mass and valenz                                          
   RCORE  =    2.000    outmost cutoff radius                                                       
   RWIGS  =    1.900; RWIGS  =    1.005    wigner-seitz radius (au A)                               
   ENMAX  =  255.040; ENMIN  =  191.280 eV                                                          
   ICORE  =        3    local potential                                                             
   LCOR   =        T    correct aug charges                                                         
   LPAW   =        T    paw PP                                                                      
   EAUG   =  499.732                                                                                
   DEXC   =    0.000                                                                                
   RMAX   =    2.047    core radius for proj-oper                                                   
   RAUG   =    1.300    factor for augmentation sphere                                              
   RDEP   =    2.059    radius for radial grids                                                     
   RDEPT  =    1.900    core radius for aug-charge                                                  
                                                                                                    
   Atomic configuration                                                                             
    7 entries                                                                                       
     n  l   j            E        occ.                                                              
     1  0  0.50     -2084.0982   2.0000                                                             
     2  0  0.50      -173.9859   2.0000                                                             
     2  1  1.50      -124.4865   6.0000                                                             
     3  0  0.50       -13.9692   2.0000                                                             
     3  1  0.50        -5.5067   3.0000                                                             
     3  2  1.50        -6.8029   0.0000                                                             
     4  3  2.50        -1.3606   0.0000                                                             
   Description                                                                                      
     l       E           TYP  RCUT    TYP  RCUT                                                     
     0    -13.9691528     23  1.900                                                                 
     0    102.0436950     23  1.900                                                                 
     1     -5.5066939     23  1.900                                                                 
     1    102.0436950     23  1.900                                                                 
     2     -8.1634956     23  2.000                                                                 
     2     81.6349560     23  2.000                                                                 
     3     27.2116520     23  2.000                                                                 
  local pseudopotential read in
  partial core-charges read in
  partial kinetic energy density read in
  kinetic energy density of atom read in
  atomic valenz-charges read in
  non local Contribution for L=           0  read in
    real space projection operators read in
  non local Contribution for L=           0  read in
    real space projection operators read in
  non local Contribution for L=           1  read in
    real space projection operators read in
  non local Contribution for L=           1  read in
    real space projection operators read in
  non local Contribution for L=           2  read in
    real space projection operators read in
  non local Contribution for L=           2  read in
    real space projection operators read in
    PAW grid and wavefunctions read in
 
   number of l-projection  operators is LMAX  =           6
   number of lm-projection operators is LMMAX =          18
 
 POTCAR:    PAW_PBE S_GW 19Mar2012                
   SHA256 =  357db9cfb0783579b2eebe03197c2d807131fea8ea663b1fcfb6ce2fa75af011 S_GW/POTCAR           
   COPYR  = (c) Copyright 19Mar2012 Georg Kresse                                                    
   COPYR  = This file is part of the software VASP. Any use, copying, and all other rights are regul
   COPYR  = If you do not have a valid VASP license, you may not use, copy or distribute this file. 
   VRHFIN =S : s2p4                                                                                 
   LEXCH  = PE                                                                                      
   EATOM  =   276.8230 eV,   20.3459 Ry                                                             
                                                                                                    
   TITEL  = PAW_PBE S_GW 19Mar2012                                                                  
   LULTRA =        F    use ultrasoft PP ?                                                          
   IUNSCR =        1    unscreen: 0-lin 1-nonlin 2-no                                               
   RPACOR =    1.400    partial core radius                                                         
   POMASS =   32.066; ZVAL   =    6.000    mass and valenz                                          
   RCORE  =    1.900    outmost cutoff radius                                                       
   RWIGS  =    1.900; RWIGS  =    1.005    wigner-seitz radius (au A)                               
   ENMAX  =  258.689; ENMIN  =  194.016 eV                                                          
   ICORE  =        3    local potential                                                             
   LCOR   =        T    correct aug charges                                                         
   LPAW   =        T    paw PP                                                                      
   EAUG   =  488.319                                                                                
   DEXC   =    0.000                                                                                
   RMAX   =    1.942    core radius for proj-oper                                                   
   RAUG   =    1.300    factor for augmentation sphere                                              
   RDEP   =    1.954    radius for radial grids                                                     
   RDEPT  =    1.900    core radius for aug-charge                                                  
                                                                                                    
   Atomic configuration                                                                             
    7 entries                                                                                       
     n  l   j            E        occ.                                                              
     1  0  0.50     -2405.8406   2.0000                                                             
     2  0  0.50      -211.7007   2.0000                                                             
     2  1  1.50      -156.4958   6.0000                                                             
     3  0  0.50       -17.2562   2.0000                                                             
     3  1  0.50        -7.0085   4.0000                                                             
     3  2  1.50        -8.1635   0.0000                                                             
     4  3  2.50        -1.3606   0.0000                                                             
   Description                                                                                      
     l       E           TYP  RCUT    TYP  RCUT                                                     
     0    -17.2561639     23  1.700                                                                 
     0     88.4378690     23  1.900                                                                 
     1     -7.0085399     23  1.900                                                                 
     1     88.4378690     23  1.900                                                                 
     2    -10.8846608     23  1.900                                                                 
     2     54.4233040     23  1.900                                                                 
     3     27.2116520     23  1.800                                                                 
  local pseudopotential read in
  partial core-charges read in
  partial kinetic energy density read in
  kinetic energy density of atom read in
  atomic valenz-charges read in
  non local Contribution for L=           0  read in
    real space projection operators read in
  non local Contribution for L=           0  read in
    real space projection operators read in
  non local Contribution for L=           1  read in
    real space projection operators read in
  non local Contribution for L=           1  read in
    real space projection operators read in
  non local Contribution for L=           2  read in
    real space projection operators read in
  non local Contribution for L=           2  read in
    real space projection operators read in
    PAW grid and wavefunctions read in
 
   number of l-projection  operators is LMAX  =           6
   number of lm-projection operators is LMMAX =          18
 
 POTCAR:    PAW_PBE Cl_GW 19Mar2012               
   SHA256 =  3ef3b3169d6a9a89979f58b4cf17d927a58518fc660d8883d88cacaee8175441 Cl_GW/POTCAR          
   COPYR  = (c) Copyright 19Mar2012 Georg Kresse                                                    
   COPYR  = This file is part of the software VASP. Any use, copying, and all other rights are regul
   COPYR  = If you do not have a valid VASP license, you may not use, copy or distribute this file. 
   VRHFIN =Cl: s2p5                                                                                 
   LEXCH  = PE                                                                                      
   EATOM  =   409.7259 eV,   30.1140 Ry                                                             
                                                                                                    
   TITEL  = PAW_PBE Cl_GW 19Mar2012                                                                 
   LULTRA =        F    use ultrasoft PP ?                                                          
   IUNSCR =        1    unscreen: 0-lin 1-nonlin 2-no                                               
   RPACOR =    1.400    partial core radius                                                         
   POMASS =   35.453; ZVAL   =    7.000    mass and valenz                                          
   RCORE  =    1.900    outmost cutoff radius                                                       
   RWIGS  =    1.900; RWIGS  =    1.005    wigner-seitz radius (au A)                               
   ENMAX  =  262.472; ENMIN  =  196.854 eV                                                          
   ICORE  =        3    local potential                                                             
   LCOR   =        T    correct aug charges                                                         
   LPAW   =        T    paw PP                                                                      
   EAUG   =  456.703                                                                                
   DEXC   =    0.000                                                                                
   RMAX   =    1.945    core radius for proj-oper                                                   
   RAUG   =    1.300    factor for augmentation sphere                                              
   RDEP   =    2.020    radius for radial grids                                                     
   RDEPT  =    1.900    core radius for aug-charge                                                  
                                                                                                    
   Atomic configuration                                                                             
    7 entries                                                                                       
     n  l   j            E        occ.                                                              
     1  0  0.50     -2751.1850   2.0000                                                             
     2  0  0.50      -252.6861   2.0000                                                             
     2  1  1.50      -191.6157   6.0000                                                             
     3  0  0.50       -20.6916   2.0000                                                             
     3  1  0.50        -8.5949   5.0000                                                             
     3  2  1.50        -9.5241   0.0000                                                             
     4  3  2.50        -9.5241   0.0000                                                             
   Description                                                                                      
     l       E           TYP  RCUT    TYP  RCUT                                                     
     0    -20.6915657     23  1.700                                                                 
     0     95.2407820     23  1.800                                                                 
     1     -8.5948577     23  1.900                                                                 
     1     95.2407820     23  1.900                                                                 
     2    -10.8846608     23  1.900                                                                 
     2     54.4233040     23  1.900                                                                 
     3     27.2116520     23  1.900                                                                 
  local pseudopotential read in
  partial core-charges read in
  partial kinetic energy density read in
  kinetic energy density of atom read in
  atomic valenz-charges read in
  non local Contribution for L=           0  read in
    real space projection operators read in
  non local Contribution for L=           0  read in
    real space projection operators read in
  non local Contribution for L=           1  read in
    real space projection operators read in
  non local Contribution for L=           1  read in
    real space projection operators read in
  non local Contribution for L=           2  read in
    real space projection operators read in
  non local Contribution for L=           2  read in
    real space projection operators read in
    PAW grid and wavefunctions read in
 
   number of l-projection  operators is LMAX  =           6
   number of lm-projection operators is LMMAX =          18
 
 Optimization of the real space projectors (new method)

 maximal supplied QI-value         = 25.13
 optimisation between [QCUT,QGAM] = [ 11.56, 23.12] = [ 37.43,149.72] Ry 
 Optimized for a Real-space Cutoff    1.28 Angstroem

   l    n(q)    QCUT    max X(q) W(low)/X(q) W(high)/X(q)  e(spline) 
   0      9    11.561    87.733    0.11E-03    0.32E-04    0.56E-06
   0      9    11.561    82.800    0.11E-03    0.35E-04    0.56E-06
   0      9    11.561     2.509    0.22E-03    0.42E-04    0.79E-06
   1      8    11.561    12.580    0.94E-04    0.26E-03    0.21E-06
   1      8    11.561     1.319    0.33E-04    0.15E-03    0.19E-06
   2      8    11.561     1.993    0.36E-04    0.89E-04    0.26E-06
 Optimization of the real space projectors (new method)

 maximal supplied QI-value         = 18.90
 optimisation between [QCUT,QGAM] = [ 11.53, 23.24] = [ 37.21,151.29] Ry 
 Optimized for a Real-space Cutoff    1.21 Angstroem

   l    n(q)    QCUT    max X(q) W(low)/X(q) W(high)/X(q)  e(spline) 
   0      8    11.527     8.355    0.73E-04    0.70E-04    0.26E-07
   0      8    11.527     1.401    0.17E-03    0.17E-03    0.63E-07
   1      8    11.527     4.747    0.13E-03    0.17E-03    0.11E-06
   1      8    11.527     2.025    0.16E-03    0.18E-03    0.12E-06
   2      7    11.527     3.169    0.51E-04    0.25E-03    0.60E-07
   2      7    11.527     3.441    0.82E-04    0.22E-03    0.14E-06
 Optimization of the real space projectors (new method)

 maximal supplied QI-value         = 19.84
 optimisation between [QCUT,QGAM] = [ 11.51, 23.22] = [ 37.09,150.92] Ry 
 Optimized for a Real-space Cutoff    1.49 Angstroem

   l    n(q)    QCUT    max X(q) W(low)/X(q) W(high)/X(q)  e(spline) 
   0     10    11.508     7.541    0.34E-04    0.13E-04    0.69E-07
   0     10    11.508     1.809    0.49E-04    0.27E-04    0.14E-06
   1     10    11.508     4.107    0.27E-05    0.41E-05    0.14E-06
   1     10    11.508     2.196    0.26E-05    0.25E-05    0.22E-06
   2      9    11.508     4.265    0.18E-03    0.11E-03    0.81E-06
   2      9    11.508     1.925    0.97E-04    0.76E-04    0.47E-06
 Optimization of the real space projectors (new method)

 maximal supplied QI-value         = 19.84
 optimisation between [QCUT,QGAM] = [ 11.51, 23.22] = [ 37.09,150.92] Ry 
 Optimized for a Real-space Cutoff    1.21 Angstroem

   l    n(q)    QCUT    max X(q) W(low)/X(q) W(high)/X(q)  e(spline) 
   0      8    11.508     6.761    0.57E-04    0.57E-04    0.35E-07
   0      8    11.508     1.642    0.14E-03    0.14E-03    0.91E-07
   1      8    11.508     3.519    0.20E-04    0.72E-04    0.47E-07
   1      8    11.508     2.150    0.27E-04    0.11E-03    0.89E-07
   2      7    11.508     2.976    0.19E-03    0.33E-03    0.16E-06
   2      7    11.508     1.494    0.14E-03    0.29E-03    0.14E-06
  PAW_PBE Li_sv_GW 25Mar2010            :
 energy of atom  1       EATOM= -200.9989
 kinetic energy error for atom=    0.0127 (will be added to EATOM!!)
  PAW_PBE P_GW 19Mar2012                :
 energy of atom  2       EATOM= -176.0430
 kinetic energy error for atom=    0.0011 (will be added to EATOM!!)
  PAW_PBE S_GW 19Mar2012                :
 energy of atom  3       EATOM= -276.8230
 kinetic energy error for atom=    0.0024 (will be added to EATOM!!)
  PAW_PBE Cl_GW 19Mar2012               :
 energy of atom  4       EATOM= -409.7259
 kinetic energy error for atom=    0.0030 (will be added to EATOM!!)
 
 
 POSCAR: Li24 P4 S20 Cl4
  positions in direct lattice
  velocities in cartesian coordinates
 exchange correlation table for  LEXCH =        8
   RHO(1)=    0.500       N(1)  =     2000
   RHO(2)=  100.500       N(2)  =     4000

 VTST: version 4.1, (05/19/21)

 CHAIN: initializing optimizer
 
 OPT: Using VASP Conjugate-Gradient optimizer
 CHAIN: Read ICHAIN            0
 
 POSCAR: Li24 P4 S20 Cl4
  positions in direct lattice
  velocities in cartesian coordinates
 


--------------------------------------------------------------------------------------------------------


 ion  position               nearest neighbor table
   1  0.977  0.304  0.288-
   2  0.972  0.810  0.804-
   3  0.029  0.322  0.684-
   4  0.016  0.801  0.186-
   5  0.183  0.215  0.974-
   6  0.282  0.696  0.017-
   7  0.826  0.149  0.038-
   8  0.723  0.742  0.979-
   9  0.224  0.982  0.180-
  10  0.189  0.019  0.786-
  11  0.692  0.956  0.671-
  12  0.700  0.015  0.331-
  13  0.328  0.834  0.463-
  14  0.282  0.206  0.512-
  15  0.833  0.660  0.528-
  16  0.785  0.301  0.480-
  17  0.318  0.465  0.803-
  18  0.176  0.547  0.345-
  19  0.679  0.454  0.178-
  20  0.710  0.503  0.810-
  21  0.475  0.180  0.712-
  22  0.475  0.696  0.210-
  23  0.517  0.207  0.298-
  24  0.518  0.717  0.773-
  25  0.496  0.499  0.498-  41 2.05  43 2.05  44 2.05  42 2.06
  26  0.503  0.004  0.997-  37 2.05  39 2.05  38 2.06  40 2.06
  27  0.002  0.494  0.998-  36 2.05  34 2.05  35 2.06  33 2.06
  28  0.000  0.991  0.493-  29 2.05  31 2.05  32 2.05  30 2.06
  29  0.125  0.866  0.611-  28 2.05
  30  0.117  0.112  0.363-  28 2.06
  31  0.876  0.861  0.381-  28 2.05
  32  0.883  0.113  0.620-  28 2.05
  33  0.873  0.612  0.120-  27 2.06
  34  0.887  0.352  0.891-  27 2.05
  35  0.113  0.611  0.860-  27 2.06
  36  0.139  0.398  0.127-  27 2.05
  37  0.642  0.103  0.872-  26 2.05
  38  0.614  0.887  0.135-  26 2.06
  39  0.385  0.145  0.102-  26 2.05
  40  0.376  0.884  0.876-  26 2.06
  41  0.631  0.611  0.379-  25 2.05
  42  0.606  0.373  0.630-  25 2.06
  43  0.366  0.624  0.609-  25 2.05
  44  0.373  0.386  0.368-  25 2.05
  45  0.752  0.734  0.745-
  46  0.749  0.237  0.252-
  47  0.247  0.755  0.246-
  48  0.248  0.244  0.745-
  49  0.029  0.991  0.995-
  50  0.982  0.463  0.486-
  51  0.498  0.027  0.497-
  52  0.507  0.548  0.984-
 
  LATTYP: Found a simple cubic cell.
 ALAT       =     9.6805470691
  
  Lattice vectors:
  
 A1 = (   9.6805470691,   0.0000000000,   0.0000000000)
 A2 = (   0.0000000000,   9.6805470691,   0.0000000000)
 A3 = (   0.0000000000,   0.0000000000,   9.6805470691)


Analysis of symmetry for initial positions (statically):
=====================================================================
 Subroutine PRICEL returns:
 Original cell was already a primitive cell.
 

 Routine SETGRP: Setting up the symmetry group for a 
 simple cubic supercell.


 Subroutine GETGRP returns: Found  1 space group operations
 (whereof  1 operations were pure point group operations)
 out of a pool of 48 trial point group operations.


The static configuration has the point symmetry C_1 .


Analysis of symmetry for dynamics (positions and initial velocities):
=====================================================================
 Subroutine PRICEL returns:
 Original cell was already a primitive cell.
 

 Routine SETGRP: Setting up the symmetry group for a 
 simple cubic supercell.


 Subroutine GETGRP returns: Found  1 space group operations
 (whereof  1 operations were pure point group operations)
 out of a pool of 48 trial point group operations.


The dynamic configuration has the point symmetry C_1 .


Analysis of structural, dynamic, and magnetic symmetry:
=====================================================================
 Subroutine PRICEL returns:
 Original cell was already a primitive cell.
 

 Routine SETGRP: Setting up the symmetry group for a 
 simple cubic supercell.


 Subroutine GETGRP returns: Found  1 space group operations
 (whereof  1 operations were pure point group operations)
 out of a pool of 48 trial point group operations.


The overall configuration has the point symmetry C_1 .


 Subroutine INISYM returns: Found  1 space group operations
 (whereof  1 operations are pure point group operations),
 and found     1 'primitive' translations


----------------------------------------------------------------------------------------

                                     Primitive cell                                     

  volume of cell :     907.1930

  direct lattice vectors                    reciprocal lattice vectors
     9.680547069  0.000000000  0.000000000     0.103299947  0.000000000  0.000000000
     0.000000000  9.680547069  0.000000000     0.000000000  0.103299947  0.000000000
     0.000000000  0.000000000  9.680547069     0.000000000  0.000000000  0.103299947

  length of vectors
     9.680547069  9.680547069  9.680547069     0.103299947  0.103299947  0.103299947

  position of ions in fractional coordinates (direct lattice)
     0.976940753  0.303633708  0.287560488
     0.971666558  0.809942595  0.803961498
     0.029185050  0.321946732  0.684346872
     0.016041384  0.800507866  0.186319421
     0.182791079  0.214831158  0.973616255
     0.282164949  0.695977205  0.016586853
     0.826361368  0.149097730  0.037935625
     0.723284611  0.741594539  0.978625349
     0.223620786  0.981585040  0.180493300
     0.188856835  0.018926678  0.786484417
     0.692462921  0.955620923  0.671343841
     0.699688852  0.015486124  0.331173652
     0.327691995  0.834479510  0.463137309
     0.281811938  0.206163812  0.512450863
     0.833094064  0.660121966  0.527917390
     0.785123038  0.301346932  0.479879740
     0.317938147  0.465071692  0.802552850
     0.176478187  0.546813580  0.344696128
     0.679464354  0.454001330  0.178074891
     0.709801519  0.503153809  0.810441711
     0.475000283  0.180242119  0.711939103
     0.475204073  0.696340779  0.209782940
     0.517012086  0.206627533  0.297584872
     0.517682970  0.716526733  0.773051218
     0.495895401  0.499039254  0.497918141
     0.503052492  0.004449793  0.997185671
     0.001994596  0.494381004  0.998361645
     0.000415741  0.991089675  0.492866304
     0.124912833  0.866483790  0.610684368
     0.116981970  0.112031859  0.362564015
     0.875848774  0.861282766  0.380851132
     0.882616185  0.113111578  0.620250211
     0.872742850  0.612026405  0.119522497
     0.887208825  0.351755679  0.891182105
     0.113114423  0.611311630  0.860352388
     0.139140962  0.397757889  0.126927565
     0.641757457  0.103482043  0.872101896
     0.613861211  0.886990295  0.135449025
     0.385118151  0.145195137  0.102152588
     0.376164195  0.883975390  0.876243560
     0.630633739  0.610520289  0.378762015
     0.605927069  0.373328783  0.629678795
     0.365754611  0.624166741  0.608666255
     0.372612975  0.386024768  0.367834234
     0.751886264  0.733570530  0.744945593
     0.749234845  0.236869749  0.251692058
     0.247223892  0.755369680  0.245572352
     0.247788348  0.244296872  0.744587562
     0.029172102  0.991182825  0.995482973
     0.982431178  0.463393687  0.485976215
     0.497796587  0.026958998  0.497250038
     0.506640965  0.547728960  0.983945573

  ion indices of the primitive-cell ions
   primitive index   ion index
                 1           1
                 2           2
                 3           3
                 4           4
                 5           5
                 6           6
                 7           7
                 8           8
                 9           9
                10          10
                11          11
                12          12
                13          13
                14          14
                15          15
                16          16
                17          17
                18          18
                19          19
                20          20
                21          21
                22          22
                23          23
                24          24
                25          25
                26          26
                27          27
                28          28
                29          29
                30          30
                31          31
                32          32
                33          33
                34          34
                35          35
                36          36
                37          37
                38          38
                39          39
                40          40
                41          41
                42          42
                43          43
                44          44
                45          45
                46          46
                47          47
                48          48
                49          49
                50          50
                51          51
                52          52

----------------------------------------------------------------------------------------

 
 
 KPOINTS: Automatic mesh                          

Automatic generation of k-mesh.
 Grid dimensions read from file:
 generate k-points for:    2    2    2

 Generating k-lattice:

  Cartesian coordinates                     Fractional coordinates (reciprocal lattice)
     0.051649974  0.000000000  0.000000000     0.500000000  0.000000000  0.000000000
     0.000000000  0.051649974  0.000000000     0.000000000  0.500000000  0.000000000
     0.000000000  0.000000000  0.051649974     0.000000000  0.000000000  0.500000000

  Length of vectors
     0.051649974  0.051649974  0.051649974

  Shift w.r.t. Gamma in fractional coordinates (k-lattice)
     0.500000000  0.500000000  0.500000000

 
 Subroutine IBZKPT returns following result:
 ===========================================
 
 Found      4 irreducible k-points:
 
 Following reciprocal coordinates:
            Coordinates               Weight
  0.250000  0.250000  0.250000      2.000000
 -0.250000  0.250000  0.250000      2.000000
 -0.250000 -0.250000  0.250000      2.000000
  0.250000 -0.250000  0.250000      2.000000
 
 Following cartesian coordinates:
            Coordinates               Weight
  0.025825  0.025825  0.025825      2.000000
 -0.025825  0.025825  0.025825      2.000000
 -0.025825 -0.025825  0.025825      2.000000
  0.025825 -0.025825  0.025825      2.000000
 


--------------------------------------------------------------------------------------------------------




 Dimension of arrays:
   k-points           NKPTS =      4   k-points in BZ     NKDIM =      4   number of bands    NBANDS=    176
   number of dos      NEDOS =    301   number of ions     NIONS =     52
   non local maximal  LDIM  =      6   non local SUM 2l+1 LMDIM =     18
   total plane-waves  NPLWV = 373248
   max r-space proj   IRMAX =   5741   max aug-charges    IRDMAX=  17562
   dimension x,y,z NGX =    72 NGY =   72 NGZ =   72
   dimension x,y,z NGXF=   144 NGYF=  144 NGZF=  144
   support grid    NGXF=   144 NGYF=  144 NGZF=  144
   ions per type =              24   4  20   4
   NGX,Y,Z   is equivalent  to a cutoff of  12.36, 12.36, 12.36 a.u.
   NGXF,Y,Z  is equivalent  to a cutoff of  24.73, 24.73, 24.73 a.u.

 SYSTEM =  unknown system                          
 POSCAR =  Li24 P4 S20 Cl4                         

 Startparameter for this run:
   NWRITE =      2    write-flag & timer
   PREC   = accu      normal or accurate (medium, high low for compatibility)
   ISTART =      0    job   : 0-new  1-cont  2-samecut
   ICHARG =      2    charge: 1-file 2-atom 10-const
   ISPIN  =      2    spin polarized calculation?
   LNONCOLLINEAR =      F non collinear calculations
   LSORBIT =      F    spin-orbit coupling
   INIWAV =      1    electr: 0-lowe 1-rand  2-diag
   LASPH  =      T    aspherical Exc in radial PAW
 Electronic Relaxation 1
   ENCUT  =  520.0 eV  38.22 Ry    6.18 a.u.  18.00 18.00 18.00*2*pi/ulx,y,z
   ENINI  =  520.0     initial cutoff
   ENAUG  = 1041.7 eV  augmentation charge cutoff
   NELM   =    100;   NELMIN=  2; NELMDL=-10     # of ELM steps 
   EDIFF  = 0.1E-05   stopping-criterion for ELM
   LREAL  =      T    real-space projection
   NLSPLINE    = F    spline interpolate recip. space projectors
   LCOMPAT=      F    compatible to vasp.4.4
   GGA_COMPAT  = T    GGA compatible to vasp.4.4-vasp.4.6
   LMAXPAW     = -100 max onsite density
   LMAXMIX     =    4 max onsite mixed and CHGCAR
   VOSKOWN=      0    Vosko Wilk Nusair interpolation
   ROPT   =   -0.00025  -0.00025  -0.00025  -0.00025
 Ionic relaxation
   EDIFFG = -.1E-02   stopping-criterion for IOM
   NSW    =   1000    number of steps for IOM
   NBLOCK =      1;   KBLOCK =   1000    inner block; outer block 
   IBRION =      2    ionic relax: 0-MD 1-quasi-New 2-CG
   NFREE  =      1    steps in history (QN), initial steepest desc. (CG)
   ISIF   =      2    stress and relaxation
   IWAVPR =     11    prediction:  0-non 1-charg 2-wave 3-comb
   ISYM   =      2    0-nonsym 1-usesym 2-fastsym
   LCORR  =      T    Harris-Foulkes like correction to forces

   POTIM  = 0.2000    time-step for ionic-motion
   TEIN   =    0.0    initial temperature
   TEBEG  =    0.0;   TEEND  =   0.0 temperature during run
   SMASS  =  -3.00    Nose mass-parameter (am)
   estimated Nose-frequenzy (Omega)   =  0.10E-29 period in steps = 0.31E+47 mass=  -0.214E-26a.u.
   SCALEE = 1.0000    scale energy and forces
   NPACO  =    256;   APACO  = 10.0  distance and # of slots for P.C.
   PSTRESS=    0.0 pullay stress

  Mass of Ions in am
   POMASS =   7.01 30.97 32.07 35.45
  Ionic Valenz
   ZVAL   =   3.00  5.00  6.00  7.00
  Atomic Wigner-Seitz radii
   RWIGS  =  -1.00 -1.00 -1.00 -1.00
  virtual crystal weights 
   VCA    =   1.00  1.00  1.00  1.00
   NELECT =     240.0000    total number of electrons
   NUPDOWN=      -1.0000    fix difference up-down

 DOS related values:
   EMIN   =  10.00;   EMAX   =-10.00  energy-range for DOS
   EFERMI =   0.00;   METHOD = LEGACY      
   ISMEAR =     0;   SIGMA  =   0.03  broadening in eV -4-tet -1-fermi 0-gaus

 Electronic relaxation 2 (details)
   IALGO  =     68    algorithm
   LDIAG  =      T    sub-space diagonalisation (order eigenvalues)
   LSUBROT=      F    optimize rotation matrix (better conditioning)
   TURBO    =      0    0=normal 1=particle mesh
   IRESTART =      0    0=no restart 2=restart with 2 vectors
   NREBOOT  =      0    no. of reboots
   NMIN     =      0    reboot dimension
   EREF     =   0.00    reference energy to select bands
   IMIX   =      4    mixing-type and parameters
     AMIX     =   0.40;   BMIX     =  1.00
     AMIX_MAG =   1.60;   BMIX_MAG =  1.00
     AMIN     =   0.10
     WC   =   100.;   INIMIX=   1;  MIXPRE=   1;  MAXMIX= -45

 Intra band minimization:
   WEIMIN = 0.0010     energy-eigenvalue tresh-hold
   EBREAK =  0.14E-08  absolut break condition
   DEPER  =   0.30     relativ break condition  

   TIME   =   0.40     timestep for ELM

  volume/ion in A,a.u.               =      17.45       117.73
  Fermi-wavevector in a.u.,A,eV,Ry     =   1.050942  1.985992 15.027345  1.104479
  Thomas-Fermi vector in A             =   2.185965
 
 Write flags
   LWAVE        =      F    write WAVECAR
   LDOWNSAMPLE  =      F    k-point downsampling of WAVECAR
   LCHARG       =      F    write CHGCAR
   LVTOT        =      F    write LOCPOT, total local potential
   LVHAR        =      F    write LOCPOT, Hartree potential only
   LELF         =      F    write electronic localiz. function (ELF)
   LORBIT       =      0    0 simple, 1 ext, 2 COOP (PROOUT), +10 PAW based schemes


 Dipole corrections
   LMONO  =      F    monopole corrections only (constant potential shift)
   LDIPOL =      F    correct potential (dipole corrections)
   IDIPOL =      0    1-x, 2-y, 3-z, 4-all directions 
   EPSILON=  1.0000000 bulk dielectric constant

 Exchange correlation treatment:
   GGA     =    PE    GGA type
   LEXCH   =     8    internal setting for exchange type
   LIBXC   =     F    Libxc                    
   VOSKOWN =     0    Vosko Wilk Nusair interpolation
   LHFCALC =     F    Hartree Fock is set to
   LHFONE  =     F    Hartree Fock one center treatment
   AEXX    =    0.0000 exact exchange contribution

 Linear response parameters
   LEPSILON=     F    determine dielectric tensor
   LRPA    =     F    only Hartree local field effects (RPA)
   LNABLA  =     F    use nabla operator in PAW spheres
   LVEL    =     F    velocity operator in full k-point grid
   CSHIFT  =0.1000    complex shift for real part using Kramers Kronig
   OMEGAMAX=  -1.0    maximum frequency
   DEG_THRESHOLD= 0.2000000E-02 threshold for treating states as degnerate
   RTIME   =   -0.100 relaxation time in fs
  (WPLASMAI=    0.000 imaginary part of plasma frequency in eV, 0.658/RTIME)
   DFIELD  = 0.0000000 0.0000000 0.0000000 field for delta impulse in time
 
  Optional k-point grid parameters
   LKPOINTS_OPT  =     F    use optional k-point grid
   KPOINTS_OPT_MODE=     1    mode for optional k-point grid
 
 Orbital magnetization related:
   ORBITALMAG=     F  switch on orbital magnetization
   LCHIMAG   =     F  perturbation theory with respect to B field
   DQ        =  0.001000  dq finite difference perturbation B field
   LLRAUG    =     F  two centre corrections for induced B field
   LBONE     =     F  B-component reconstruction in AE one-centre
   LVGVCALC  =     T  calculate vGv susceptibility
   LVGVAPPL  =     F  apply vGv susceptibility instead of pGv for G=0

 Random number generation:
   RANDOM_GENERATOR = DEFAULT
   PCG_SEED         = not used


--------------------------------------------------------------------------------------------------------


 conjugate gradient relaxation of ions
 charge density and potential will be updated during run
 spin polarized calculation
 RMM-DIIS sequential band-by-band and
  variant of blocked Davidson during initial phase
 perform sub-space diagonalisation
    before iterative eigenvector-optimisation
 modified Broyden-mixing scheme, WC =      100.0
 initial mixing is a Kerker type mixing with AMIX =  0.4000 and BMIX =      1.0000
 Hartree-type preconditioning will be used
 using additional bands           56
 real space projection scheme for non local part
 use partial core corrections
 calculate Harris-corrections to forces 
   (improved forces if not selfconsistent)
 use gradient corrections 
 use of overlap-Matrix (Vanderbilt PP)
 Gauss-broadening in eV      SIGMA  =   0.03


--------------------------------------------------------------------------------------------------------


  energy-cutoff  :      520.00
  volume of cell :      907.19
      direct lattice vectors                 reciprocal lattice vectors
     9.680547069  0.000000000  0.000000000     0.103299947  0.000000000  0.000000000
     0.000000000  9.680547069  0.000000000     0.000000000  0.103299947  0.000000000
     0.000000000  0.000000000  9.680547069     0.000000000  0.000000000  0.103299947

  length of vectors
     9.680547069  9.680547069  9.680547069     0.103299947  0.103299947  0.103299947


 
 k-points in units of 2pi/SCALE and weight: Automatic mesh                          
   0.02582499  0.02582499  0.02582499       0.250
  -0.02582499  0.02582499  0.02582499       0.250
  -0.02582499 -0.02582499  0.02582499       0.250
   0.02582499 -0.02582499  0.02582499       0.250
 
 k-points in reciprocal lattice and weights: Automatic mesh                          
   0.25000000  0.25000000  0.25000000       0.250
  -0.25000000  0.25000000  0.25000000       0.250
  -0.25000000 -0.25000000  0.25000000       0.250
   0.25000000 -0.25000000  0.25000000       0.250
 
 position of ions in fractional coordinates (direct lattice) 
   0.97694075  0.30363371  0.28756049
   0.97166656  0.80994260  0.80396150
   0.02918505  0.32194673  0.68434687
   0.01604138  0.80050787  0.18631942
   0.18279108  0.21483116  0.97361625
   0.28216495  0.69597720  0.01658685
   0.82636137  0.14909773  0.03793563
   0.72328461  0.74159454  0.97862535
   0.22362079  0.98158504  0.18049330
   0.18885684  0.01892668  0.78648442
   0.69246292  0.95562092  0.67134384
   0.69968885  0.01548612  0.33117365
   0.32769199  0.83447951  0.46313731
   0.28181194  0.20616381  0.51245086
   0.83309406  0.66012197  0.52791739
   0.78512304  0.30134693  0.47987974
   0.31793815  0.46507169  0.80255285
   0.17647819  0.54681358  0.34469613
   0.67946435  0.45400133  0.17807489
   0.70980152  0.50315381  0.81044171
   0.47500028  0.18024212  0.71193910
   0.47520407  0.69634078  0.20978294
   0.51701209  0.20662753  0.29758487
   0.51768297  0.71652673  0.77305122
   0.49589540  0.49903925  0.49791814
   0.50305249  0.00444979  0.99718567
   0.00199460  0.49438100  0.99836164
   0.00041574  0.99108968  0.49286630
   0.12491283  0.86648379  0.61068437
   0.11698197  0.11203186  0.36256402
   0.87584877  0.86128277  0.38085113
   0.88261619  0.11311158  0.62025021
   0.87274285  0.61202641  0.11952250
   0.88720883  0.35175568  0.89118211
   0.11311442  0.61131163  0.86035239
   0.13914096  0.39775789  0.12692756
   0.64175746  0.10348204  0.87210190
   0.61386121  0.88699029  0.13544903
   0.38511815  0.14519514  0.10215259
   0.37616420  0.88397539  0.87624356
   0.63063374  0.61052029  0.37876202
   0.60592707  0.37332878  0.62967879
   0.36575461  0.62416674  0.60866625
   0.37261298  0.38602477  0.36783423
   0.75188626  0.73357053  0.74494559
   0.74923484  0.23686975  0.25169206
   0.24722389  0.75536968  0.24557235
   0.24778835  0.24429687  0.74458756
   0.02917210  0.99118282  0.99548297
   0.98243118  0.46339369  0.48597622
   0.49779659  0.02695900  0.49725004
   0.50664096  0.54772896  0.98394557
 
 position of ions in cartesian coordinates  (Angst):
   9.45732094  2.93934040  2.78374284
   9.40626385  7.84068741  7.78278712
   0.28252725  3.11662049  6.62485211
   0.15528937  7.74935407  1.80367393
   1.76951764  2.07968314  9.42513798
   2.73151107  6.73744009  0.16056981
   7.99963012  1.44334760  0.36723760
   7.00179072  7.17904084  9.47362876
   2.16477155  9.50228018  1.74727388
   1.82823748  0.18322060  7.61359941
   6.70341990  9.25093333  6.49897565
   6.77337087  0.14991416  3.20594213
   3.17223778  8.07821817  4.48342252
   2.72809373  1.99577848  4.96080470
   8.06480630  6.39034176  5.11052914
   7.60042053  2.91720316  4.64549841
   3.07781520  4.50214840  7.76915064
   1.70840539  5.29345460  3.33684709
   6.57758666  4.39498125  1.72386237
   6.87126701  4.87080413  7.84551913
   4.59826260  1.74484231  6.89196000
   4.60023540  6.74095969  2.03081362
   5.00495984  2.00026756  2.88078436
   5.01145436  6.93637076  7.48355870
   4.80053877  4.83097299  4.82012000
   4.86982333  0.04307643  9.65330282
   0.01930878  4.78587858  9.66468689
   0.00402460  9.59429025  4.77121546
   1.20922456  8.38803711  5.91175877
   1.13244947  1.08452969  3.50981802
   8.47869528  8.33768835  3.68684731
   8.54420752  1.09498195  6.00436136
   8.44862824  5.92475043  1.15704316
   8.58866679  3.40518741  8.62713032
   1.09500949  5.91783101  8.32868179
   1.34696063  3.85051396  1.22872826
   6.21256326  1.00176279  8.44242346
   5.94251235  8.58655130  1.31122066
   3.72815438  1.40556836  0.98889294
   3.64147520  8.55736537  8.48251702
   6.10487959  5.91017040  3.66662351
   5.86570551  3.61402685  6.09563521
   3.54070473  6.04227551  5.89222233
   3.60709744  3.73693094  3.56083661
   7.27867037  7.10136404  7.21148088
   7.25300318  2.29302875  2.43651682
   2.39326253  7.31239174  2.37727472
   2.39872677  2.36492737  7.20801494
   0.28240191  9.59519199  9.63681977
   9.51047126  4.48590440  4.70451563
   4.81894329  0.26097785  4.81365240
   4.90456171  5.30231598  9.52513144
 


--------------------------------------------------------------------------------------------------------


 k-point   1 :   0.2500 0.2500 0.2500  plane waves:   24420
 k-point   2 :  -0.2500 0.2500 0.2500  plane waves:   24420
 k-point   3 :  -0.2500-0.2500 0.2500  plane waves:   24420
 k-point   4 :   0.2500-0.2500 0.2500  plane waves:   24420

 maximum and minimum number of plane-waves per node :       776      745

 maximum number of plane-waves:     24420
 maximum index in each direction: 
   IXMAX=   18   IYMAX=   18   IZMAX=   17
   IXMIN=  -18   IYMIN=  -18   IZMIN=  -18


 real space projection operators:
  total allocation   :      28177.09 KBytes
  max/ min on nodes  :       1178.98        718.70


 parallel 3D FFT for wavefunctions:
    minimum data exchange during FFTs selected (reduces bandwidth)
 parallel 3D FFT for charge:
    minimum data exchange during FFTs selected (reduces bandwidth)


 total amount of memory used by VASP MPI-rank0    48130. kBytes
=======================================================================

   base      :      30000. kBytes
   nonlr-proj:       6493. kBytes
   fftplans  :       1747. kBytes
   grid      :       5278. kBytes
   one-center:         62. kBytes
   wavefun   :       4550. kBytes
 
     INWAV:  cpu time      0.0000: real time      0.0000
 Broyden mixing: mesh for mixing (old mesh)
   NGX = 35   NGY = 35   NGZ = 35
  (NGX  =144   NGY  =144   NGZ  =144)
  gives a total of  42875 points

 initial charge density was supplied:
 charge density of overlapping atoms calculated
 number of electron     240.0000000 magnetization      52.0000000
 keeping initial charge density in first step


--------------------------------------------------------------------------------------------------------


 Maximum index for non-local projection operator          546
 Maximum index for augmentation-charges          998 (set IRDMAX)


--------------------------------------------------------------------------------------------------------


 First call to EWALD:  gamma=   0.183
 Maximum number of real-space cells 3x 3x 3
 Maximum number of reciprocal cells 3x 3x 3

    FEWALD:  cpu time      0.0031: real time      0.0034


--------------------------------------- Ionic step        1  -------------------------------------------




--------------------------------------- Iteration      1(   1)  ---------------------------------------


    POTLOK:  cpu time      0.0731: real time      0.0973
    SETDIJ:  cpu time      0.4138: real time      0.4555
     EDDAV:  cpu time      2.2607: real time      2.4427
       DOS:  cpu time      0.0025: real time      0.0038
    --------------------------------------------
      LOOP:  cpu time      2.7501: real time      2.9993

 eigenvalue-minimisations  :  3080
 total energy-change (2. order) : 0.1590501E+04  (-0.1135012E+05)
 number of electron     240.0000000 magnetization      52.0000000
 augmentation part      240.0000000 magnetization      52.0000000

 Free energy of the ion-electron system (eV)
  ---------------------------------------------------
  alpha Z        PSCENC =       299.22794375
  Ewald energy   TEWEN  =     -8773.23876973
  -Hartree energ DENC   =     -2137.53471841
  -exchange      EXHF   =         0.00000000
  -V(xc)+E(xc)   XCENC  =       534.01826177
  PAW double counting   =      8141.38806575    -8271.61346273
  entropy T*S    EENTRO =        -0.00562751
  eigenvalues    EBANDS =      -904.88078414
  atomic energy  EATOM  =     12703.13999606
  Solvation  Ediel_sol  =         0.00000000
  ---------------------------------------------------
  free energy    TOTEN  =      1590.50090480 eV

  energy without entropy =     1590.50653231  energy(sigma->0) =     1590.50371856


--------------------------------------------------------------------------------------------------------




--------------------------------------- Iteration      1(   2)  ---------------------------------------


     EDDAV:  cpu time      2.6083: real time      2.6372
       DOS:  cpu time      0.0005: real time      0.0005
    --------------------------------------------
      LOOP:  cpu time      2.6088: real time      2.6377

 eigenvalue-minimisations  :  3824
 total energy-change (2. order) :-0.1646685E+04  (-0.1548565E+04)
 number of electron     240.0000000 magnetization      52.0000000
 augmentation part      240.0000000 magnetization      52.0000000

 Free energy of the ion-electron system (eV)
  ---------------------------------------------------
  alpha Z        PSCENC =       299.22794375
  Ewald energy   TEWEN  =     -8773.23876973
  -Hartree energ DENC   =     -2137.53471841
  -exchange      EXHF   =         0.00000000
  -V(xc)+E(xc)   XCENC  =       534.01826177
  PAW double counting   =      8141.38806575    -8271.61346273
  entropy T*S    EENTRO =        -0.00000000
  eigenvalues    EBANDS =     -2551.57112875
  atomic energy  EATOM  =     12703.13999606
  Solvation  Ediel_sol  =         0.00000000
  ---------------------------------------------------
  free energy    TOTEN  =       -56.18381229 eV

  energy without entropy =      -56.18381229  energy(sigma->0) =      -56.18381229


--------------------------------------------------------------------------------------------------------




--------------------------------------- Iteration      1(   3)  ---------------------------------------


     EDDAV:  cpu time      2.6152: real time      2.6413
       DOS:  cpu time      0.0004: real time      0.0004
    --------------------------------------------
      LOOP:  cpu time      2.6157: real time      2.6417

 eigenvalue-minimisations  :  3752
 total energy-change (2. order) :-0.1723996E+03  (-0.1703184E+03)
 number of electron     240.0000000 magnetization      52.0000000
 augmentation part      240.0000000 magnetization      52.0000000

 Free energy of the ion-electron system (eV)
  ---------------------------------------------------
  alpha Z        PSCENC =       299.22794375
  Ewald energy   TEWEN  =     -8773.23876973
  -Hartree energ DENC   =     -2137.53471841
  -exchange      EXHF   =         0.00000000
  -V(xc)+E(xc)   XCENC  =       534.01826177
  PAW double counting   =      8141.38806575    -8271.61346273
  entropy T*S    EENTRO =        -0.00000000
  eigenvalues    EBANDS =     -2723.97072336
  atomic energy  EATOM  =     12703.13999606
  Solvation  Ediel_sol  =         0.00000000
  ---------------------------------------------------
  free energy    TOTEN  =      -228.58340691 eV

  energy without entropy =     -228.58340691  energy(sigma->0) =     -228.58340691


--------------------------------------------------------------------------------------------------------




--------------------------------------- Iteration      1(   4)  ---------------------------------------


     EDDAV:  cpu time      3.2646: real time      3.2918
       DOS:  cpu time      0.0005: real time      0.0005
    --------------------------------------------
      LOOP:  cpu time      3.2651: real time      3.2923

 eigenvalue-minimisations  :  4768
 total energy-change (2. order) :-0.1367397E+02  (-0.1365035E+02)
 number of electron     240.0000000 magnetization      52.0000000
 augmentation part      240.0000000 magnetization      52.0000000

 Free energy of the ion-electron system (eV)
  ---------------------------------------------------
  alpha Z        PSCENC =       299.22794375
  Ewald energy   TEWEN  =     -8773.23876973
  -Hartree energ DENC   =     -2137.53471841
  -exchange      EXHF   =         0.00000000
  -V(xc)+E(xc)   XCENC  =       534.01826177
  PAW double counting   =      8141.38806575    -8271.61346273
  entropy T*S    EENTRO =        -0.00000000
  eigenvalues    EBANDS =     -2737.64468886
  atomic energy  EATOM  =     12703.13999606
  Solvation  Ediel_sol  =         0.00000000
  ---------------------------------------------------
  free energy    TOTEN  =      -242.25737241 eV

  energy without entropy =     -242.25737241  energy(sigma->0) =     -242.25737241


--------------------------------------------------------------------------------------------------------




--------------------------------------- Iteration      1(   5)  ---------------------------------------


     EDDAV:  cpu time      2.9501: real time      2.9742
       DOS:  cpu time      0.0004: real time      0.0004
    --------------------------------------------
      LOOP:  cpu time      2.9506: real time      2.9747

 eigenvalue-minimisations  :  4448
 total energy-change (2. order) :-0.2082174E+00  (-0.2081139E+00)
 number of electron     240.0000000 magnetization      52.0000000
 augmentation part      240.0000000 magnetization      52.0000000

 Free energy of the ion-electron system (eV)
  ---------------------------------------------------
  alpha Z        PSCENC =       299.22794375
  Ewald energy   TEWEN  =     -8773.23876973
  -Hartree energ DENC   =     -2137.53471841
  -exchange      EXHF   =         0.00000000
  -V(xc)+E(xc)   XCENC  =       534.01826177
  PAW double counting   =      8141.38806575    -8271.61346273
  entropy T*S    EENTRO =        -0.00000000
  eigenvalues    EBANDS =     -2737.85290622
  atomic energy  EATOM  =     12703.13999606
  Solvation  Ediel_sol  =         0.00000000
  ---------------------------------------------------
  free energy    TOTEN  =      -242.46558976 eV

  energy without entropy =     -242.46558976  energy(sigma->0) =     -242.46558976


--------------------------------------------------------------------------------------------------------




--------------------------------------- Iteration      1(   6)  ---------------------------------------


     EDDAV:  cpu time      3.0623: real time      3.0936
       DOS:  cpu time      0.0004: real time      0.0004
    --------------------------------------------
      LOOP:  cpu time      3.0628: real time      3.0941

 eigenvalue-minimisations  :  4632
 total energy-change (2. order) :-0.1196295E-01  (-0.1196166E-01)
 number of electron     240.0000000 magnetization      52.0000000
 augmentation part      240.0000000 magnetization      52.0000000

 Free energy of the ion-electron system (eV)
  ---------------------------------------------------
  alpha Z        PSCENC =       299.22794375
  Ewald energy   TEWEN  =     -8773.23876973
  -Hartree energ DENC   =     -2137.53471841
  -exchange      EXHF   =         0.00000000
  -V(xc)+E(xc)   XCENC  =       534.01826177
  PAW double counting   =      8141.38806575    -8271.61346273
  entropy T*S    EENTRO =        -0.00000000
  eigenvalues    EBANDS =     -2737.86486917
  atomic energy  EATOM  =     12703.13999606
  Solvation  Ediel_sol  =         0.00000000
  ---------------------------------------------------
  free energy    TOTEN  =      -242.47755271 eV

  energy without entropy =     -242.47755271  energy(sigma->0) =     -242.47755271


--------------------------------------------------------------------------------------------------------




--------------------------------------- Iteration      1(   7)  ---------------------------------------


     EDDAV:  cpu time      3.0374: real time      3.0630
       DOS:  cpu time      0.0004: real time      0.0004
    --------------------------------------------
      LOOP:  cpu time      3.0379: real time      3.0634

 eigenvalue-minimisations  :  4608
 total energy-change (2. order) :-0.3771318E-03  (-0.3771062E-03)
 number of electron     240.0000000 magnetization      52.0000000
 augmentation part      240.0000000 magnetization      52.0000000

 Free energy of the ion-electron system (eV)
  ---------------------------------------------------
  alpha Z        PSCENC =       299.22794375
  Ewald energy   TEWEN  =     -8773.23876973
  -Hartree energ DENC   =     -2137.53471841
  -exchange      EXHF   =         0.00000000
  -V(xc)+E(xc)   XCENC  =       534.01826177
  PAW double counting   =      8141.38806575    -8271.61346273
  entropy T*S    EENTRO =        -0.00000000
  eigenvalues    EBANDS =     -2737.86524630
  atomic energy  EATOM  =     12703.13999606
  Solvation  Ediel_sol  =         0.00000000
  ---------------------------------------------------
  free energy    TOTEN  =      -242.47792984 eV

  energy without entropy =     -242.47792984  energy(sigma->0) =     -242.47792984


--------------------------------------------------------------------------------------------------------




--------------------------------------- Iteration      1(   8)  ---------------------------------------


     EDDAV:  cpu time      3.0035: real time      3.0277
       DOS:  cpu time      0.0004: real time      0.0004
    --------------------------------------------
      LOOP:  cpu time      3.0039: real time      3.0281

 eigenvalue-minimisations  :  4536
 total energy-change (2. order) :-0.2190770E-04  (-0.2190701E-04)
 number of electron     240.0000000 magnetization      52.0000000
 augmentation part      240.0000000 magnetization      52.0000000

 Free energy of the ion-electron system (eV)
  ---------------------------------------------------
  alpha Z        PSCENC =       299.22794375
  Ewald energy   TEWEN  =     -8773.23876973
  -Hartree energ DENC   =     -2137.53471841
  -exchange      EXHF   =         0.00000000
  -V(xc)+E(xc)   XCENC  =       534.01826177
  PAW double counting   =      8141.38806575    -8271.61346273
  entropy T*S    EENTRO =        -0.00000000
  eigenvalues    EBANDS =     -2737.86526820
  atomic energy  EATOM  =     12703.13999606
  Solvation  Ediel_sol  =         0.00000000
  ---------------------------------------------------
  free energy    TOTEN  =      -242.47795175 eV

  energy without entropy =     -242.47795175  energy(sigma->0) =     -242.47795175


--------------------------------------------------------------------------------------------------------




--------------------------------------- Iteration      1(   9)  ---------------------------------------


     EDDAV:  cpu time      2.9888: real time      3.0121
       DOS:  cpu time      0.0005: real time      0.0005
    --------------------------------------------
      LOOP:  cpu time      2.9893: real time      3.0125

 eigenvalue-minimisations  :  4512
 total energy-change (2. order) :-0.1415279E-05  (-0.1415101E-05)
 number of electron     240.0000000 magnetization      52.0000000
 augmentation part      240.0000000 magnetization      52.0000000

 Free energy of the ion-electron system (eV)
  ---------------------------------------------------
  alpha Z        PSCENC =       299.22794375
  Ewald energy   TEWEN  =     -8773.23876973
  -Hartree energ DENC   =     -2137.53471841
  -exchange      EXHF   =         0.00000000
  -V(xc)+E(xc)   XCENC  =       534.01826177
  PAW double counting   =      8141.38806575    -8271.61346273
  entropy T*S    EENTRO =        -0.00000000
  eigenvalues    EBANDS =     -2737.86526962
  atomic energy  EATOM  =     12703.13999606
  Solvation  Ediel_sol  =         0.00000000
  ---------------------------------------------------
  free energy    TOTEN  =      -242.47795317 eV

  energy without entropy =     -242.47795317  energy(sigma->0) =     -242.47795317


--------------------------------------------------------------------------------------------------------




--------------------------------------- Iteration      1(  10)  ---------------------------------------


     EDDAV:  cpu time      1.9623: real time      1.9783
       DOS:  cpu time      0.0004: real time      0.0004
    CHARGE:  cpu time      0.0687: real time      0.0744
    MIXING:  cpu time      0.0019: real time      0.0036
    --------------------------------------------
      LOOP:  cpu time      2.0333: real time      2.0567

 eigenvalue-minimisations  :  2600
 total energy-change (2. order) :-0.5960464E-07  (-0.5966786E-07)
 number of electron     240.0000007 magnetization      27.3392177
 augmentation part        1.4930366 magnetization      27.7810098

 Broyden mixing:
  rms(total) = 0.64650E+01    rms(broyden)= 0.64644E+01
  rms(prec ) = 0.67123E+01
  weight for this iteration     100.00

 Free energy of the ion-electron system (eV)
  ---------------------------------------------------
  alpha Z        PSCENC =       299.22794375
  Ewald energy   TEWEN  =     -8773.23876973
  -Hartree energ DENC   =     -2137.53471841
  -exchange      EXHF   =         0.00000000
  -V(xc)+E(xc)   XCENC  =       534.01826177
  PAW double counting   =      8141.38806575    -8271.61346273
  entropy T*S    EENTRO =        -0.00000000
  eigenvalues    EBANDS =     -2737.86526968
  atomic energy  EATOM  =     12703.13999606
  Solvation  Ediel_sol  =         0.00000000
  ---------------------------------------------------
  free energy    TOTEN  =      -242.47795322 eV

  energy without entropy =     -242.47795322  energy(sigma->0) =     -242.47795322


--------------------------------------------------------------------------------------------------------




--------------------------------------- Iteration      1(  11)  ---------------------------------------


    POTLOK:  cpu time      0.0537: real time      0.0552
    SETDIJ:  cpu time      0.4006: real time      0.4029
    EDDIAG:  cpu time      0.3655: real time      0.3684
  RMM-DIIS:  cpu time      1.1629: real time      1.1728
    ORTHCH:  cpu time      0.0659: real time      0.0670
       DOS:  cpu time      0.0006: real time      0.0006
    CHARGE:  cpu time      0.0645: real time      0.0663
    MIXING:  cpu time      0.0012: real time      0.0234
    --------------------------------------------
      LOOP:  cpu time      2.1149: real time      2.1566

 eigenvalue-minimisations  :  2816
 total energy-change (2. order) : 0.6434260E+01  (-0.4772553E+01)
 number of electron     240.0000007 magnetization      16.3567663
 augmentation part        1.6988775 magnetization      16.5430729

 Broyden mixing:
  rms(total) = 0.33213E+01    rms(broyden)= 0.33211E+01
  rms(prec ) = 0.34411E+01
  weight for this iteration     100.00

 eigenvalues of (default mixing * dielectric matrix)
  average eigenvalue GAMMA=   0.7264
  0.7264

 Free energy of the ion-electron system (eV)
  ---------------------------------------------------
  alpha Z        PSCENC =       299.22794375
  Ewald energy   TEWEN  =     -8773.23876973
  -Hartree energ DENC   =     -2187.17806597
  -exchange      EXHF   =         0.00000000
  -V(xc)+E(xc)   XCENC  =       542.42796872
  PAW double counting   =      8932.37699870    -9068.71079161
  entropy T*S    EENTRO =        -0.00000000
  eigenvalues    EBANDS =     -2684.08897364
  atomic energy  EATOM  =     12703.13999606
  Solvation  Ediel_sol  =         0.00000000
  ---------------------------------------------------
  free energy    TOTEN  =      -236.04369372 eV

  energy without entropy =     -236.04369372  energy(sigma->0) =     -236.04369372


--------------------------------------------------------------------------------------------------------




--------------------------------------- Iteration      1(  12)  ---------------------------------------


    POTLOK:  cpu time      0.0536: real time      0.0549
    SETDIJ:  cpu time      0.4084: real time      0.4102
    EDDIAG:  cpu time      0.3562: real time      0.3581
  RMM-DIIS:  cpu time      1.2265: real time      1.2370
    ORTHCH:  cpu time      0.0676: real time      0.0685
       DOS:  cpu time      0.0005: real time      0.0005
    CHARGE:  cpu time      0.0649: real time      0.0666
    MIXING:  cpu time      0.0012: real time      0.0012
    --------------------------------------------
      LOOP:  cpu time      2.1787: real time      2.1970

 eigenvalue-minimisations  :  2957
 total energy-change (2. order) :-0.2000324E+02  (-0.2224095E+01)
 number of electron     240.0000007 magnetization       0.6204923
 augmentation part        1.8025399 magnetization       0.9630762

 Broyden mixing:
  rms(total) = 0.20388E+01    rms(broyden)= 0.20388E+01
  rms(prec ) = 0.21018E+01
  weight for this iteration     100.00

 eigenvalues of (default mixing * dielectric matrix)
  average eigenvalue GAMMA=   1.1550
  1.6394  0.6706

 Free energy of the ion-electron system (eV)
  ---------------------------------------------------
  alpha Z        PSCENC =       299.22794375
  Ewald energy   TEWEN  =     -8773.23876973
  -Hartree energ DENC   =     -2212.66553113
  -exchange      EXHF   =         0.00000000
  -V(xc)+E(xc)   XCENC  =       536.08269963
  PAW double counting   =      9290.64415549    -9430.59303179
  entropy T*S    EENTRO =        -0.00000000
  eigenvalues    EBANDS =     -2668.64439198
  atomic energy  EATOM  =     12703.13999606
  Solvation  Ediel_sol  =         0.00000000
  ---------------------------------------------------
  free energy    TOTEN  =      -256.04692969 eV

  energy without entropy =     -256.04692969  energy(sigma->0) =     -256.04692969


--------------------------------------------------------------------------------------------------------




--------------------------------------- Iteration      1(  13)  ---------------------------------------


    POTLOK:  cpu time      0.0538: real time      0.0549
    SETDIJ:  cpu time      0.4089: real time      0.4105
    EDDIAG:  cpu time      0.3565: real time      0.3587
  RMM-DIIS:  cpu time      1.1991: real time      1.2093
    ORTHCH:  cpu time      0.0655: real time      0.0664
       DOS:  cpu time      0.0006: real time      0.0006
    CHARGE:  cpu time      0.0654: real time      0.0665
    MIXING:  cpu time      0.0011: real time      0.0011
    --------------------------------------------
      LOOP:  cpu time      2.1508: real time      2.1680

 eigenvalue-minimisations  :  2907
 total energy-change (2. order) :-0.2470276E+01  (-0.9316192E+00)
 number of electron     240.0000007 magnetization      -1.7807944
 augmentation part        1.9032378 magnetization      -1.6762442

 Broyden mixing:
  rms(total) = 0.67099E+00    rms(broyden)= 0.67099E+00
  rms(prec ) = 0.70458E+00
  weight for this iteration     100.00

 eigenvalues of (default mixing * dielectric matrix)
  average eigenvalue GAMMA=   1.3004
  2.4992  0.7486  0.6533

 Free energy of the ion-electron system (eV)
  ---------------------------------------------------
  alpha Z        PSCENC =       299.22794375
  Ewald energy   TEWEN  =     -8773.23876973
  -Hartree energ DENC   =     -2241.78697997
  -exchange      EXHF   =         0.00000000
  -V(xc)+E(xc)   XCENC  =       537.63585309
  PAW double counting   =      9792.23940135    -9936.13219645
  entropy T*S    EENTRO =        -0.00000000
  eigenvalues    EBANDS =     -2639.60245337
  atomic energy  EATOM  =     12703.13999606
  Solvation  Ediel_sol  =         0.00000000
  ---------------------------------------------------
  free energy    TOTEN  =      -258.51720526 eV

  energy without entropy =     -258.51720526  energy(sigma->0) =     -258.51720526


--------------------------------------------------------------------------------------------------------




--------------------------------------- Iteration      1(  14)  ---------------------------------------


    POTLOK:  cpu time      0.0536: real time      0.0547
    SETDIJ:  cpu time      0.4093: real time      0.4114
    EDDIAG:  cpu time      0.3564: real time      0.3583
  RMM-DIIS:  cpu time      1.5904: real time      1.6045
    ORTHCH:  cpu time      0.0648: real time      0.0651
       DOS:  cpu time      0.0004: real time      0.0005
    CHARGE:  cpu time      0.0650: real time      0.0671
    MIXING:  cpu time      0.0011: real time      0.0011
    --------------------------------------------
      LOOP:  cpu time      2.5411: real time      2.5627

 eigenvalue-minimisations  :  3787
 total energy-change (2. order) :-0.2115935E+00  (-0.2078361E+00)
 number of electron     240.0000007 magnetization      -0.8179906
 augmentation part        1.8754094 magnetization      -0.7903896

 Broyden mixing:
  rms(total) = 0.32642E+00    rms(broyden)= 0.32642E+00
  rms(prec ) = 0.36288E+00
  weight for this iteration     100.00

 eigenvalues of (default mixing * dielectric matrix)
  average eigenvalue GAMMA=   1.2642
  2.6038  1.1716  0.6899  0.5915

 Free energy of the ion-electron system (eV)
  ---------------------------------------------------
  alpha Z        PSCENC =       299.22794375
  Ewald energy   TEWEN  =     -8773.23876973
  -Hartree energ DENC   =     -2243.68664251
  -exchange      EXHF   =         0.00000000
  -V(xc)+E(xc)   XCENC  =       538.10065088
  PAW double counting   =      9868.30968360   -10012.99259516
  entropy T*S    EENTRO =        -0.00000000
  eigenvalues    EBANDS =     -2637.58906567
  atomic energy  EATOM  =     12703.13999606
  Solvation  Ediel_sol  =         0.00000000
  ---------------------------------------------------
  free energy    TOTEN  =      -258.72879879 eV

  energy without entropy =     -258.72879879  energy(sigma->0) =     -258.72879879


--------------------------------------------------------------------------------------------------------




--------------------------------------- Iteration      1(  15)  ---------------------------------------


    POTLOK:  cpu time      0.0527: real time      0.0537
    SETDIJ:  cpu time      0.4105: real time      0.4121
    EDDIAG:  cpu time      0.3555: real time      0.3576
  RMM-DIIS:  cpu time      1.2752: real time      1.2861
    ORTHCH:  cpu time      0.0647: real time      0.0663
       DOS:  cpu time      0.0005: real time      0.0005
    CHARGE:  cpu time      0.0658: real time      0.0667
    MIXING:  cpu time      0.0012: real time      0.0012
    --------------------------------------------
      LOOP:  cpu time      2.2260: real time      2.2443

 eigenvalue-minimisations  :  3061
 total energy-change (2. order) : 0.3228217E-01  (-0.3350007E-01)
 number of electron     240.0000007 magnetization      -0.2088667
 augmentation part        1.8277795 magnetization      -0.1819512

 Broyden mixing:
  rms(total) = 0.72792E-01    rms(broyden)= 0.72789E-01
  rms(prec ) = 0.86462E-01
  weight for this iteration     100.00

 eigenvalues of (default mixing * dielectric matrix)
  average eigenvalue GAMMA=   1.2719
  2.5298  1.5942  0.9503  0.6850  0.6001

 Free energy of the ion-electron system (eV)
  ---------------------------------------------------
  alpha Z        PSCENC =       299.22794375
  Ewald energy   TEWEN  =     -8773.23876973
  -Hartree energ DENC   =     -2239.25352890
  -exchange      EXHF   =         0.00000000
  -V(xc)+E(xc)   XCENC  =       537.76169445
  PAW double counting   =      9838.99663564    -9983.49143804
  entropy T*S    EENTRO =        -0.00000000
  eigenvalues    EBANDS =     -2641.83904986
  atomic energy  EATOM  =     12703.13999606
  Solvation  Ediel_sol  =         0.00000000
  ---------------------------------------------------
  free energy    TOTEN  =      -258.69651662 eV

  energy without entropy =     -258.69651662  energy(sigma->0) =     -258.69651662


--------------------------------------------------------------------------------------------------------




--------------------------------------- Iteration      1(  16)  ---------------------------------------


    POTLOK:  cpu time      0.0529: real time      0.0539
    SETDIJ:  cpu time      0.4090: real time      0.4103
    EDDIAG:  cpu time      0.3550: real time      0.3574
  RMM-DIIS:  cpu time      1.2778: real time      1.2884
    ORTHCH:  cpu time      0.0647: real time      0.0651
       DOS:  cpu time      0.0005: real time      0.0005
    CHARGE:  cpu time      0.0648: real time      0.0654
    MIXING:  cpu time      0.0012: real time      0.0012
    --------------------------------------------
      LOOP:  cpu time      2.2260: real time      2.2421

 eigenvalue-minimisations  :  3073
 total energy-change (2. order) :-0.1906357E-01  (-0.1119576E-01)
 number of electron     240.0000007 magnetization      -0.1008817
 augmentation part        1.8053046 magnetization      -0.0862461

 Broyden mixing:
  rms(total) = 0.32114E-01    rms(broyden)= 0.32111E-01
  rms(prec ) = 0.38691E-01
  weight for this iteration     100.00

 eigenvalues of (default mixing * dielectric matrix)
  average eigenvalue GAMMA=   1.2515
  2.4408  1.9702  1.0387  0.6205  0.6995  0.7394

 Free energy of the ion-electron system (eV)
  ---------------------------------------------------
  alpha Z        PSCENC =       299.22794375
  Ewald energy   TEWEN  =     -8773.23876973
  -Hartree energ DENC   =     -2238.61681963
  -exchange      EXHF   =         0.00000000
  -V(xc)+E(xc)   XCENC  =       537.68009503
  PAW double counting   =      9826.99057847    -9971.25711309
  entropy T*S    EENTRO =        -0.00000000
  eigenvalues    EBANDS =     -2642.64149105
  atomic energy  EATOM  =     12703.13999606
[...]
 -0.319   0.328   0.001   0.503  -0.068   0.079   0.004  -0.000   0.001   0.005   0.004   0.005  -0.005  -0.000
 -0.181   0.186   0.001  -0.068   0.481  -0.043  -0.000   0.004  -0.000  -0.005   0.004   0.000   0.004  -0.004
 -0.232   0.238   0.001   0.079  -0.043   0.810   0.001  -0.000   0.006  -0.005  -0.005   0.004  -0.004  -0.008
 -0.003   0.002   0.000   0.004  -0.000   0.001   0.000  -0.000   0.000   0.000   0.000   0.000  -0.000  -0.000
 -0.001   0.001   0.000  -0.000   0.004  -0.000  -0.000   0.000  -0.000  -0.000   0.000   0.000   0.000  -0.000
 -0.002   0.001   0.000   0.001  -0.000   0.006   0.000  -0.000   0.000  -0.000  -0.000   0.000  -0.000  -0.000
  0.010  -0.011  -0.000   0.005  -0.005  -0.005   0.000  -0.000  -0.000   0.000   0.000   0.000  -0.000   0.000
 -0.007   0.007   0.000   0.004   0.004  -0.005   0.000   0.000  -0.000   0.000   0.000   0.000   0.000  -0.000
 -0.012   0.013   0.000   0.005   0.000   0.004   0.000   0.000   0.000   0.000   0.000   0.000  -0.000  -0.000
 -0.007   0.007   0.000  -0.005   0.004  -0.004  -0.000   0.000  -0.000  -0.000   0.000  -0.000   0.000  -0.000
  0.020  -0.020  -0.000  -0.000  -0.004  -0.008  -0.000  -0.000  -0.000   0.000  -0.000  -0.000  -0.000   0.000
 total augmentation occupancy for first ion, spin component:           2
  0.000  -0.000   0.000   0.000  -0.000   0.000   0.000  -0.000  -0.000  -0.000  -0.000   0.000  -0.000  -0.000
 -0.000   0.000  -0.000  -0.000   0.000  -0.000  -0.000   0.000  -0.000   0.000   0.000  -0.000   0.000   0.000
  0.000  -0.000  -0.000  -0.000   0.000   0.000  -0.000   0.000   0.000  -0.000  -0.000  -0.000   0.000   0.000
  0.000  -0.000  -0.000   0.000   0.000  -0.000  -0.000   0.000  -0.000   0.000  -0.000   0.000  -0.000  -0.000
 -0.000   0.000   0.000   0.000  -0.000   0.000  -0.000  -0.000   0.000  -0.000  -0.000  -0.000   0.000   0.000
  0.000  -0.000   0.000  -0.000   0.000  -0.000   0.000  -0.000   0.000  -0.000  -0.000  -0.000   0.000  -0.000
  0.000  -0.000  -0.000  -0.000  -0.000   0.000  -0.000  -0.000  -0.000  -0.000  -0.000  -0.000  -0.000   0.000
 -0.000   0.000   0.000   0.000  -0.000  -0.000  -0.000   0.000   0.000   0.000   0.000   0.000  -0.000  -0.000
 -0.000  -0.000   0.000  -0.000   0.000   0.000  -0.000   0.000   0.000  -0.000  -0.000  -0.000   0.000   0.000
 -0.000   0.000  -0.000   0.000  -0.000  -0.000  -0.000   0.000  -0.000   0.000  -0.000   0.000  -0.000   0.000
 -0.000   0.000  -0.000  -0.000  -0.000  -0.000  -0.000   0.000  -0.000  -0.000   0.000  -0.000   0.000  -0.000
  0.000  -0.000  -0.000   0.000  -0.000  -0.000  -0.000   0.000  -0.000   0.000  -0.000   0.000  -0.000  -0.000
 -0.000   0.000   0.000  -0.000   0.000   0.000  -0.000  -0.000   0.000  -0.000   0.000  -0.000   0.000   0.000
 -0.000   0.000   0.000  -0.000   0.000  -0.000   0.000  -0.000   0.000   0.000  -0.000  -0.000   0.000  -0.000


------------------------ aborting loop because EDIFF is reached ----------------------------------------


    CHARGE:  cpu time      0.0651: real time      0.0660
    FORLOC:  cpu time      0.0039: real time      0.0039
    FORNL :  cpu time      0.3929: real time      0.3954
    STRESS:  cpu time      1.1850: real time      1.1943
    FORCOR:  cpu time      0.0506: real time      0.0510
    FORHAR:  cpu time      0.0085: real time      0.0086
    MIXING:  cpu time      0.0007: real time      0.0007
    OFIELD:  cpu time      0.0000: real time      0.0000

 ---------------------------------------------------------------------------------------------

         DFTD3 V3.0 Rev 1        
 Edisp (eV)  -13.48502

 E6    (eV) :    -8.3101
 E8    (eV) :    -5.1749
 % E8        : 38.38
    FORVDW:  cpu time      0.2919: real time      0.2938

  FORCE on cell =-STRESS in cart. coord.  units (eV):
  Direction    XX          YY          ZZ          XY          YZ          ZX
  --------------------------------------------------------------------------------------
  Alpha Z   299.22794   299.22794   299.22794
  Ewald   -2869.25536 -3000.39849 -2903.70837   -47.57745    21.06622    -8.28636
  Hartree   775.27071   706.94792   759.02749   -26.59403    10.30070    -6.49149
  E(xc)    -947.66440  -947.91447  -947.70487    -0.07212     0.03270    -0.02860
  Local   -1608.05864 -1418.95149 -1559.63198    72.42729   -30.54612    13.85219
  n-local  1481.43873  1481.78326  1481.10793    -0.44734     0.22749     0.11084
  augment  -356.66251  -357.28242  -356.59211    -0.02697    -0.06614    -0.19330
  Kinetic  3240.63439  3252.08201  3240.62797     1.46899     0.42053     2.59566
  Fock        0.00000     0.00000     0.00000     0.00000     0.00000     0.00000
  vdW       -14.26996   -14.28162   -14.27028     0.01652    -0.00717    -0.01649
  -------------------------------------------------------------------------------------
  Total       0.66091     1.21265    -1.91627    -0.80510     1.42820     1.54246
  in kB       1.16721     2.14164    -3.38428    -1.42188     2.52232     2.72411
  external pressure =       -0.03 kB  Pullay stress =        0.00 kB


 VOLUME and BASIS-vectors are now :
 -----------------------------------------------------------------------------
  energy-cutoff  :      520.00
  volume of cell :      907.19
      direct lattice vectors                 reciprocal lattice vectors
     9.680547069  0.000000000  0.000000000     0.103299947  0.000000000  0.000000000
     0.000000000  9.680547069  0.000000000     0.000000000  0.103299947  0.000000000
     0.000000000  0.000000000  9.680547069     0.000000000  0.000000000  0.103299947

  length of vectors
     9.680547069  9.680547069  9.680547069     0.103299947  0.103299947  0.103299947


 FORCES acting on ions
    electron-ion (+dipol)            ewald-force                    non-local-force                 convergence-correction
 -----------------------------------------------------------------------------------------------
   -.195E+01 -.370E+00 0.768E+01   0.132E+01 -.429E+00 -.818E+01   0.626E+00 0.806E+00 0.504E+00   -.146E-03 -.237E-04 0.124E-04
   0.429E+01 -.634E+01 -.516E+01   -.513E+01 0.481E+01 0.399E+01   0.838E+00 0.154E+01 0.117E+01   0.720E-05 -.189E-04 -.403E-04
   0.116E+01 -.118E+02 0.740E+00   -.808E-01 0.109E+02 0.266E-01   -.107E+01 0.868E+00 -.764E+00   -.138E-03 0.427E-05 0.525E-04
   0.974E+01 -.357E+01 0.447E+01   -.912E+01 0.239E+01 -.315E+01   -.609E+00 0.117E+01 -.132E+01   0.375E-04 -.219E-04 -.234E-04
   0.469E+01 -.202E+01 -.351E+01   -.326E+01 0.320E+01 0.281E+01   -.143E+01 -.117E+01 0.696E+00   0.831E-05 -.157E-04 -.140E-03
   0.213E+01 0.909E+01 0.866E+00   -.316E+01 -.812E+01 0.163E-01   0.103E+01 -.975E+00 -.880E+00   -.721E-04 0.160E-03 -.172E-03
   -.440E+01 0.880E+01 0.325E+00   0.329E+01 -.753E+01 0.296E+00   0.110E+01 -.127E+01 -.619E+00   -.847E-04 0.926E-04 -.133E-03
   -.108E+02 -.948E+01 -.414E+01   0.114E+02 0.957E+01 0.345E+01   -.577E+00 -.102E+00 0.688E+00   -.240E-03 -.170E-03 -.144E-03
   0.334E+00 -.340E+01 -.349E+01   0.499E+00 0.264E+01 0.455E+01   -.833E+00 0.756E+00 -.107E+01   -.287E-04 -.884E-04 -.519E-04
   0.564E+01 0.257E+01 0.120E+01   -.458E+01 -.183E+01 -.246E+01   -.106E+01 -.738E+00 0.126E+01   0.291E-04 -.742E-04 0.528E-04
   0.734E+01 0.577E+01 0.953E+01   -.610E+01 -.652E+01 -.805E+01   -.124E+01 0.747E+00 -.149E+01   0.135E-04 0.336E-05 0.154E-03
   0.417E+01 0.987E+01 -.460E+01   -.276E+01 -.934E+01 0.342E+01   -.141E+01 -.520E+00 0.119E+01   0.879E-04 0.653E-04 0.466E-04
   -.141E+02 -.355E+01 -.203E+01   0.128E+02 0.255E+01 0.126E+01   0.133E+01 0.988E+00 0.764E+00   0.211E-04 0.485E-04 0.748E-04
   -.757E-01 0.162E+01 0.236E+01   -.108E+01 -.792E+00 -.173E+01   0.116E+01 -.826E+00 -.625E+00   0.759E-04 -.115E-03 0.122E-03
   -.112E+02 0.231E+01 -.238E+01   0.102E+02 -.144E+01 0.295E+01   0.970E+00 -.867E+00 -.575E+00   -.104E-03 -.285E-04 0.715E-04
   0.351E+01 -.327E+01 -.723E+01   -.422E+01 0.246E+01 0.629E+01   0.713E+00 0.809E+00 0.927E+00   -.311E-04 0.549E-04 0.134E-03
   -.724E+01 0.484E+01 -.104E+02   0.583E+01 -.600E+01 0.908E+01   0.142E+01 0.116E+01 0.132E+01   -.172E-04 -.308E-04 -.111E-03
   0.852E+01 -.757E+01 -.137E+02   -.746E+01 0.847E+01 0.125E+02   -.105E+01 -.902E+00 0.120E+01   -.707E-04 0.339E-04 -.399E-04
   0.142E+02 0.686E+01 0.153E+02   -.128E+02 -.805E+01 -.137E+02   -.143E+01 0.119E+01 -.158E+01   0.110E-03 0.760E-04 -.123E-04
   -.841E+00 0.146E+02 -.434E+01   0.165E+01 -.140E+02 0.312E+01   -.810E+00 -.560E+00 0.123E+01   0.856E-04 -.453E-04 -.961E-05
   -.339E+01 0.727E+00 -.635E+01   0.276E+01 0.428E+00 0.715E+01   0.630E+00 -.116E+01 -.798E+00   0.113E-03 0.203E-04 0.700E-04
   -.147E+01 0.766E+01 -.652E+01   0.684E+00 -.638E+01 0.748E+01   0.784E+00 -.128E+01 -.951E+00   0.103E-03 -.767E-05 -.350E-04
   0.362E+01 0.782E+00 0.472E+01   -.293E+01 0.471E+00 -.588E+01   -.678E+00 -.125E+01 0.115E+01   0.813E-04 -.774E-04 0.795E-04
   0.228E+01 -.508E+01 0.127E+02   -.160E+01 0.570E+01 -.134E+02   -.672E+00 -.631E+00 0.736E+00   0.115E-03 0.532E-04 0.257E-04
   -.758E+00 -.805E+01 -.168E+01   0.489E+00 0.833E+01 0.140E+01   0.264E+00 -.272E+00 0.272E+00   0.200E-03 -.665E-04 0.245E-03
   -.761E+01 -.117E+02 -.174E+01   0.775E+01 0.122E+02 0.170E+01   -.134E+00 -.515E+00 0.403E-01   -.202E-04 -.378E-04 -.254E-03
   0.449E+01 -.256E+01 0.495E+01   -.415E+01 0.224E+01 -.492E+01   -.337E+00 0.319E+00 -.326E-01   -.226E-03 0.769E-04 -.965E-04
   0.135E+00 0.490E+01 0.130E+01   -.254E+00 -.521E+01 -.117E+01   0.117E+00 0.307E+00 -.124E+00   0.357E-05 0.107E-03 0.590E-04
   -.360E+02 0.663E+02 -.223E+02   0.388E+02 -.703E+02 0.242E+02   -.285E+01 0.407E+01 -.193E+01   -.100E-03 0.629E-04 0.133E-03
   -.323E+02 -.302E+02 0.439E+02   0.352E+02 0.336E+02 -.474E+02   -.293E+01 -.334E+01 0.353E+01   -.211E-03 -.259E-03 0.266E-03
   0.391E+02 0.521E+02 0.340E+02   -.423E+02 -.555E+02 -.365E+02   0.315E+01 0.335E+01 0.253E+01   -.125E-04 -.600E-04 0.116E-03
   0.361E+02 -.300E+02 -.588E+02   -.388E+02 0.324E+02 0.629E+02   0.269E+01 -.240E+01 -.411E+01   -.108E-03 0.675E-04 0.183E-03
   0.335E+02 -.321E+02 -.498E+02   -.362E+02 0.345E+02 0.539E+02   0.268E+01 -.239E+01 -.412E+01   -.591E-04 -.188E-03 -.172E-03
   0.468E+02 0.507E+02 0.324E+02   -.496E+02 -.545E+02 -.347E+02   0.285E+01 0.375E+01 0.235E+01   -.429E-03 0.498E-04 -.235E-03
   -.211E+02 -.293E+02 0.678E+02   0.231E+02 0.318E+02 -.723E+02   -.203E+01 -.248E+01 0.446E+01   -.164E-04 0.138E-03 -.406E-04
   -.635E+02 0.227E+02 -.355E+02   0.677E+02 -.243E+02 0.380E+02   -.424E+01 0.160E+01 -.253E+01   -.352E-03 0.547E-04 -.136E-03
   -.540E+02 -.501E+02 0.241E+02   0.577E+02 0.527E+02 -.265E+02   -.368E+01 -.267E+01 0.246E+01   0.130E-03 0.248E-03 -.255E-03
   -.452E+02 0.218E+02 -.523E+02   0.485E+02 -.245E+02 0.560E+02   -.322E+01 0.266E+01 -.366E+01   -.109E-03 -.711E-04 -.346E-03
   0.141E+02 -.754E+02 -.233E+02   -.164E+02 0.800E+02 0.256E+02   0.230E+01 -.457E+01 -.233E+01   0.200E-03 -.334E-03 -.279E-03
   0.365E+02 0.272E+02 0.502E+02   -.399E+02 -.299E+02 -.538E+02   0.334E+01 0.269E+01 0.360E+01   0.144E-03 -.295E-04 -.119E-03
   -.451E+02 -.512E+02 0.255E+02   0.488E+02 0.543E+02 -.278E+02   -.371E+01 -.310E+01 0.230E+01   0.207E-03 -.869E-04 0.118E-03
   -.340E+02 0.343E+02 -.522E+02   0.368E+02 -.378E+02 0.557E+02   -.277E+01 0.349E+01 -.342E+01   0.144E-03 0.206E-04 0.139E-03
   0.608E+02 -.413E+02 -.191E+02   -.650E+02 0.439E+02 0.210E+02   0.423E+01 -.260E+01 -.187E+01   0.287E-03 -.142E-04 0.253E-03
   0.407E+02 0.191E+02 0.570E+02   -.437E+02 -.209E+02 -.610E+02   0.295E+01 0.180E+01 0.396E+01   0.250E-03 0.409E-04 0.354E-03
   -.170E+02 -.531E+01 0.223E+02   0.173E+02 0.531E+01 -.228E+02   -.339E+00 0.177E-02 0.539E+00   -.251E-03 -.165E-03 0.144E-04
   0.133E+01 -.856E+00 0.281E+02   -.122E+01 0.860E+00 -.286E+02   -.117E+00 -.425E-02 0.504E+00   0.184E-03 0.304E-05 -.243E-05
   0.298E+01 0.875E+01 -.217E+02   -.312E+01 -.895E+01 0.221E+02   0.135E+00 0.198E+00 -.408E+00   -.114E-03 0.156E-03 -.167E-03
   -.311E+01 -.180E+02 -.292E+01   0.313E+01 0.184E+02 0.293E+01   -.139E-01 -.364E+00 -.618E-02   0.189E-03 -.298E-05 -.194E-05
   0.395E+02 0.159E+01 -.135E+01   -.401E+02 -.161E+01 0.143E+01   0.575E+00 0.279E-01 -.818E-01   0.134E-03 0.328E-04 -.849E-04
   -.199E+02 -.423E+02 -.197E+02   0.203E+02 0.430E+02 0.201E+02   -.401E+00 -.656E+00 -.374E+00   -.499E-03 -.240E-03 0.138E-03
   0.206E+01 0.355E+02 -.879E+00   -.226E+01 -.360E+02 0.898E+00   0.197E+00 0.477E+00 -.187E-01   -.119E-03 0.274E-03 0.294E-03
   0.859E+01 0.661E+02 -.174E+02   -.882E+01 -.672E+02 0.178E+02   0.228E+00 0.111E+01 -.333E+00   0.676E-03 0.492E-03 -.534E-03
 -----------------------------------------------------------------------------------------------
   0.336E+01 0.173E+01 -.335E+01   0.195E-13 -.853E-13 -.426E-13   -.336E+01 -.174E+01 0.335E+01   0.767E-04 0.163E-03 -.428E-03
 
 
 POSITION                                       TOTAL-FORCE (eV/Angst)
 -----------------------------------------------------------------------------------
      9.45731      2.93945      2.78371         0.000016      0.000403     -0.000099
      9.40630      7.84072      7.78271         0.000082      0.000085     -0.000284
      0.28253      3.11665      6.62487         0.000082      0.000068      0.000046
      0.15530      7.74933      1.80366         0.000037     -0.000071     -0.000016
      1.76926      2.07965      9.42511        -0.000883     -0.000110     -0.000027
      2.73148      6.73732      0.16061        -0.000096     -0.000481      0.000240
      7.99957      1.44328      0.36728        -0.000217     -0.000291      0.000277
      7.00193      7.17925      9.47364         0.000530      0.000825      0.000111
      2.16480      9.50228      1.74724         0.000085      0.000067     -0.000027
      1.82830      0.18318      7.61358         0.000216     -0.000124     -0.000070
      6.70343      9.25089      6.49890         0.000035     -0.000226     -0.000313
      6.77338      0.14996      3.20600         0.000029      0.000171      0.000207
      3.17232      8.07820      4.48343         0.000316     -0.000092      0.000029
      2.72805      1.99585      4.96078        -0.000207      0.000266     -0.000099
      8.06486      6.39037      5.11054         0.000139      0.000064      0.000043
      7.60043      2.91724      4.64552         0.000028      0.000065      0.000015
      3.07786      4.50209      7.76924         0.000188     -0.000267      0.000382
      1.70847      5.29350      3.33698         0.000250      0.000125      0.000482
      6.57749      4.39499      1.72386        -0.000368      0.000023      0.000003
      6.87127      4.87079      7.84564         0.000009     -0.000037      0.000466
      4.59826      1.74481      6.89191        -0.000065     -0.000093     -0.000120
      4.60025      6.74095      2.03081        -0.000016      0.000020     -0.000001
      5.00493      2.00020      2.88071        -0.000201     -0.000235     -0.000309
      5.01146      6.93630      7.48360         0.000018     -0.000272      0.000149
      4.80051      4.83096      4.82013         0.000118     -0.000031      0.000053
      4.86979      0.04308      9.65335        -0.000346      0.000063     -0.000201
      0.01934      4.78588      9.66472         0.000059     -0.000004      0.000147
      0.00405      9.59433      4.77119         0.000114      0.000113     -0.000303
      1.20929      8.38805      5.91171        -0.000122      0.000245     -0.000247
      1.13245      1.08460      3.50974        -0.000159     -0.000024      0.000078
      8.47869      8.33770      3.68679         0.000155      0.000208      0.000112
      8.54421      1.09502      6.00436         0.000117     -0.000101     -0.000110
      8.44858      5.92475      1.15705         0.000185     -0.000231     -0.000204
      8.58867      3.40508      8.62716         0.000076     -0.000179      0.000083
      1.09500      5.91784      8.32860        -0.000090     -0.000126      0.000036
      1.34703      3.85058      1.22873        -0.000380      0.000503     -0.000487
      6.21260      1.00173      8.44234         0.000060     -0.000094     -0.000022
      5.94247      8.58661      1.31127        -0.000424      0.000462     -0.000295
      3.72808      1.40565      0.98878         0.000296     -0.000380     -0.000534
      3.64141      8.55725      8.48251        -0.000065     -0.000195      0.000124
      6.10493      5.91023      3.66664        -0.000142     -0.000012      0.000134
      5.86573      3.61402      6.09570         0.000000     -0.000013      0.000075
      3.54067      6.04225      5.89226         0.000153     -0.000357     -0.000181
      3.60713      3.73692      3.56079         0.000493      0.000379      0.000384
      7.27868      7.10134      7.21148         0.000021     -0.000021      0.000094
      7.25299      2.29307      2.43653        -0.000086      0.000051      0.000097
      2.39327      7.31240      2.37730         0.000070      0.000014      0.000042
      2.39872      2.36490      7.20802        -0.000025     -0.000061      0.000023
      0.28232      9.59512      9.63679        -0.000034     -0.000031      0.000007
      9.51053      4.48597      4.70455         0.000030     -0.000004     -0.000029
      4.81896      0.26094      4.81366         0.000022     -0.000002     -0.000032
      4.90449      5.30223      9.52521        -0.000098     -0.000055      0.000070
 -----------------------------------------------------------------------------------
    total drift:                                0.004463     -0.004403      0.000359


--------------------------------------------------------------------------------------------------------



  FREE ENERGIE OF THE ION-ELECTRON SYSTEM (eV)
  ---------------------------------------------------
  free  energy   TOTEN  =      -272.20891350 eV

  energy  without entropy=     -272.20891350  energy(sigma->0) =     -272.20891350
 
 d Force = 0.3700064E-06[ 0.327E-06, 0.413E-06]  d Energy = 0.1005247E-05-0.635E-06
 d Force = 0.1377728E-01[ 0.138E-01, 0.138E-01]  d Ewald  = 0.1377728E-01-0.364E-10


--------------------------------------------------------------------------------------------------------


    POTLOK:  cpu time      0.4654: real time      0.4672


--------------------------------------------------------------------------------------------------------


 stress matrix after NEB project (eV)
      0.66091     -0.80510      1.54246
     -0.80510      1.21265      1.42820
      1.54246      1.42820     -1.91627
  FORCES: max atom, RMS     0.000987    0.000385
  FORCE total and by dimension    0.002774    0.000883
  Stress total and by dimension    3.964044    1.916267


--------------------------------------------------------------------------------------------------------


  
 reached required accuracy - stopping structural energy minimisation
     LOOP+:  cpu time      7.7182: real time      7.8108
    4ORBIT:  cpu time      0.0000: real time      0.0000

 total amount of memory used by VASP MPI-rank0    48130. kBytes
=======================================================================

   base      :      30000. kBytes
   nonlr-proj:       6493. kBytes
   fftplans  :       1747. kBytes
   grid      :       5278. kBytes
   one-center:         62. kBytes
   wavefun   :       4550. kBytes
 
  
  
 General timing and accounting informations for this job:
 ========================================================
  
                  Total CPU time used (sec):      110.093
                            User time (sec):      108.885
                          System time (sec):        1.208
                         Elapsed time (sec):      114.550
  
                   Maximum memory used (kb):      384412.
                   Average memory used (kb):          N/A
  
                          Minor page faults:        58846
                          Major page faults:          139
                 Voluntary context switches:         3556
