<?xml version="1.0" encoding="ISO-8859-1"?>
<modeling>
 <generator>
  <i name="program" type="string">vasp </i>
  <i name="version" type="string">6.4.1  </i>
  <i name="subversion" type="string">05Apr23 (build Jun 07 2023 15:38:11) complex                          parallel </i>
  <i name="platform" type="string">LinuxIFC </i>
  <i name="date" type="string">2023 10 20 </i>
  <i name="time" type="string">08:27:03 </i>
 </generator>
 <incar>
  <i type="string" name="PREC">Accu</i>
  <i type="string" name="ALGO">F</i>
  <i type="logical" name="LDIAG"> T  </i>
  <i type="int" name="ISPIN">     2</i>
  <i type="int" name="NELM">   100</i>
  <i type="int" name="NELMDL">   -10</i>
  <i type="int" name="IBRION">     2</i>
  <i name="EDIFF">      0.00000100</i>
  <i name="EDIFFG">     -0.00100000</i>
  <i type="int" name="NSW">  1000</i>
  <i type="int" name="ISIF">     2</i>
  <i name="ENCUT">    520.00000000</i>
  <i name="POTIM">      0.20000000</i>
  <i type="string" name="LREAL">Auto</i>
  <i type="logical" name="LPLANE"> T  </i>
  <i type="int" name="ISMEAR">     0</i>
  <i name="SIGMA">      0.03000000</i>
  <i type="int" name="LMAXMIX">     4</i>
  <i type="logical" name="LWAVE"> F  </i>
  <i type="logical" name="LCHARG"> F  </i>
  <i type="logical" name="LASPH"> T  </i>
  <i type="string" name="GGA">PE</i>
  <i type="int" name="IVDW">    12</i>
 </incar>
 <primitive_cell>
  <structure name="primitive_cell" >
   <crystal>
    <varray name="basis" >
     <v>       9.68054707       0.00000000       0.00000000 </v>
     <v>       0.00000000       9.68054707       0.00000000 </v>
     <v>       0.00000000       0.00000000       9.68054707 </v>
    </varray>
    <i name="volume">    907.19302574 </i>
    <varray name="rec_basis" >
     <v>       0.10329995       0.00000000       0.00000000 </v>
     <v>       0.00000000       0.10329995       0.00000000 </v>
     <v>       0.00000000       0.00000000       0.10329995 </v>
    </varray>
   </crystal>
   <varray name="positions" >
    <v>       0.97694075       0.30363371       0.28756049 </v>
    <v>       0.97166656       0.80994260       0.80396150 </v>
    <v>       0.02918505       0.32194673       0.68434687 </v>
    <v>       0.01604138       0.80050787       0.18631942 </v>
    <v>       0.18279108       0.21483116       0.97361625 </v>
    <v>       0.28216495       0.69597720       0.01658685 </v>
    <v>       0.82636137       0.14909773       0.03793563 </v>
    <v>       0.72328461       0.74159454       0.97862535 </v>
    <v>       0.22362079       0.98158504       0.18049330 </v>
    <v>       0.18885684       0.01892668       0.78648442 </v>
    <v>       0.69246292       0.95562092       0.67134384 </v>
    <v>       0.69968885       0.01548612       0.33117365 </v>
    <v>       0.32769199       0.83447951       0.46313731 </v>
    <v>       0.28181194       0.20616381       0.51245086 </v>
    <v>       0.83309406       0.66012197       0.52791739 </v>
    <v>       0.78512304       0.30134693       0.47987974 </v>
    <v>       0.31793815       0.46507169       0.80255285 </v>
    <v>       0.17647819       0.54681358       0.34469613 </v>
    <v>       0.67946435       0.45400133       0.17807489 </v>
    <v>       0.70980152       0.50315381       0.81044171 </v>
    <v>       0.47500028       0.18024212       0.71193910 </v>
    <v>       0.47520407       0.69634078       0.20978294 </v>
    <v>       0.51701209       0.20662753       0.29758487 </v>
    <v>       0.51768297       0.71652673       0.77305122 </v>
    <v>       0.49589540       0.49903925       0.49791814 </v>
    <v>       0.50305249       0.00444979       0.99718567 </v>
    <v>       0.00199460       0.49438100       0.99836164 </v>
    <v>       0.00041574       0.99108968       0.49286630 </v>
    <v>       0.12491283       0.86648379       0.61068437 </v>
    <v>       0.11698197       0.11203186       0.36256402 </v>
    <v>       0.87584877       0.86128277       0.38085113 </v>
    <v>       0.88261619       0.11311158       0.62025021 </v>
    <v>       0.87274285       0.61202641       0.11952250 </v>
    <v>       0.88720883       0.35175568       0.89118211 </v>
    <v>       0.11311442       0.61131163       0.86035239 </v>
    <v>       0.13914096       0.39775789       0.12692756 </v>
    <v>       0.64175746       0.10348204       0.87210190 </v>
    <v>       0.61386121       0.88699029       0.13544903 </v>
    <v>       0.38511815       0.14519514       0.10215259 </v>
    <v>       0.37616420       0.88397539       0.87624356 </v>
    <v>       0.63063374       0.61052029       0.37876202 </v>
    <v>       0.60592707       0.37332878       0.62967879 </v>
    <v>       0.36575461       0.62416674       0.60866625 </v>
    <v>       0.37261298       0.38602477       0.36783423 </v>
    <v>       0.75188626       0.73357053       0.74494559 </v>
    <v>       0.74923484       0.23686975       0.25169206 </v>
    <v>       0.24722389       0.75536968       0.24557235 </v>
    <v>       0.24778835       0.24429687       0.74458756 </v>
    <v>       0.02917210       0.99118282       0.99548297 </v>
    <v>       0.98243118       0.46339369       0.48597622 </v>
    <v>       0.49779659       0.02695900       0.49725004 </v>
    <v>       0.50664096       0.54772896       0.98394557 </v>
   </varray>
  </structure>
  <varray name="primitive_index" >
   <v type="int" >        1 </v>
   <v type="int" >        2 </v>
   <v type="int" >        3 </v>
   <v type="int" >        4 </v>
   <v type="int" >        5 </v>
   <v type="int" >        6 </v>
   <v type="int" >        7 </v>
   <v type="int" >        8 </v>
   <v type="int" >        9 </v>
   <v type="int" >       10 </v>
   <v type="int" >       11 </v>
   <v type="int" >       12 </v>
   <v type="int" >       13 </v>
   <v type="int" >       14 </v>
   <v type="int" >       15 </v>
   <v type="int" >       16 </v>
   <v type="int" >       17 </v>
   <v type="int" >       18 </v>
   <v type="int" >       19 </v>
   <v type="int" >       20 </v>
   <v type="int" >       21 </v>
   <v type="int" >       22 </v>
   <v type="int" >       23 </v>
   <v type="int" >       24 </v>
   <v type="int" >       25 </v>
   <v type="int" >       26 </v>
   <v type="int" >       27 </v>
   <v type="int" >       28 </v>
   <v type="int" >       29 </v>
   <v type="int" >       30 </v>
   <v type="int" >       31 </v>
   <v type="int" >       32 </v>
   <v type="int" >       33 </v>
   <v type="int" >       34 </v>
   <v type="int" >       35 </v>
   <v type="int" >       36 </v>
   <v type="int" >       37 </v>
   <v type="int" >       38 </v>
   <v type="int" >       39 </v>
   <v type="int" >       40 </v>
   <v type="int" >       41 </v>
   <v type="int" >       42 </v>
   <v type="int" >       43 </v>
   <v type="int" >       44 </v>
   <v type="int" >       45 </v>
   <v type="int" >       46 </v>
   <v type="int" >       47 </v>
   <v type="int" >       48 </v>
   <v type="int" >       49 </v>
   <v type="int" >       50 </v>
   <v type="int" >       51 </v>
   <v type="int" >       52 </v>
  </varray>
 </primitive_cell>
 <kpoints>
  <generation param="Monkhorst-Pack">
   <v type="int" name="divisions">       2        2        2 </v>
   <v name="usershift">      0.00000000       0.00000000       0.00000000 </v>
   <v name="genvec1">      0.50000000       0.00000000       0.00000000 </v>
   <v name="genvec2">      0.00000000       0.50000000       0.00000000 </v>
   <v name="genvec3">      0.00000000       0.00000000       0.50000000 </v>
   <v name="shift">      0.50000000       0.50000000       0.50000000 </v>
  </generation>
  <varray name="kpointlist" >
   <v>       0.25000000       0.25000000       0.25000000 </v>
   <v>      -0.25000000       0.25000000       0.25000000 </v>
   <v>      -0.25000000      -0.25000000       0.25000000 </v>
   <v>       0.25000000      -0.25000000       0.25000000 </v>
  </varray>
  <varray name="weights" >
   <v>       0.25000000 </v>
   <v>       0.25000000 </v>
   <v>       0.25000000 </v>
   <v>       0.25000000 </v>
  </varray>
 </kpoints>
 <parameters>
  <separator name="general" >
   <i type="string" name="SYSTEM">unknown system</i>
   <i type="logical" name="LCOMPAT"> F  </i>
  </separator>
  <separator name="electronic" >
   <i type="string" name="PREC">accu</i>
   <i name="ENMAX">    520.00000000</i>
   <i name="ENAUG">   1041.69900000</i>
   <i name="EDIFF">      0.00000100</i>
   <i type="int" name="IALGO">    68</i>
   <i type="int" name="IWAVPR">    11</i>
   <i type="int" name="NBANDS">   176</i>
   <i type="int" name="NBANDSLOW">    -1</i>
   <i type="int" name="NBANDSHIGH">    -1</i>
   <i name="NELECT">    240.00000000</i>
   <i type="int" name="TURBO">     0</i>
   <i type="int" name="IRESTART">     0</i>
   <i type="int" name="NREBOOT">     0</i>
   <i type="int" name="NMIN">     0</i>
   <i name="EREF">      0.00000000</i>
   <separator name="electronic smearing" >
    <i type="int" name="ISMEAR">     0</i>
    <i name="SIGMA">      0.03000000</i>
    <i name="KSPACING">      0.50000000</i>
    <i type="logical" name="KGAMMA"> T  </i>
    <i type="logical" name="KBLOWUP"> T  </i>
   </separator>
   <separator name="electronic projectors" >
    <i type="logical" name="LREAL"> T  </i>
    <v name="ROPT">     -0.00025000     -0.00025000     -0.00025000     -0.00025000</v>
    <i type="int" name="LMAXPAW">  -100</i>
    <i type="int" name="LMAXMIX">     4</i>
    <i type="logical" name="NLSPLINE"> F  </i>
   </separator>
   <separator name="electronic startup" >
    <i type="int" name="ISTART">     0</i>
    <i type="int" name="ICHARG">     2</i>
    <i type="int" name="INIWAV">     1</i>
   </separator>
   <separator name="electronic spin" >
    <i type="int" name="ISPIN">     2</i>
    <i type="logical" name="LNONCOLLINEAR"> F  </i>
    <v name="MAGMOM">      1.00000000      1.00000000      1.00000000      1.00000000      1.00000000      1.00000000      1.00000000      1.00000000      1.00000000      1.00000000      1.00000000      1.00000000      1.00000000      1.00000000      1.00000000      1.00000000      1.00000000      1.00000000      1.00000000      1.00000000
      1.00000000      1.00000000      1.00000000      1.00000000      1.00000000      1.00000000      1.00000000      1.00000000      1.00000000      1.00000000      1.00000000      1.00000000      1.00000000      1.00000000      1.00000000      1.00000000      1.00000000      1.00000000      1.00000000      1.00000000
      1.00000000      1.00000000      1.00000000      1.00000000      1.00000000      1.00000000      1.00000000      1.00000000      1.00000000      1.00000000      1.00000000      1.00000000</v>
    <i name="NUPDOWN">     -1.00000000</i>
    <i type="logical" name="LSORBIT"> F  </i>
    <v name="SAXIS">      0.00000000      0.00000000      1.00000000</v>
    <i type="logical" name="LSPIRAL"> F  </i>
    <v name="QSPIRAL">      0.00000000      0.00000000      0.00000000</v>
    <i type="logical" name="LZEROZ"> F  </i>
   </separator>
   <separator name="electronic exchange-correlation" >
    <i type="logical" name="LASPH"> T  </i>
    <i type="logical" name="LMETAGGA"> F  </i>
   </separator>
   <separator name="electronic convergence" >
    <i type="int" name="NELM">   100</i>
    <i type="int" name="NELMDL">   -10</i>
    <i type="int" name="NELMIN">     2</i>
    <i name="ENINI">    520.00000000</i>
    <separator name="electronic convergence detail" >
     <i type="logical" name="LDIAG"> T  </i>
     <i type="logical" name="LSUBROT"> F  </i>
     <i name="WEIMIN">      0.00100000</i>
     <i name="EBREAK">      0.00000000</i>
     <i name="DEPER">      0.30000000</i>
     <i type="int" name="NRMM">     4</i>
     <i name="TIME">      0.40000000</i>
    </separator>
   </separator>
   <separator name="electronic mixer" >
    <i name="AMIX">      0.40000000</i>
    <i name="BMIX">      1.00000000</i>
    <i name="AMIN">      0.10000000</i>
    <i name="AMIX_MAG">      1.60000000</i>
    <i name="BMIX_MAG">      1.00000000</i>
    <separator name="electronic mixer details" >
     <i type="int" name="IMIX">     4</i>
     <i type="logical" name="MIXFIRST"> F  </i>
     <i type="int" name="MAXMIX">   -45</i>
     <i name="WC">    100.00000000</i>
     <i type="int" name="INIMIX">     1</i>
     <i type="int" name="MIXPRE">     1</i>
     <i type="int" name="MREMOVE">     5</i>
    </separator>
   </separator>
   <separator name="electronic dipolcorrection" >
    <i type="logical" name="LDIPOL"> F  </i>
    <i type="logical" name="LMONO"> F  </i>
    <i type="int" name="IDIPOL">     0</i>
    <i name="EPSILON">      1.00000000</i>
    <v name="DIPOL">   -100.00000000   -100.00000000   -100.00000000</v>
    <i name="EFIELD">      0.00000000</i>
   </separator>
  </separator>
  <separator name="grids" >
   <i type="int" name="NGX">    72</i>
   <i type="int" name="NGY">    72</i>
   <i type="int" name="NGZ">    72</i>
   <i type="int" name="NGXF">   144</i>
   <i type="int" name="NGYF">   144</i>
   <i type="int" name="NGZF">   144</i>
   <i type="logical" name="ADDGRID"> F  </i>
  </separator>
  <separator name="ionic" >
   <i type="int" name="NSW">  1000</i>
   <i type="int" name="IBRION">     2</i>
   <i type="int" name="MDALGO">     0</i>
   <i type="int" name="ISIF">     2</i>
   <i name="PSTRESS">      0.00000000</i>
   <i name="EDIFFG">     -0.00100000</i>
   <i type="int" name="NFREE">     1</i>
   <i name="POTIM">      0.20000000</i>
   <i name="SMASS">     -3.00000000</i>
   <i name="SCALEE">      1.00000000</i>
  </separator>
  <separator name="ionic md" >
   <i name="TEBEG">      0.00010000</i>
   <i name="TEEND">      0.00010000</i>
   <i type="int" name="NBLOCK">     1</i>
   <i type="int" name="KBLOCK">  1000</i>
   <i type="int" name="NPACO">   256</i>
   <i name="APACO">     10.00000000</i>
  </separator>
  <separator name="symmetry" >
   <i type="int" name="ISYM">     2</i>
   <i name="SYMPREC">      0.00001000</i>
  </separator>
  <separator name="dos" >
   <i type="int" name="LORBIT">     0</i>
   <v name="RWIGS">     -1.00000000     -1.00000000     -1.00000000     -1.00000000</v>
   <i type="int" name="NEDOS">   301</i>
   <i name="EMIN">     10.00000000</i>
   <i name="EMAX">    -10.00000000</i>
   <i name="EFERMI">      0.00000000</i>
  </separator>
  <separator name="writing" >
   <i type="int" name="NWRITE">     2</i>
   <i type="logical" name="LWAVE"> F  </i>
   <i type="logical" name="LDOWNSAMPLE"> F  </i>
   <i type="logical" name="LCHARG"> F  </i>
   <i type="logical" name="LPARD"> F  </i>
   <i type="logical" name="LVTOT"> F  </i>
   <i type="logical" name="LVHAR"> F  </i>
   <i type="logical" name="LELF"> F  </i>
   <i type="logical" name="LOPTICS"> F  </i>
   <v name="STM">      0.00000000      0.00000000      0.00000000      0.00000000      0.00000000      0.00000000      0.00000000</v>
  </separator>
  <separator name="performance" >
   <i type="int" name="NPAR">     4</i>
   <i type="int" name="NSIM">     4</i>
   <i type="int" name="NBLK">    -1</i>
   <i type="logical" name="LPLANE"> T  </i>
   <i type="logical" name="LSCALAPACK"> T  </i>
   <i type="logical" name="LSCAAWARE"> F  </i>
   <i type="logical" name="LSCALU"> F  </i>
   <i type="logical" name="LASYNC"> F  </i>
   <i type="logical" name="LORBITALREAL"> F  </i>
  </separator>
  <separator name="miscellaneous" >
   <i type="int" name="IDIOT">     3</i>
   <i type="int" name="PHON_NSTRUCT">    -1</i>
   <i type="logical" name="LMUSIC"> F  </i>
   <v name="POMASS">      7.01000000     30.97400000     32.06600000     35.45300000</v>
   <v name="DARWINR">      0.00000000      0.00000000      0.00000000      0.00000000</v>
   <v name="DARWINV">      1.00000000      1.00000000      1.00000000      1.00000000</v>
   <i type="logical" name="LCORR"> T  </i>
  </separator>
  <i type="logical" name="GGA_COMPAT"> T  </i>
  <i type="logical" name="LBERRY"> F  </i>
  <i type="int" name="ICORELEVEL">     0</i>
  <i type="logical" name="LDAU"> F  </i>
  <i type="int" name="I_CONSTRAINED_M">     0</i>
  <separator name="electronic exchange-correlation" >
   <i type="string" name="GGA">PE</i>
   <i type="int" name="VOSKOWN">     0</i>
   <i type="logical" name="LHFCALC"> F  </i>
   <i type="string" name="PRECFOCK"></i>
   <i type="logical" name="LSYMGRAD"> F  </i>
   <i type="logical" name="LHFONE"> F  </i>
   <i type="logical" name="LRHFCALC"> F  </i>
   <i type="logical" name="LTHOMAS"> F  </i>
   <i type="logical" name="LMODELHF"> F  </i>
   <i type="logical" name="LFOCKACE"> F  </i>
   <i name="ENCUT4O">     -1.00000000</i>
   <i type="int" name="EXXOEP">     0</i>
   <i type="int" name="FOURORBIT">     0</i>
   <i name="AEXX">      0.00000000</i>
   <i name="HFALPHA">      0.00000000</i>
   <i name="MCALPHA">      0.00000000</i>
   <i name="ALDAX">      1.00000000</i>
   <i name="AGGAX">      1.00000000</i>
   <i name="ALDAC">      1.00000000</i>
   <i name="AGGAC">      1.00000000</i>
   <i type="int" name="NKREDX">     1</i>
   <i type="int" name="NKREDY">     1</i>
   <i type="int" name="NKREDZ">     1</i>
   <i type="logical" name="SHIFTRED"> F  </i>
   <i type="logical" name="ODDONLY"> F  </i>
   <i type="logical" name="EVENONLY"> F  </i>
   <i type="int" name="LMAXFOCK">     0</i>
   <i type="int" name="NMAXFOCKAE">     0</i>
   <i type="logical" name="LFOCKAEDFT"> F  </i>
   <i name="HFSCREEN">      0.00000000</i>
   <i name="HFSCREENC">      0.00000000</i>
   <i type="int" name="NBANDSGWLOW">     0</i>
  </separator>
  <separator name="vdW DFT" >
   <i type="logical" name="LUSE_VDW"> F  </i>
   <i type="int" name="IVDW_NL">     1</i>
   <i type="logical" name="LSPIN_VDW"> F  </i>
   <i name="Zab_VDW">     -0.84910000</i>
   <i name="PARAM1">      0.12340000</i>
   <i name="PARAM2">      1.00000000</i>
   <i name="PARAM3">      0.00000000</i>
  </separator>
  <separator name="model GW" >
   <i type="int" name="MODEL_GW">     0</i>
   <i name="MODEL_EPS0">     10.46761184</i>
   <i name="MODEL_ALPHA">      1.00000000</i>
  </separator>
  <separator name="linear response parameters" >
   <i type="logical" name="LEPSILON"> F  </i>
   <i type="logical" name="LRPA"> F  </i>
   <i type="logical" name="LNABLA"> F  </i>
   <i type="logical" name="LVEL"> F  </i>
   <i name="CSHIFT">      0.10000000</i>
   <i name="OMEGAMAX">     -1.00000000</i>
   <i name="DEG_THRESHOLD">      0.00200000</i>
   <i name="RTIME">     -0.10000000</i>
   <i name="WPLASMAI">      0.00000000</i>
   <v name="DFIELD">      0.00000000      0.00000000      0.00000000</v>
   <v name="WPLASMA">      0.00000000      0.00000000      0.00000000      0.00000000      0.00000000      0.00000000      0.00000000      0.00000000      0.00000000</v>
  </separator>
  <separator name="orbital magnetization" >
   <i type="logical" name="NUCIND"> F  </i>
   <v name="MAGPOS">      0.00000000      0.00000000      0.00000000</v>
   <i type="logical" name="LNICSALL"> T  </i>
   <i type="logical" name="ORBITALMAG"> F  </i>
   <i type="logical" name="LMAGBLOCH"> F  </i>
   <i type="logical" name="LCHIMAG"> F  </i>
   <i type="logical" name="LGAUGE"> T  </i>
   <i type="int" name="MAGATOM">     0</i>
   <v name="MAGDIPOL">      0.00000000      0.00000000      0.00000000</v>
   <v name="AVECCONST">      0.00000000      0.00000000      0.00000000</v>
  </separator>
  <separator name="response functions" >
   <i type="logical" name="LALL_IN_ONE"> F  </i>
   <i type="int" name="IALL_IN_ONE">    -1</i>
   <i type="int" name="NBANDS_WAVE">    -1</i>
   <i type="logical" name="LFINITE_TEMPERATURE"> F  </i>
   <i type="logical" name="LADDER"> F  </i>
   <i type="logical" name="LRPAFORCE"> F  </i>
   <i type="logical" name="LFXC"> F  </i>
   <i type="logical" name="LHARTREE"> T  </i>
   <i type="int" name="IBSE">     0</i>
   <v type="int" name="KPOINT">    -1     0     0     0</v>
   <i type="logical" name="LTCTC"> F  </i>
   <i type="logical" name="LTCTE"> F  </i>
   <i type="logical" name="LTETE"> F  </i>
   <i type="logical" name="LTRIPLET"> F  </i>
   <i type="logical" name="LFXCEPS"> F  </i>
   <i type="logical" name="LFXHEG"> F  </i>
   <i type="int" name="NATURALO">     2</i>
   <i type="logical" name="LHOLEGF"> F  </i>
   <i type="logical" name="L2ORDER"> F  </i>
   <i type="logical" name="LDMP1"> F  </i>
   <i type="logical" name="LMP2LT"> F  </i>
   <i type="logical" name="LSMP2LT"> F  </i>
   <i type="logical" name="LGWLF"> F  </i>
   <i name="ENCUTGW">     -1.60000002</i>
   <i name="ENCUTGWSOFT">     -1.60000002</i>
   <i name="ENCUTLF">     -1.00000000</i>
   <i type="logical" name="LESF_SPLINES"> F  </i>
   <i type="int" name="LMAXMP2">    -1</i>
   <i name="SCISSOR">      0.00000000</i>
   <i type="int" name="NOMEGA">     0</i>
   <i type="int" name="NOMEGAR">     0</i>
   <i type="int" name="NBANDSGW">    -1</i>
   <i type="int" name="NBANDSO">    -1</i>
   <i type="int" name="NBANDSV">    -1</i>
   <i type="int" name="NELMGW">     1</i>
   <i type="int" name="NELMHF">     1</i>
   <i type="int" name="DIM">     3</i>
   <i type="int" name="IESPILON">     4</i>
   <i type="int" name="ANTIRES">     0</i>
   <i name="OMEGAMAX">    -30.00000000</i>
   <i name="OMEGAMIN">    -30.00000000</i>
   <i name="OMEGATL">   -200.00000000</i>
   <i type="int" name="OMEGAGRID">     0</i>
   <i name="CSHIFT">     -0.10000000</i>
   <i type="logical" name="LSELFENERGY"> F  </i>
   <i type="logical" name="LSPECTRAL"> F  </i>
   <i type="logical" name="LSPECTRALGW"> F  </i>
   <i type="logical" name="LSINGLES"> F  </i>
   <i type="logical" name="LFERMIGW"> F  </i>
   <i type="logical" name="ODDONLYGW"> F  </i>
   <i type="logical" name="EVENONLYGW"> F  </i>
   <i type="int" name="NKREDLFX">     1</i>
   <i type="int" name="NKREDLFY">     1</i>
   <i type="int" name="NKREDLFZ">     1</i>
   <i type="int" name="MAXMEM">  2800</i>
   <i type="int" name="TELESCOPE">     0</i>
   <i type="int" name="NTAUPAR">    -1</i>
   <i type="int" name="NOMEGAPAR">    -1</i>
   <i name="DAMP_NEWTON">      0.80000001</i>
   <i name="LAMBDA">      1.00000000</i>
  </separator>
  <separator name="External order field" >
   <i name="OFIELD_KAPPA">      0.00000000</i>
   <v name="OFIELD_K">      0.00000000      0.00000000      0.00000000</v>
   <i name="OFIELD_Q6_NEAR">      0.00000000</i>
   <i name="OFIELD_Q6_FAR">      0.00000000</i>
   <i name="OFIELD_A">      0.00000000</i>
  </separator>
  <separator name="optional k-points parameters" >
   <i type="int" name="KPOINTS_OPT_MODE">     1</i>
   <i type="logical" name="LKPOINTS_OPT"> F  </i>
  </separator>
 </parameters>
 <atominfo>
  <atoms>      52 </atoms>
  <types>       4 </types>
  <array name="atoms" >
   <dimension dim="1">ion</dimension>
   <field type="string">element</field>
   <field type="int">atomtype</field>
   <set>
    <rc><c>Li</c><c>   1</c></rc>
    <rc><c>Li</c><c>   1</c></rc>
    <rc><c>Li</c><c>   1</c></rc>
    <rc><c>Li</c><c>   1</c></rc>
    <rc><c>Li</c><c>   1</c></rc>
    <rc><c>Li</c><c>   1</c></rc>
    <rc><c>Li</c><c>   1</c></rc>
    <rc><c>Li</c><c>   1</c></rc>
    <rc><c>Li</c><c>   1</c></rc>
    <rc><c>Li</c><c>   1</c></rc>
    <rc><c>Li</c><c>   1</c></rc>
    <rc><c>Li</c><c>   1</c></rc>
    <rc><c>Li</c><c>   1</c></rc>
    <rc><c>Li</c><c>   1</c></rc>
    <rc><c>Li</c><c>   1</c></rc>
    <rc><c>Li</c><c>   1</c></rc>
    <rc><c>Li</c><c>   1</c></rc>
    <rc><c>Li</c><c>   1</c></rc>
    <rc><c>Li</c><c>   1</c></rc>
    <rc><c>Li</c><c>   1</c></rc>
    <rc><c>Li</c><c>   1</c></rc>
    <rc><c>Li</c><c>   1</c></rc>
    <rc><c>Li</c><c>   1</c></rc>
    <rc><c>Li</c><c>   1</c></rc>
    <rc><c>P </c><c>   2</c></rc>
    <rc><c>P </c><c>   2</c></rc>
    <rc><c>P </c><c>   2</c></rc>
    <rc><c>P </c><c>   2</c></rc>
    <rc><c>S </c><c>   3</c></rc>
    <rc><c>S </c><c>   3</c></rc>
    <rc><c>S </c><c>   3</c></rc>
    <rc><c>S </c><c>   3</c></rc>
    <rc><c>S </c><c>   3</c></rc>
    <rc><c>S </c><c>   3</c></rc>
    <rc><c>S </c><c>   3</c></rc>
    <rc><c>S </c><c>   3</c></rc>
    <rc><c>S </c><c>   3</c></rc>
    <rc><c>S </c><c>   3</c></rc>
    <rc><c>S </c><c>   3</c></rc>
    <rc><c>S </c><c>   3</c></rc>
    <rc><c>S </c><c>   3</c></rc>
    <rc><c>S </c><c>   3</c></rc>
    <rc><c>S </c><c>   3</c></rc>
    <rc><c>S </c><c>   3</c></rc>
    <rc><c>S </c><c>   3</c></rc>
    <rc><c>S </c><c>   3</c></rc>
    <rc><c>S </c><c>   3</c></rc>
    <rc><c>S </c><c>   3</c></rc>
    <rc><c>Cl</c><c>   4</c></rc>
    <rc><c>Cl</c><c>   4</c></rc>
    <rc><c>Cl</c><c>   4</c></rc>
    <rc><c>Cl</c><c>   4</c></rc>
   </set>
  </array>
  <array name="atomtypes" >
   <dimension dim="1">type</dimension>
   <field type="int">atomspertype</field>
   <field type="string">element</field>
   <field>mass</field>
   <field>valence</field>
   <field type="string">pseudopotential</field>
   <set>
    <rc><c>  24</c><c>Li</c><c>      7.01000000</c><c>      3.00000000</c><c>  PAW_PBE Li_sv_GW 25Mar2010            </c></rc>
    <rc><c>   4</c><c>P </c><c>     30.97400000</c><c>      5.00000000</c><c>  PAW_PBE P_GW 19Mar2012                </c></rc>
    <rc><c>  20</c><c>S </c><c>     32.06600000</c><c>      6.00000000</c><c>  PAW_PBE S_GW 19Mar2012                </c></rc>
    <rc><c>   4</c><c>Cl</c><c>     35.45300000</c><c>      7.00000000</c><c>  PAW_PBE Cl_GW 19Mar2012               </c></rc>
   </set>
  </array>
 </atominfo>
 <structure name="initialpos" >
  <crystal>
   <varray name="basis" >
    <v>       9.68054707       0.00000000       0.00000000 </v>
    <v>       0.00000000       9.68054707       0.00000000 </v>
    <v>       0.00000000       0.00000000       9.68054707 </v>
   </varray>
   <i name="volume">    907.19302574 </i>
   <varray name="rec_basis" >
    <v>       0.10329995       0.00000000       0.00000000 </v>
    <v>       0.00000000       0.10329995       0.00000000 </v>
    <v>       0.00000000       0.00000000       0.10329995 </v>
   </varray>
  </crystal>
  <varray name="positions" >
   <v>       0.97694075       0.30363371       0.28756049 </v>
   <v>       0.97166656       0.80994260       0.80396150 </v>
   <v>       0.02918505       0.32194673       0.68434687 </v>
   <v>       0.01604138       0.80050787       0.18631942 </v>
   <v>       0.18279108       0.21483116       0.97361625 </v>
   <v>       0.28216495       0.69597720       0.01658685 </v>
   <v>       0.82636137       0.14909773       0.03793563 </v>
   <v>       0.72328461       0.74159454       0.97862535 </v>
   <v>       0.22362079       0.98158504       0.18049330 </v>
   <v>       0.18885684       0.01892668       0.78648442 </v>
   <v>       0.69246292       0.95562092       0.67134384 </v>
   <v>       0.69968885       0.01548612       0.33117365 </v>
   <v>       0.32769199       0.83447951       0.46313731 </v>
   <v>       0.28181194       0.20616381       0.51245086 </v>
   <v>       0.83309406       0.66012197       0.52791739 </v>
   <v>       0.78512304       0.30134693       0.47987974 </v>
   <v>       0.31793815       0.46507169       0.80255285 </v>
   <v>       0.17647819       0.54681358       0.34469613 </v>
   <v>       0.67946435       0.45400133       0.17807489 </v>
   <v>       0.70980152       0.50315381       0.81044171 </v>
   <v>       0.47500028       0.18024212       0.71193910 </v>
   <v>       0.47520407       0.69634078       0.20978294 </v>
   <v>       0.51701209       0.20662753       0.29758487 </v>
   <v>       0.51768297       0.71652673       0.77305122 </v>
   <v>       0.49589540       0.49903925       0.49791814 </v>
   <v>       0.50305249       0.00444979       0.99718567 </v>
   <v>       0.00199460       0.49438100       0.99836164 </v>
   <v>       0.00041574       0.99108968       0.49286630 </v>
   <v>       0.12491283       0.86648379       0.61068437 </v>
   <v>       0.11698197       0.11203186       0.36256402 </v>
   <v>       0.87584877       0.86128277       0.38085113 </v>
   <v>       0.88261619       0.11311158       0.62025021 </v>
   <v>       0.87274285       0.61202641       0.11952250 </v>
   <v>       0.88720883       0.35175568       0.89118211 </v>
   <v>       0.11311442       0.61131163       0.86035239 </v>
   <v>       0.13914096       0.39775789       0.12692756 </v>
   <v>       0.64175746       0.10348204       0.87210190 </v>
   <v>       0.61386121       0.88699029       0.13544903 </v>
   <v>       0.38511815       0.14519514       0.10215259 </v>
   <v>       0.37616420       0.88397539       0.87624356 </v>
   <v>       0.63063374       0.61052029       0.37876202 </v>
   <v>       0.60592707       0.37332878       0.62967879 </v>
   <v>       0.36575461       0.62416674       0.60866625 </v>
   <v>       0.37261298       0.38602477       0.36783423 </v>
   <v>       0.75188626       0.73357053       0.74494559 </v>
   <v>       0.74923484       0.23686975       0.25169206 </v>
   <v>       0.24722389       0.75536968       0.24557235 </v>
   <v>       0.24778835       0.24429687       0.74458756 </v>
   <v>       0.02917210       0.99118282       0.99548297 </v>
   <v>       0.98243118       0.46339369       0.48597622 </v>
   <v>       0.49779659       0.02695900       0.49725004 </v>
   <v>       0.50664096       0.54772896       0.98394557 </v>
  </varray>
 </structure>
 <calculation>
  <scstep>
   <time name="dav">    2.26    2.44</time>
   <time name="total">    2.75    3.00</time>
   <energy>
    <i name="alphaZ">    299.22794375 </i>
    <i name="ewald">  -8773.23876973 </i>
    <i name="hartreedc">  -2137.53471841 </i>
    <i name="XCdc">    534.01826177 </i>
    <i name="pawpsdc">   8141.38806575 </i>
    <i name="pawaedc">  -8271.61346273 </i>
    <i name="eentropy">     -0.00562751 </i>
    <i name="bandstr">   -904.88078414 </i>
    <i name="atom">  12703.13999606 </i>
    <i name="e_fr_energy">   1590.50090480 </i>
    <i name="e_wo_entrp">   1590.50653231 </i>
    <i name="e_0_energy">   1590.50371856 </i>
   </energy>
  </scstep>
  <scstep>
   <time name="dav">    2.61    2.64</time>
   <time name="total">    2.61    2.64</time>
   <energy>
    <i name="e_fr_energy">    -56.18381229 </i>
    <i name="e_wo_entrp">    -56.18381229 </i>
    <i name="e_0_energy">    -56.18381229 </i>
   </energy>
  </scstep>
  <scstep>
   <time name="dav">    2.62    2.64</time>
   <time name="total">    2.62    2.64</time>
   <energy>
    <i name="e_fr_energy">   -228.58340691 </i>
    <i name="e_wo_entrp">   -228.58340691 </i>
    <i name="e_0_energy">   -228.58340691 </i>
   </energy>
  </scstep>
  <scstep>
   <time name="dav">    3.26    3.29</time>
   <time name="total">    3.27    3.29</time>
   <energy>
    <i name="e_fr_energy">   -242.25737241 </i>
    <i name="e_wo_entrp">   -242.25737241 </i>
    <i name="e_0_energy">   -242.25737241 </i>
   </energy>
  </scstep>
  <scstep>
   <time name="dav">    2.95    2.97</time>
   <time name="total">    2.95    2.97</time>
   <energy>
    <i name="e_fr_energy">   -242.46558976 </i>
    <i name="e_wo_entrp">   -242.46558976 </i>
    <i name="e_0_energy">   -242.46558976 </i>
   </energy>
  </scstep>
  <scstep>
   <time name="dav">    3.06    3.09</time>
   <time name="total">    3.06    3.09</time>
   <energy>
    <i name="e_fr_energy">   -242.47755271 </i>
    <i name="e_wo_entrp">   -242.47755271 </i>
    <i name="e_0_energy">   -242.47755271 </i>
   </energy>
  </scstep>
  <scstep>
   <time name="dav">    3.04    3.06</time>
   <time name="total">    3.04    3.06</time>
   <energy>
    <i name="e_fr_energy">   -242.47792984 </i>
    <i name="e_wo_entrp">   -242.47792984 </i>
    <i name="e_0_energy">   -242.47792984 </i>
   </energy>
  </scstep>
  <scstep>
   <time name="dav">    3.00    3.03</time>
   <time name="total">    3.00    3.03</time>
   <energy>
    <i name="e_fr_energy">   -242.47795175 </i>
    <i name="e_wo_entrp">   -242.47795175 </i>
    <i name="e_0_energy">   -242.47795175 </i>
   </energy>
  </scstep>
  <scstep>
   <time name="dav">    2.99    3.01</time>
   <time name="total">    2.99    3.01</time>
   <energy>
    <i name="e_fr_energy">   -242.47795317 </i>
    <i name="e_wo_entrp">   -242.47795317 </i>
    <i name="e_0_energy">   -242.47795317 </i>
   </energy>
  </scstep>
  <scstep>
   <time name="dav">    1.96    1.98</time>
   <time name="total">    2.03    2.06</time>
   <energy>
    <i name="e_fr_energy">   -242.47795322 </i>
    <i name="e_wo_entrp">   -242.47795322 </i>
    <i name="e_0_energy">   -242.47795322 </i>
   </energy>
  </scstep>
  <scstep>
   <time name="diag">    0.37    0.37</time>
   <time name="diis">    1.16    1.17</time>
   <time name="orth">    0.07    0.07</time>
   <time name="total">    2.11    2.16</time>
   <energy>
    <i name="e_fr_energy">   -236.04369372 </i>
    <i name="e_wo_entrp">   -236.04369372 </i>
    <i name="e_0_energy">   -236.04369372 </i>
   </energy>
  </scstep>
  <scstep>
   <time name="diag">    0.36    0.36</time>
   <time name="diis">    1.23    1.24</time>
   <time name="orth">    0.07    0.07</time>
   <time name="total">    2.18    2.20</time>
   <energy>
    <i name="e_fr_energy">   -256.04692969 </i>
    <i name="e_wo_entrp">   -256.04692969 </i>
    <i name="e_0_energy">   -256.04692969 </i>
   </energy>
  </scstep>
  <scstep>
   <time name="diag">    0.36    0.36</time>
   <time name="diis">    1.20    1.21</time>
   <time name="orth">    0.07    0.07</time>
   <time name="total">    2.15    2.17</time>
   <energy>
    <i name="e_fr_energy">   -258.51720526 </i>
    <i name="e_wo_entrp">   -258.51720526 </i>
    <i name="e_0_energy">   -258.51720526 </i>
   </energy>
  </scstep>
  <scstep>
   <time name="diag">    0.36    0.36</time>
   <time name="diis">    1.59    1.60</time>
   <time name="orth">    0.06    0.07</time>
   <time name="total">    2.54    2.56</time>
   <energy>
    <i name="e_fr_energy">   -258.72879879 </i>
    <i name="e_wo_entrp">   -258.72879879 </i>
    <i name="e_0_energy">   -258.72879879 </i>
   </energy>
  </scstep>
  <scstep>
   <time name="diag">    0.36    0.36</time>
   <time name="diis">    1.28    1.29</time>
   <time name="orth">    0.06    0.07</time>
   <time name="total">    2.23    2.24</time>
   <energy>
    <i name="e_fr_energy">   -258.69651662 </i>
    <i name="e_wo_entrp">   -258.69651662 </i>
    <i name="e_0_energy">   -258.69651662 </i>
   </energy>
  </scstep>
  <scstep>
   <time name="diag">    0.35    0.36</time>
   <time name="diis">    1.28    1.29</time>
   <time name="orth">    0.06    0.07</time>
   <time name="total">    2.23    2.24</time>
   <energy>
    <i name="e_fr_energy">   -258.71558019 </i>
    <i name="e_wo_entrp">   -258.71558019 </i>
    <i name="e_0_energy">   -258.71558019 </i>
   </energy>
  </scstep>
  <scstep>
   <time name="diag">    0.36    0.36</time>
   <time name="diis">    1.43    1.44</time>
   <time name="orth">    0.06    0.07</time>
   <time name="total">    2.38    2.40</time>
   <energy>
    <i name="e_fr_energy">   -258.72198875 </i>
    <i name="e_wo_entrp">   -258.72198875 </i>
    <i name="e_0_energy">   -258.72198875 </i>
   </energy>
  </scstep>
  <scstep>
   <time name="diag">    0.35    0.36</time>
   <time name="diis">    1.43    1.44</time>
   <time name="orth">    0.07    0.07</time>
   <time name="total">    2.38    2.40</time>
   <energy>
    <i name="e_fr_energy">   -258.72322640 </i>
    <i name="e_wo_entrp">   -258.72322640 </i>
    <i name="e_0_energy">   -258.72322640 </i>
   </energy>
  </scstep>
  <scstep>
   <time name="diag">    0.35    0.36</time>
   <time name="diis">    1.59    1.60</time>
   <time name="orth">    0.07    0.07</time>
   <time name="total">    2.54    2.56</time>
   <energy>
    <i name="e_fr_energy">   -258.72376147 </i>
    <i name="e_wo_entrp">   -258.72376147 </i>
    <i name="e_0_energy">   -258.72376147 </i>
   </energy>
  </scstep>
  <scstep>
   <time name="diag">    0.35    0.36</time>
   <time name="diis">    1.58    1.60</time>
   <time name="orth">    0.07    0.07</time>
   <time name="total">    2.53    2.55</time>
   <energy>
    <i name="e_fr_energy">   -258.72387109 </i>
    <i name="e_wo_entrp">   -258.72387109 </i>
    <i name="e_0_energy">   -258.72387109 </i>
   </energy>
  </scstep>
  <scstep>
   <time name="diag">    0.35    0.36</time>
   <time name="diis">    1.47    1.48</time>
   <time name="orth">    0.07    0.07</time>
   <time name="total">    2.42    2.43</time>
   <energy>
    <i name="e_fr_energy">   -258.72389041 </i>
    <i name="e_wo_entrp">   -258.72389041 </i>
    <i name="e_0_energy">   -258.72389041 </i>
   </energy>
  </scstep>
  <scstep>
   <time name="diag">    0.35    0.36</time>
   <time name="diis">    1.58    1.59</time>
   <time name="orth">    0.07    0.07</time>
   <time name="total">    2.52    2.54</time>
   <energy>
    <i name="e_fr_energy">   -258.72389696 </i>
    <i name="e_wo_entrp">   -258.72389696 </i>
    <i name="e_0_energy">   -258.72389696 </i>
   </energy>
  </scstep>
  <scstep>
   <time name="diag">    0.35    0.36</time>
   <time name="diis">    1.28    1.29</time>
   <time name="orth">    0.07    0.07</time>
   <time name="total">    2.23    2.25</time>
   <energy>
    <i name="e_fr_energy">   -258.72389672 </i>
    <i name="e_wo_entrp">   -258.72389672 </i>
    <i name="e_0_energy">   -258.72389672 </i>
   </energy>
  </scstep>
  <scstep>
   <time name="diag">    0.35    0.36</time>
   <time name="diis">    0.96    0.96</time>
   <time name="orth">    0.07    0.07</time>
   <time name="total">    1.84    1.85</time>
   <energy>
    <i name="alphaZ">    299.22794375 </i>
    <i name="ewald">  -8773.23876973 </i>
    <i name="hartreedc">  -2241.31123819 </i>
    <i name="XCdc">    537.78583304 </i>
    <i name="pawpsdc">   9824.85380021 </i>
    <i name="pawaedc">  -9968.88897729 </i>
    <i name="eentropy">     -0.00000000 </i>
    <i name="bandstr">  -2640.29248417 </i>
    <i name="atom">  12703.13999606 </i>
    <i name="e_fr_energy">   -258.72389631 </i>
    <i name="e_wo_entrp">   -258.72389631 </i>
    <i name="e_0_energy">   -258.72389631 </i>
   </energy>
  </scstep>
  <structure>
   <crystal>
    <varray name="basis" >
     <v>       9.68054707       0.00000000       0.00000000 </v>
     <v>       0.00000000       9.68054707       0.00000000 </v>
     <v>       0.00000000       0.00000000       9.68054707 </v>
    </varray>
    <i name="volume">    907.19302574 </i>
    <varray name="rec_basis" >
     <v>       0.10329995       0.00000000       0.00000000 </v>
     <v>       0.00000000       0.10329995       0.00000000 </v>
     <v>       0.00000000       0.00000000       0.10329995 </v>
    </varray>
   </crystal>
   <varray name="positions" >
    <v>       0.97694075       0.30363371       0.28756049 </v>
    <v>       0.97166656       0.80994260       0.80396150 </v>
    <v>       0.02918505       0.32194673       0.68434687 </v>
    <v>       0.01604138       0.80050787       0.18631942 </v>
    <v>       0.18279108       0.21483116       0.97361625 </v>
    <v>       0.28216495       0.69597720       0.01658685 </v>
    <v>       0.82636137       0.14909773       0.03793563 </v>
    <v>       0.72328461       0.74159454       0.97862535 </v>
    <v>       0.22362079       0.98158504       0.18049330 </v>
    <v>       0.18885684       0.01892668       0.78648442 </v>
    <v>       0.69246292       0.95562092       0.67134384 </v>
    <v>       0.69968885       0.01548612       0.33117365 </v>
    <v>       0.32769199       0.83447951       0.46313731 </v>
    <v>       0.28181194       0.20616381       0.51245086 </v>
    <v>       0.83309406       0.66012197       0.52791739 </v>
    <v>       0.78512304       0.30134693       0.47987974 </v>
    <v>       0.31793815       0.46507169       0.80255285 </v>
    <v>       0.17647819       0.54681358       0.34469613 </v>
    <v>       0.67946435       0.45400133       0.17807489 </v>
    <v>       0.70980152       0.50315381       0.81044171 </v>
    <v>       0.47500028       0.18024212       0.71193910 </v>
    <v>       0.47520407       0.69634078       0.20978294 </v>
    <v>       0.51701209       0.20662753       0.29758487 </v>
    <v>       0.51768297       0.71652673       0.77305122 </v>
    <v>       0.49589540       0.49903925       0.49791814 </v>
    <v>       0.50305249       0.00444979       0.99718567 </v>
    <v>       0.00199460       0.49438100       0.99836164 </v>
    <v>       0.00041574       0.99108968       0.49286630 </v>
    <v>       0.12491283       0.86648379       0.61068437 </v>
    <v>       0.11698197       0.11203186       0.36256402 </v>
    <v>       0.87584877       0.86128277       0.38085113 </v>
    <v>       0.88261619       0.11311158       0.62025021 </v>
    <v>       0.87274285       0.61202641       0.11952250 </v>
    <v>       0.88720883       0.35175568       0.89118211 </v>
    <v>       0.11311442       0.61131163       0.86035239 </v>
    <v>       0.13914096       0.39775789       0.12692756 </v>
    <v>       0.64175746       0.10348204       0.87210190 </v>
    <v>       0.61386121       0.88699029       0.13544903 </v>
    <v>       0.38511815       0.14519514       0.10215259 </v>
    <v>       0.37616420       0.88397539       0.87624356 </v>
    <v>       0.63063374       0.61052029       0.37876202 </v>
    <v>       0.60592707       0.37332878       0.62967879 </v>
    <v>       0.36575461       0.62416674       0.60866625 </v>
    <v>       0.37261298       0.38602477       0.36783423 </v>
    <v>       0.75188626       0.73357053       0.74494559 </v>
    <v>       0.74923484       0.23686975       0.25169206 </v>
    <v>       0.24722389       0.75536968       0.24557235 </v>
    <v>       0.24778835       0.24429687       0.74458756 </v>
    <v>       0.02917210       0.99118282       0.99548297 </v>
    <v>       0.98243118       0.46339369       0.48597622 </v>
    <v>       0.49779659       0.02695900       0.49725004 </v>
    <v>       0.50664096       0.54772896       0.98394557 </v>
   </varray>
  </structure>
  <varray name="forces" >
   <v>      -0.00005821       0.00097523      -0.00032476 </v>
   <v>       0.00030963       0.00026458      -0.00066575 </v>
   <v>       0.00008156       0.00025058       0.00014515 </v>
   <v>       0.00010821      -0.00019534      -0.00015133 </v>
   <v>      -0.00211577      -0.00026904      -0.00014974 </v>
   <v>      -0.00025541      -0.00108352       0.00038853 </v>
   <v>      -0.00045406      -0.00060794       0.00044416 </v>
   <v>       0.00119111       0.00182206       0.00016530 </v>
   <v>       0.00034509       0.00008841      -0.00030513 </v>
   <v>       0.00047922      -0.00031530      -0.00022150 </v>
   <v>       0.00010180      -0.00032465      -0.00072552 </v>
   <v>       0.00010201       0.00038732       0.00048422 </v>
   <v>       0.00069519      -0.00014686       0.00008805 </v>
   <v>      -0.00038283       0.00064334      -0.00022012 </v>
   <v>       0.00046626       0.00024472       0.00005248 </v>
   <v>       0.00014496       0.00029480       0.00012084 </v>
   <v>       0.00040435      -0.00050189       0.00078320 </v>
   <v>       0.00059235       0.00035142       0.00109495 </v>
   <v>      -0.00078050       0.00010705      -0.00001671 </v>
   <v>       0.00001796      -0.00009816       0.00100954 </v>
   <v>      -0.00003387      -0.00027155      -0.00044785 </v>
   <v>       0.00011594      -0.00004534      -0.00004853 </v>
   <v>      -0.00033689      -0.00052282      -0.00061412 </v>
   <v>       0.00006991      -0.00058588       0.00031132 </v>
   <v>      -0.00120202      -0.00025846      -0.00021065 </v>
   <v>      -0.00029514       0.00013455       0.00223992 </v>
   <v>       0.00080307      -0.00006588       0.00127343 </v>
   <v>       0.00048152       0.00036806      -0.00022136 </v>
   <v>       0.00063631       0.00000628      -0.00045160 </v>
   <v>      -0.00004822       0.00055469      -0.00071354 </v>
   <v>      -0.00015440      -0.00010291      -0.00062405 </v>
   <v>      -0.00015261       0.00045665       0.00013796 </v>
   <v>      -0.00049546       0.00008541       0.00008124 </v>
   <v>      -0.00035066      -0.00141307      -0.00018411 </v>
   <v>       0.00009422       0.00034119      -0.00108802 </v>
   <v>       0.00028629       0.00080970      -0.00029980 </v>
   <v>       0.00103361       0.00018439      -0.00138990 </v>
   <v>      -0.00069373       0.00084698      -0.00000690 </v>
   <v>      -0.00043774       0.00035398      -0.00136249 </v>
   <v>      -0.00118588      -0.00147110      -0.00070063 </v>
   <v>       0.00089363       0.00088257      -0.00011118 </v>
   <v>       0.00057432      -0.00037852       0.00097189 </v>
   <v>      -0.00031174      -0.00025959       0.00026123 </v>
   <v>       0.00053487       0.00008493      -0.00016240 </v>
   <v>       0.00015555      -0.00026213      -0.00005545 </v>
   <v>      -0.00008255       0.00037201       0.00005377 </v>
   <v>       0.00001037       0.00008753       0.00024320 </v>
   <v>      -0.00001789      -0.00020985       0.00003643 </v>
   <v>      -0.00108768      -0.00070510      -0.00028573 </v>
   <v>       0.00070447       0.00098302       0.00043756 </v>
   <v>       0.00014907      -0.00058422       0.00005226 </v>
   <v>      -0.00064958      -0.00130231       0.00088223 </v>
  </varray>
  <varray name="stress" >
   <v>       1.19468470      -1.41567392       2.72292679 </v>
   <v>      -1.41567412       2.16784506       2.52246478 </v>
   <v>       2.72292647       2.52246541      -3.35681898 </v>
  </varray>
  <energy>
   <i name="e_fr_energy">   -272.20890928 </i>
   <i name="e_wo_entrp">   -272.20890928 </i>
   <i name="e_0_energy">   -272.20890928 </i>
  </energy>
  <time name="totalsc">   63.68   64.52</time>
 </calculation>
 <calculation>
  <scstep>
   <time name="dav">    2.28    2.30</time>
   <time name="total">    2.81    2.83</time>
   <energy>
    <i name="alphaZ">    299.22794375 </i>
    <i name="ewald">  -8773.25863136 </i>
    <i name="hartreedc">  -2241.29943423 </i>
    <i name="XCdc">    537.78555686 </i>
    <i name="pawpsdc">   9824.84878400 </i>
    <i name="pawaedc">  -9968.88386388 </i>
    <i name="eentropy">     -0.00000000 </i>
    <i name="bandstr">  -2640.28424784 </i>
    <i name="atom">  12703.13999606 </i>
    <i name="e_fr_energy">   -258.72389664 </i>
    <i name="e_wo_entrp">   -258.72389664 </i>
    <i name="e_0_energy">   -258.72389664 </i>
   </energy>
  </scstep>
  <scstep>
   <time name="diag">    0.36    0.37</time>
   <time name="diis">    0.84    0.85</time>
   <time name="orth">    0.07    0.07</time>
   <time name="total">    1.73    1.74</time>
   <energy>
    <i name="alphaZ">    299.22794375 </i>
    <i name="ewald">  -8773.25863136 </i>
    <i name="hartreedc">  -2241.30033413 </i>
    <i name="XCdc">    537.78533309 </i>
    <i name="pawpsdc">   9824.81284532 </i>
    <i name="pawaedc">  -9968.84742538 </i>
    <i name="eentropy">     -0.00000000 </i>
    <i name="bandstr">  -2640.28362418 </i>
    <i name="atom">  12703.13999606 </i>
    <i name="e_fr_energy">   -258.72389682 </i>
    <i name="e_wo_entrp">   -258.72389682 </i>
    <i name="e_0_energy">   -258.72389682 </i>
   </energy>
  </scstep>
  <structure>
   <crystal>
    <varray name="basis" >
     <v>       9.68054707       0.00000000       0.00000000 </v>
     <v>       0.00000000       9.68054707       0.00000000 </v>
     <v>       0.00000000       0.00000000       9.68054707 </v>
    </varray>
    <i name="volume">    907.19302574 </i>
    <varray name="rec_basis" >
     <v>       0.10329995       0.00000000       0.00000000 </v>
     <v>       0.00000000       0.10329995       0.00000000 </v>
     <v>       0.00000000       0.00000000       0.10329995 </v>
    </varray>
   </crystal>
   <varray name="positions" >
    <v>       0.97694064       0.30363565       0.28755984 </v>
    <v>       0.97166717       0.80994312       0.80396017 </v>
    <v>       0.02918521       0.32194723       0.68434716 </v>
    <v>       0.01604160       0.80050748       0.18631912 </v>
    <v>       0.18278686       0.21483062       0.97361596 </v>
    <v>       0.28216444       0.69597505       0.01658763 </v>
    <v>       0.82636046       0.14909652       0.03793651 </v>
    <v>       0.72328699       0.74159817       0.97862568 </v>
    <v>       0.22362147       0.98158522       0.18049269 </v>
    <v>       0.18885779       0.01892605       0.78648397 </v>
    <v>       0.69246312       0.95562028       0.67134239 </v>
    <v>       0.69968906       0.01548690       0.33117462 </v>
    <v>       0.32769338       0.83447922       0.46313748 </v>
    <v>       0.28181118       0.20616509       0.51245042 </v>
    <v>       0.83309499       0.66012245       0.52791749 </v>
    <v>       0.78512333       0.30134752       0.47987998 </v>
    <v>       0.31793895       0.46507069       0.80255441 </v>
    <v>       0.17647937       0.54681428       0.34469831 </v>
    <v>       0.67946280       0.45400154       0.17807486 </v>
    <v>       0.70980155       0.50315361       0.81044372 </v>
    <v>       0.47500022       0.18024158       0.71193821 </v>
    <v>       0.47520430       0.69634069       0.20978284 </v>
    <v>       0.51701141       0.20662649       0.29758365 </v>
    <v>       0.51768311       0.71652556       0.77305184 </v>
    <v>       0.49589300       0.49903874       0.49791772 </v>
    <v>       0.50305190       0.00445006       0.99719014 </v>
    <v>       0.00199620       0.49438087       0.99836418 </v>
    <v>       0.00041670       0.99109041       0.49286586 </v>
    <v>       0.12491410       0.86648380       0.61068347 </v>
    <v>       0.11698187       0.11203296       0.36256259 </v>
    <v>       0.87584847       0.86128256       0.38084989 </v>
    <v>       0.88261588       0.11311249       0.62025049 </v>
    <v>       0.87274186       0.61202658       0.11952266 </v>
    <v>       0.88720813       0.35175286       0.89118174 </v>
    <v>       0.11311461       0.61131231       0.86035022 </v>
    <v>       0.13914153       0.39775950       0.12692697 </v>
    <v>       0.64175952       0.10348241       0.87209913 </v>
    <v>       0.61385983       0.88699198       0.13544901 </v>
    <v>       0.38511728       0.14519584       0.10214987 </v>
    <v>       0.37616183       0.88397246       0.87624216 </v>
    <v>       0.63063552       0.61052205       0.37876179 </v>
    <v>       0.60592821       0.37332803       0.62968073 </v>
    <v>       0.36575399       0.62416622       0.60866678 </v>
    <v>       0.37261404       0.38602494       0.36783391 </v>
    <v>       0.75188657       0.73357001       0.74494548 </v>
    <v>       0.74923468       0.23687049       0.25169217 </v>
    <v>       0.24722391       0.75536985       0.24557284 </v>
    <v>       0.24778831       0.24429645       0.74458763 </v>
    <v>       0.02916993       0.99118142       0.99548240 </v>
    <v>       0.98243258       0.46339565       0.48597709 </v>
    <v>       0.49779688       0.02695783       0.49725014 </v>
    <v>       0.50663967       0.54772636       0.98394733 </v>
   </varray>
  </structure>
  <varray name="forces" >
   <v>      -0.00008747       0.00059719      -0.00014994 </v>
   <v>       0.00014677       0.00014737      -0.00039451 </v>
   <v>       0.00002585       0.00017627       0.00011173 </v>
   <v>       0.00006712      -0.00013035      -0.00011430 </v>
   <v>      -0.00136835      -0.00021676      -0.00020447 </v>
   <v>      -0.00015425      -0.00062992       0.00014344 </v>
   <v>      -0.00031188      -0.00036904       0.00021255 </v>
   <v>       0.00070133       0.00105974       0.00003925 </v>
   <v>       0.00010185      -0.00002208      -0.00015288 </v>
   <v>       0.00029305      -0.00022871      -0.00010382 </v>
   <v>       0.00002135      -0.00022274      -0.00041044 </v>
   <v>       0.00007359       0.00022209       0.00033770 </v>
   <v>       0.00044967      -0.00010560       0.00004596 </v>
   <v>      -0.00023279       0.00032216      -0.00008548 </v>
   <v>       0.00025770       0.00012694       0.00002483 </v>
   <v>       0.00004347       0.00014378       0.00010111 </v>
   <v>       0.00025781      -0.00033582       0.00049792 </v>
   <v>       0.00031295       0.00024775       0.00070671 </v>
   <v>      -0.00050922       0.00003872      -0.00002763 </v>
   <v>       0.00001876      -0.00012765       0.00060906 </v>
   <v>       0.00003194      -0.00021177      -0.00023456 </v>
   <v>       0.00008396      -0.00009520      -0.00001264 </v>
   <v>      -0.00016766      -0.00033940      -0.00034854 </v>
   <v>      -0.00000465      -0.00031154       0.00018852 </v>
   <v>      -0.00014722      -0.00012508       0.00004803 </v>
   <v>      -0.00031387      -0.00004905       0.00027514 </v>
   <v>       0.00017885      -0.00000712       0.00022039 </v>
   <v>       0.00019999       0.00033091      -0.00021748 </v>
   <v>       0.00038654       0.00010633      -0.00017175 </v>
   <v>       0.00005758       0.00047741      -0.00049566 </v>
   <v>      -0.00007070       0.00008062      -0.00032283 </v>
   <v>      -0.00004879       0.00022566      -0.00003280 </v>
   <v>      -0.00035459       0.00005828       0.00004938 </v>
   <v>       0.00003490      -0.00047565       0.00013568 </v>
   <v>      -0.00003048       0.00006247      -0.00038767 </v>
   <v>       0.00047177       0.00019361       0.00012041 </v>
   <v>       0.00010328      -0.00028010      -0.00048537 </v>
   <v>      -0.00018099       0.00007881       0.00028843 </v>
   <v>      -0.00056067       0.00047156      -0.00049767 </v>
   <v>      -0.00030354      -0.00059841       0.00003967 </v>
   <v>       0.00023681       0.00027595       0.00010248 </v>
   <v>       0.00016494      -0.00009748       0.00033303 </v>
   <v>      -0.00018809      -0.00010665       0.00034222 </v>
   <v>       0.00013846      -0.00023972      -0.00030661 </v>
   <v>      -0.00009341      -0.00015503       0.00018151 </v>
   <v>      -0.00005569       0.00022537       0.00024510 </v>
   <v>       0.00007978       0.00014493      -0.00008187 </v>
   <v>      -0.00000836      -0.00023681      -0.00001844 </v>
   <v>       0.00031067      -0.00017922      -0.00013111 </v>
   <v>      -0.00014707      -0.00047307      -0.00007063 </v>
   <v>       0.00014059       0.00027588       0.00002593 </v>
   <v>      -0.00005160       0.00028017       0.00003291 </v>
  </varray>
  <varray name="stress" >
   <v>       1.18154727      -1.41977562       2.72394752 </v>
   <v>      -1.41977579       2.15527423       2.52263161 </v>
   <v>       2.72394726       2.52263228      -3.36991884 </v>
  </varray>
  <energy>
   <i name="e_fr_energy">   -272.20891064 </i>
   <i name="e_wo_entrp">   -272.20891064 </i>
   <i name="e_0_energy">   -272.20891064 </i>
  </energy>
  <time name="totalsc">    7.61    7.69</time>
 </calculation>
 <calculation>
  <scstep>
   <time name="dav">    2.19    2.20</time>
   <time name="total">    2.71    2.74</time>
   <energy>
    <i name="alphaZ">    299.22794375 </i>
    <i name="ewald">  -8773.26964916 </i>
    <i name="hartreedc">  -2241.29183395 </i>
    <i name="XCdc">    537.78496906 </i>
    <i name="pawpsdc">   9824.78901119 </i>
    <i name="pawaedc">  -9968.82311393 </i>
    <i name="eentropy">     -0.00000000 </i>
    <i name="bandstr">  -2640.28121976 </i>
    <i name="atom">  12703.13999606 </i>
    <i name="e_fr_energy">   -258.72389673 </i>
    <i name="e_wo_entrp">   -258.72389673 </i>
    <i name="e_0_energy">   -258.72389673 </i>
   </energy>
  </scstep>
  <scstep>
   <time name="diag">    0.37    0.37</time>
   <time name="diis">    0.81    0.82</time>
   <time name="orth">    0.07    0.07</time>
   <time name="total">    1.70    1.72</time>
   <energy>
    <i name="alphaZ">    299.22794375 </i>
    <i name="ewald">  -8773.26964916 </i>
    <i name="hartreedc">  -2241.29105023 </i>
    <i name="XCdc">    537.78483841 </i>
    <i name="pawpsdc">   9824.76758733 </i>
    <i name="pawaedc">  -9968.80147096 </i>
    <i name="eentropy">     -0.00000000 </i>
    <i name="bandstr">  -2640.28209195 </i>
    <i name="atom">  12703.13999606 </i>
    <i name="e_fr_energy">   -258.72389674 </i>
    <i name="e_wo_entrp">   -258.72389674 </i>
    <i name="e_0_energy">   -258.72389674 </i>
   </energy>
  </scstep>
  <structure>
   <crystal>
    <varray name="basis" >
     <v>       9.68054707       0.00000000       0.00000000 </v>
     <v>       0.00000000       9.68054707       0.00000000 </v>
     <v>       0.00000000       0.00000000       9.68054707 </v>
    </varray>
    <i name="volume">    907.19302574 </i>
    <varray name="rec_basis" >
     <v>       0.10329995       0.00000000       0.00000000 </v>
     <v>       0.00000000       0.10329995       0.00000000 </v>
     <v>       0.00000000       0.00000000       0.10329995 </v>
    </varray>
   </crystal>
   <varray name="positions" >
    <v>       0.97694057       0.30363673       0.28755948 </v>
    <v>       0.97166752       0.80994342       0.80395943 </v>
    <v>       0.02918530       0.32194751       0.68434732 </v>
    <v>       0.01604172       0.80050726       0.18631895 </v>
    <v>       0.18278452       0.21483032       0.97361579 </v>
    <v>       0.28216416       0.69597385       0.01658806 </v>
    <v>       0.82635996       0.14909585       0.03793700 </v>
    <v>       0.72328830       0.74160019       0.97862586 </v>
    <v>       0.22362186       0.98158531       0.18049235 </v>
    <v>       0.18885832       0.01892570       0.78648373 </v>
    <v>       0.69246324       0.95561992       0.67134159 </v>
    <v>       0.69968917       0.01548732       0.33117515 </v>
    <v>       0.32769415       0.83447905       0.46313758 </v>
    <v>       0.28181075       0.20616581       0.51245018 </v>
    <v>       0.83309551       0.66012272       0.52791755 </v>
    <v>       0.78512349       0.30134785       0.47988011 </v>
    <v>       0.31793940       0.46507014       0.80255528 </v>
    <v>       0.17648002       0.54681467       0.34469952 </v>
    <v>       0.67946194       0.45400166       0.17807484 </v>
    <v>       0.70980157       0.50315350       0.81044484 </v>
    <v>       0.47500018       0.18024128       0.71193772 </v>
    <v>       0.47520443       0.69634064       0.20978279 </v>
    <v>       0.51701104       0.20662591       0.29758297 </v>
    <v>       0.51768319       0.71652492       0.77305218 </v>
    <v>       0.49589168       0.49903845       0.49791749 </v>
    <v>       0.50305158       0.00445021       0.99719261 </v>
    <v>       0.00199708       0.49438080       0.99836559 </v>
    <v>       0.00041723       0.99109082       0.49286562 </v>
    <v>       0.12491481       0.86648381       0.61068297 </v>
    <v>       0.11698182       0.11203358       0.36256180 </v>
    <v>       0.87584829       0.86128245       0.38084920 </v>
    <v>       0.88261571       0.11311299       0.62025064 </v>
    <v>       0.87274131       0.61202667       0.11952275 </v>
    <v>       0.88720774       0.35175130       0.89118153 </v>
    <v>       0.11311471       0.61131269       0.86034902 </v>
    <v>       0.13914185       0.39776040       0.12692664 </v>
    <v>       0.64176066       0.10348261       0.87209759 </v>
    <v>       0.61385906       0.88699292       0.13544900 </v>
    <v>       0.38511679       0.14519623       0.10214837 </v>
    <v>       0.37616052       0.88397083       0.87624139 </v>
    <v>       0.63063651       0.61052302       0.37876167 </v>
    <v>       0.60592885       0.37332761       0.62968181 </v>
    <v>       0.36575365       0.62416594       0.60866706 </v>
    <v>       0.37261463       0.38602503       0.36783373 </v>
    <v>       0.75188675       0.73356972       0.74494542 </v>
    <v>       0.74923459       0.23687090       0.25169223 </v>
    <v>       0.24722392       0.75536995       0.24557311 </v>
    <v>       0.24778829       0.24429622       0.74458768 </v>
    <v>       0.02916873       0.99118064       0.99548209 </v>
    <v>       0.98243336       0.46339673       0.48597757 </v>
    <v>       0.49779705       0.02695719       0.49725020 </v>
    <v>       0.50663895       0.54772492       0.98394831 </v>
   </varray>
  </structure>
  <varray name="forces" >
   <v>      -0.00010190       0.00079978      -0.00021511 </v>
   <v>       0.00018416       0.00019122      -0.00048002 </v>
   <v>       0.00003297       0.00021945       0.00014570 </v>
   <v>       0.00007010      -0.00014201      -0.00013174 </v>
   <v>      -0.00188642      -0.00027809      -0.00026900 </v>
   <v>      -0.00020900      -0.00087845       0.00021290 </v>
   <v>      -0.00039260      -0.00046768       0.00025502 </v>
   <v>       0.00103054       0.00153055       0.00003980 </v>
   <v>       0.00015421      -0.00001845      -0.00020112 </v>
   <v>       0.00037279      -0.00027877      -0.00013581 </v>
   <v>       0.00002937      -0.00027489      -0.00051461 </v>
   <v>       0.00008652       0.00026990       0.00041742 </v>
   <v>       0.00056472      -0.00012020       0.00006657 </v>
   <v>      -0.00030884       0.00042738      -0.00010242 </v>
   <v>       0.00033620       0.00015732       0.00004514 </v>
   <v>       0.00005419       0.00021130       0.00014140 </v>
   <v>       0.00035579      -0.00044225       0.00068699 </v>
   <v>       0.00043097       0.00034560       0.00098256 </v>
   <v>      -0.00063448       0.00006307      -0.00004568 </v>
   <v>       0.00003200      -0.00015406       0.00085757 </v>
   <v>       0.00004870      -0.00025237      -0.00026046 </v>
   <v>       0.00008201      -0.00011298       0.00000401 </v>
   <v>      -0.00020738      -0.00042110      -0.00044984 </v>
   <v>       0.00001304      -0.00040637       0.00023440 </v>
   <v>       0.00040771      -0.00000283       0.00019434 </v>
   <v>      -0.00023835      -0.00006108      -0.00078576 </v>
   <v>      -0.00016005       0.00001976      -0.00036983 </v>
   <v>       0.00005395       0.00025549      -0.00020605 </v>
   <v>       0.00043229       0.00012846      -0.00031264 </v>
   <v>       0.00002437       0.00052518      -0.00056984 </v>
   <v>       0.00001402       0.00014424      -0.00033461 </v>
   <v>       0.00002976       0.00019674      -0.00008616 </v>
   <v>      -0.00033744       0.00001943       0.00007400 </v>
   <v>       0.00018178      -0.00043520       0.00033157 </v>
   <v>      -0.00011834      -0.00005087      -0.00036961 </v>
   <v>       0.00067838       0.00026148       0.00020038 </v>
   <v>      -0.00006947      -0.00043611      -0.00027524 </v>
   <v>      -0.00019155       0.00016654       0.00048580 </v>
   <v>      -0.00063051       0.00066172      -0.00059072 </v>
   <v>      -0.00019409      -0.00053744       0.00025876 </v>
   <v>       0.00011722       0.00025996       0.00023064 </v>
   <v>       0.00006958       0.00002234       0.00030427 </v>
   <v>      -0.00027611      -0.00017360       0.00031592 </v>
   <v>       0.00012153      -0.00023935      -0.00043275 </v>
   <v>      -0.00001033      -0.00019233       0.00013456 </v>
   <v>      -0.00010903       0.00030039       0.00018654 </v>
   <v>       0.00009062       0.00013093       0.00004108 </v>
   <v>      -0.00000810      -0.00023672       0.00001776 </v>
   <v>      -0.00010674      -0.00041458      -0.00020975 </v>
   <v>       0.00018119      -0.00003467       0.00010406 </v>
   <v>       0.00018922       0.00000916       0.00000663 </v>
   <v>      -0.00027918      -0.00025495       0.00037297 </v>
  </varray>
  <varray name="stress" >
   <v>       1.17697020      -1.42160355       2.72447703 </v>
   <v>      -1.42160377       2.15081562       2.52274919 </v>
   <v>       2.72447671       2.52274973      -3.37427864 </v>
  </varray>
  <energy>
   <i name="e_fr_energy">   -272.20891104 </i>
   <i name="e_wo_entrp">   -272.20891104 </i>
   <i name="e_0_energy">   -272.20891104 </i>
  </energy>
  <time name="totalsc">    7.49    7.58</time>
 </calculation>
 <calculation>
  <scstep>
   <time name="dav">    2.34    2.36</time>
   <time name="total">    2.87    2.89</time>
   <energy>
    <i name="alphaZ">    299.22794375 </i>
    <i name="ewald">  -8773.29168282 </i>
    <i name="hartreedc">  -2241.27277578 </i>
    <i name="XCdc">    537.78437861 </i>
    <i name="pawpsdc">   9824.75580748 </i>
    <i name="pawaedc">  -9968.78958710 </i>
    <i name="eentropy">     -0.00000000 </i>
    <i name="bandstr">  -2640.27797624 </i>
    <i name="atom">  12703.13999606 </i>
    <i name="e_fr_energy">   -258.72389604 </i>
    <i name="e_wo_entrp">   -258.72389604 </i>
    <i name="e_0_energy">   -258.72389604 </i>
   </energy>
  </scstep>
  <scstep>
   <time name="diag">    0.36    0.37</time>
   <time name="diis">    0.86    0.86</time>
   <time name="orth">    0.07    0.07</time>
   <time name="total">    1.74    1.75</time>
   <energy>
    <i name="alphaZ">    299.22794375 </i>
    <i name="ewald">  -8773.29168282 </i>
    <i name="hartreedc">  -2241.27166985 </i>
    <i name="XCdc">    537.78430546 </i>
    <i name="pawpsdc">   9824.73564448 </i>
    <i name="pawaedc">  -9968.76934823 </i>
    <i name="eentropy">     -0.00000000 </i>
    <i name="bandstr">  -2640.27908502 </i>
    <i name="atom">  12703.13999606 </i>
    <i name="e_fr_energy">   -258.72389617 </i>
    <i name="e_wo_entrp">   -258.72389617 </i>
    <i name="e_0_energy">   -258.72389617 </i>
   </energy>
  </scstep>
  <structure>
   <crystal>
    <varray name="basis" >
     <v>       9.68054707       0.00000000       0.00000000 </v>
     <v>       0.00000000       9.68054707       0.00000000 </v>
     <v>       0.00000000       0.00000000       9.68054707 </v>
    </varray>
    <i name="volume">    907.19302574 </i>
    <varray name="rec_basis" >
     <v>       0.10329995       0.00000000       0.00000000 </v>
     <v>       0.00000000       0.10329995       0.00000000 </v>
     <v>       0.00000000       0.00000000       0.10329995 </v>
    </varray>
   </crystal>
   <varray name="positions" >
    <v>       0.97694044       0.30363889       0.28755876 </v>
    <v>       0.97166820       0.80994400       0.80395796 </v>
    <v>       0.02918548       0.32194806       0.68434764 </v>
    <v>       0.01604196       0.80050683       0.18631862 </v>
    <v>       0.18277984       0.21482973       0.97361546 </v>
    <v>       0.28216359       0.69597145       0.01658892 </v>
    <v>       0.82635896       0.14909450       0.03793798 </v>
    <v>       0.72329094       0.74160422       0.97862623 </v>
    <v>       0.22362262       0.98158551       0.18049168 </v>
    <v>       0.18885938       0.01892500       0.78648324 </v>
    <v>       0.69246346       0.95561920       0.67133999 </v>
    <v>       0.69968939       0.01548818       0.33117622 </v>
    <v>       0.32769569       0.83447873       0.46313778 </v>
    <v>       0.28180990       0.20616723       0.51244969 </v>
    <v>       0.83309654       0.66012327       0.52791767 </v>
    <v>       0.78512381       0.30134850       0.47988038 </v>
    <v>       0.31794029       0.46506903       0.80255701 </v>
    <v>       0.17648133       0.54681545       0.34470194 </v>
    <v>       0.67946021       0.45400190       0.17807480 </v>
    <v>       0.70980161       0.50315329       0.81044707 </v>
    <v>       0.47500010       0.18024068       0.71193672 </v>
    <v>       0.47520469       0.69634054       0.20978268 </v>
    <v>       0.51701030       0.20662476       0.29758161 </v>
    <v>       0.51768334       0.71652362       0.77305287 </v>
    <v>       0.49588902       0.49903788       0.49791702 </v>
    <v>       0.50305092       0.00445051       0.99719757 </v>
    <v>       0.00199886       0.49438065       0.99836841 </v>
    <v>       0.00041830       0.99109163       0.49286513 </v>
    <v>       0.12491621       0.86648382       0.61068197 </v>
    <v>       0.11698171       0.11203481       0.36256023 </v>
    <v>       0.87584795       0.86128222       0.38084782 </v>
    <v>       0.88261537       0.11311400       0.62025094 </v>
    <v>       0.87274022       0.61202686       0.11952293 </v>
    <v>       0.88720696       0.35174817       0.89118113 </v>
    <v>       0.11311492       0.61131344       0.86034661 </v>
    <v>       0.13914248       0.39776219       0.12692597 </v>
    <v>       0.64176295       0.10348302       0.87209451 </v>
    <v>       0.61385753       0.88699479       0.13544899 </v>
    <v>       0.38511583       0.14519702       0.10214535 </v>
    <v>       0.37615790       0.88396758       0.87623984 </v>
    <v>       0.63063849       0.61052498       0.37876142 </v>
    <v>       0.60593012       0.37332677       0.62968396 </v>
    <v>       0.36575296       0.62416536       0.60866764 </v>
    <v>       0.37261582       0.38602522       0.36783337 </v>
    <v>       0.75188709       0.73356914       0.74494530 </v>
    <v>       0.74923441       0.23687172       0.25169234 </v>
    <v>       0.24722395       0.75537014       0.24557364 </v>
    <v>       0.24778825       0.24429576       0.74458776 </v>
    <v>       0.02916633       0.99117908       0.99548146 </v>
    <v>       0.98243492       0.46339891       0.48597854 </v>
    <v>       0.49779738       0.02695590       0.49725032 </v>
    <v>       0.50663751       0.54772204       0.98395026 </v>
   </varray>
  </structure>
  <varray name="forces" >
   <v>      -0.00012879       0.00054630      -0.00009760 </v>
   <v>       0.00010885       0.00011991      -0.00035289 </v>
   <v>       0.00000153       0.00017629       0.00014743 </v>
   <v>       0.00005034      -0.00010962      -0.00010239 </v>
   <v>      -0.00140029      -0.00023920      -0.00032811 </v>
   <v>      -0.00014556      -0.00057014       0.00003503 </v>
   <v>      -0.00031379      -0.00031722       0.00008026 </v>
   <v>       0.00074354       0.00107289      -0.00008967 </v>
   <v>       0.00005780      -0.00009204      -0.00014949 </v>
   <v>       0.00031079      -0.00024652      -0.00008857 </v>
   <v>      -0.00000062      -0.00021741      -0.00033325 </v>
   <v>       0.00009785       0.00020897       0.00037249 </v>
   <v>       0.00043043      -0.00010199       0.00004466 </v>
   <v>      -0.00025280       0.00028353      -0.00002406 </v>
   <v>       0.00023757       0.00010757       0.00003364 </v>
   <v>       0.00001959       0.00019024       0.00014704 </v>
   <v>       0.00024683      -0.00031520       0.00048276 </v>
   <v>       0.00025020       0.00028834       0.00072235 </v>
   <v>      -0.00047398       0.00004539      -0.00004146 </v>
   <v>       0.00005450      -0.00018364       0.00059000 </v>
   <v>       0.00010274      -0.00022772      -0.00014689 </v>
   <v>       0.00006429      -0.00014587       0.00002601 </v>
   <v>      -0.00010409      -0.00033484      -0.00031908 </v>
   <v>       0.00000540      -0.00029264       0.00019166 </v>
   <v>       0.00155153       0.00019293       0.00047477 </v>
   <v>      -0.00019093      -0.00016799      -0.00294355 </v>
   <v>      -0.00083680       0.00009767      -0.00155567 </v>
   <v>      -0.00022920       0.00016712      -0.00021461 </v>
   <v>       0.00018389       0.00019668      -0.00028031 </v>
   <v>       0.00004580       0.00038265      -0.00038587 </v>
   <v>       0.00023802       0.00033489       0.00000399 </v>
   <v>       0.00022955      -0.00009909      -0.00027830 </v>
   <v>      -0.00012106      -0.00008953       0.00003670 </v>
   <v>       0.00069466       0.00039316       0.00080492 </v>
   <v>      -0.00035633      -0.00044239       0.00024337 </v>
   <v>       0.00095997      -0.00015595       0.00061410 </v>
   <v>      -0.00098820      -0.00099050       0.00070595 </v>
   <v>       0.00025993      -0.00032577       0.00088559 </v>
   <v>      -0.00071395       0.00090388       0.00001366 </v>
   <v>       0.00066114       0.00032568       0.00101498 </v>
   <v>      -0.00054778      -0.00029898       0.00056604 </v>
   <v>      -0.00039596       0.00042244      -0.00030004 </v>
   <v>      -0.00024367      -0.00011956       0.00023556 </v>
   <v>      -0.00022983      -0.00044031      -0.00062925 </v>
   <v>      -0.00005303      -0.00011978       0.00016811 </v>
   <v>      -0.00010755       0.00018578       0.00016737 </v>
   <v>       0.00010500       0.00009295      -0.00001255 </v>
   <v>      -0.00001165      -0.00018563      -0.00000166 </v>
   <v>       0.00025797      -0.00018408      -0.00012187 </v>
   <v>      -0.00005190      -0.00039610      -0.00005242 </v>
   <v>       0.00014513       0.00020662      -0.00003160 </v>
   <v>      -0.00021708       0.00046783       0.00007273 </v>
  </varray>
  <varray name="stress" >
   <v>       1.17181480      -1.42690131       2.72600920 </v>
   <v>      -1.42690170       2.14635563       2.52300179 </v>
   <v>       2.72600912       2.52300245      -3.37921867 </v>
  </varray>
  <energy>
   <i name="e_fr_energy">   -272.20891142 </i>
   <i name="e_wo_entrp">   -272.20891142 </i>
   <i name="e_0_energy">   -272.20891142 </i>
  </energy>
  <time name="totalsc">    7.68    7.76</time>
 </calculation>
 <calculation>
  <scstep>
   <time name="dav">    2.37    2.39</time>
   <time name="total">    2.90    2.92</time>
   <energy>
    <i name="alphaZ">    299.22794375 </i>
    <i name="ewald">  -8773.30539558 </i>
    <i name="hartreedc">  -2241.26012844 </i>
    <i name="XCdc">    537.78403440 </i>
    <i name="pawpsdc">   9824.72325835 </i>
    <i name="pawaedc">  -9968.75688488 </i>
    <i name="eentropy">     -0.00000000 </i>
    <i name="bandstr">  -2640.27672029 </i>
    <i name="atom">  12703.13999606 </i>
    <i name="e_fr_energy">   -258.72389662 </i>
    <i name="e_wo_entrp">   -258.72389662 </i>
    <i name="e_0_energy">   -258.72389662 </i>
   </energy>
  </scstep>
  <scstep>
   <time name="diag">    0.36    0.36</time>
   <time name="diis">    0.85    0.86</time>
   <time name="orth">    0.07    0.07</time>
   <time name="total">    1.73    1.74</time>
   <energy>
    <i name="alphaZ">    299.22794375 </i>
    <i name="ewald">  -8773.30539558 </i>
    <i name="hartreedc">  -2241.25943966 </i>
    <i name="XCdc">    537.78399759 </i>
    <i name="pawpsdc">   9824.70941575 </i>
    <i name="pawaedc">  -9968.74298711 </i>
    <i name="eentropy">     -0.00000000 </i>
    <i name="bandstr">  -2640.27742771 </i>
    <i name="atom">  12703.13999606 </i>
    <i name="e_fr_energy">   -258.72389691 </i>
    <i name="e_wo_entrp">   -258.72389691 </i>
    <i name="e_0_energy">   -258.72389691 </i>
   </energy>
  </scstep>
  <structure>
   <crystal>
    <varray name="basis" >
     <v>       9.68054707       0.00000000       0.00000000 </v>
     <v>       0.00000000       9.68054707       0.00000000 </v>
     <v>       0.00000000       0.00000000       9.68054707 </v>
    </varray>
    <i name="volume">    907.19302574 </i>
    <varray name="rec_basis" >
     <v>       0.10329995       0.00000000       0.00000000 </v>
     <v>       0.00000000       0.10329995       0.00000000 </v>
     <v>       0.00000000       0.00000000       0.10329995 </v>
    </varray>
   </crystal>
   <varray name="positions" >
    <v>       0.97694000       0.30364212       0.28755791 </v>
    <v>       0.97166906       0.80994480       0.80395581 </v>
    <v>       0.02918564       0.32194899       0.68434830 </v>
    <v>       0.01604229       0.80050618       0.18631807 </v>
    <v>       0.18277226       0.21482860       0.97361431 </v>
    <v>       0.28216274       0.69596796       0.01658972 </v>
    <v>       0.82635729       0.14909255       0.03793901 </v>
    <v>       0.72329509       0.74161039       0.97862629 </v>
    <v>       0.22362340       0.98158543       0.18049072 </v>
    <v>       0.18886108       0.01892377       0.78648260 </v>
    <v>       0.69246365       0.95561803       0.67133778 </v>
    <v>       0.69968984       0.01548944       0.33117810 </v>
    <v>       0.32769810       0.83447819       0.46313806 </v>
    <v>       0.28180853       0.20616916       0.51244923 </v>
    <v>       0.83309802       0.66012400       0.52791785 </v>
    <v>       0.78512413       0.30134954       0.47988099 </v>
    <v>       0.31794169       0.46506727       0.80255972 </v>
    <v>       0.17648308       0.54681685       0.34470586 </v>
    <v>       0.67945752       0.45400222       0.17807466 </v>
    <v>       0.70980179       0.50315262       0.81045048 </v>
    <v>       0.47500031       0.18023958       0.71193552 </v>
    <v>       0.47520507       0.69634007       0.20978266 </v>
    <v>       0.51700941       0.20662291       0.29757964 </v>
    <v>       0.51768348       0.71652177       0.77305395 </v>
    <v>       0.49589094       0.49903792       0.49791790 </v>
    <v>       0.50304988       0.00445031       0.99719384 </v>
    <v>       0.00199810       0.49438079       0.99836660 </v>
    <v>       0.00041857       0.99109275       0.49286415 </v>
    <v>       0.12491786       0.86648436       0.61068040 </v>
    <v>       0.11698175       0.11203683       0.36255790 </v>
    <v>       0.87584830       0.86128292       0.38084669 </v>
    <v>       0.88261571       0.11311457       0.62025046 </v>
    <v>       0.87273899       0.61202678       0.11952317 </v>
    <v>       0.88720817       0.35174664       0.89118293 </v>
    <v>       0.11311415       0.61131289       0.86034527 </v>
    <v>       0.13914556       0.39776325       0.12692706 </v>
    <v>       0.64176221       0.10348073       0.87209385 </v>
    <v>       0.61385695       0.88699547       0.13545133 </v>
    <v>       0.38511313       0.14520006       0.10214290 </v>
    <v>       0.37615749       0.88396576       0.87624126 </v>
    <v>       0.63063866       0.61052579       0.37876273 </v>
    <v>       0.60593012       0.37332720       0.62968493 </v>
    <v>       0.36575174       0.62416457       0.60866874 </v>
    <v>       0.37261618       0.38602420       0.36783140 </v>
    <v>       0.75188723       0.73356834       0.74494564 </v>
    <v>       0.74923397       0.23687290       0.25169289 </v>
    <v>       0.24722425       0.75537055       0.24557405 </v>
    <v>       0.24778819       0.24429488       0.74458782 </v>
    <v>       0.02916502       0.99117730       0.99548061 </v>
    <v>       0.98243607       0.46339965       0.48597920 </v>
    <v>       0.49779804       0.02695538       0.49725033 </v>
    <v>       0.50663575       0.54772091       0.98395206 </v>
   </varray>
  </structure>
  <varray name="forces" >
   <v>      -0.00002249       0.00038977      -0.00007690 </v>
   <v>       0.00005304       0.00006591      -0.00020548 </v>
   <v>       0.00004762       0.00008802       0.00008107 </v>
   <v>       0.00003171      -0.00007772      -0.00003190 </v>
   <v>      -0.00084661      -0.00012045      -0.00008908 </v>
   <v>      -0.00010271      -0.00044416       0.00016054 </v>
   <v>      -0.00019569      -0.00024061       0.00018301 </v>
   <v>       0.00048202       0.00073574       0.00004365 </v>
   <v>       0.00006596       0.00001551      -0.00004412 </v>
   <v>       0.00016513      -0.00011881      -0.00004167 </v>
   <v>       0.00001735      -0.00018487      -0.00022289 </v>
   <v>       0.00002555       0.00012361       0.00018642 </v>
   <v>       0.00025593      -0.00007222       0.00004120 </v>
   <v>      -0.00016378       0.00019878      -0.00004824 </v>
   <v>       0.00015674       0.00006975       0.00005276 </v>
   <v>       0.00002038       0.00009321       0.00006459 </v>
   <v>       0.00017237      -0.00024053       0.00035626 </v>
   <v>       0.00020186       0.00014010       0.00047941 </v>
   <v>      -0.00029490       0.00001877      -0.00000266 </v>
   <v>       0.00002016      -0.00006869       0.00044188 </v>
[...]
       <r>     7.9282     9.1552   143.9954 </r>
       <r>     8.1209    11.7464   146.2616 </r>
       <r>     8.3136    17.7108   149.6747 </r>
       <r>     8.5063    17.9177   153.1279 </r>
       <r>     8.6991    14.3865   155.9011 </r>
       <r>     8.8918    15.7772   158.9418 </r>
       <r>     9.0845    15.4110   161.9135 </r>
       <r>     9.2772    16.8816   165.1670 </r>
       <r>     9.4699    20.8338   169.1826 </r>
       <r>     9.6626    18.6519   172.7776 </r>
       <r>     9.8553    12.8519   175.2556 </r>
       <r>    10.0481     3.8609   176.0000 </r>
       <r>    10.2408     0.0000   176.0000 </r>
       <r>    10.4335     0.0000   176.0000 </r>
       <r>    10.6262     0.0000   176.0000 </r>
       <r>    10.8189     0.0000   176.0000 </r>
       <r>    11.0116     0.0000   176.0000 </r>
       <r>    11.2043     0.0000   176.0000 </r>
       <r>    11.3970     0.0000   176.0000 </r>
       <r>    11.5898     0.0000   176.0000 </r>
       <r>    11.7825     0.0000   176.0000 </r>
       <r>    11.9752     0.0000   176.0000 </r>
       <r>    12.1679     0.0000   176.0000 </r>
       <r>    12.3606     0.0000   176.0000 </r>
       <r>    12.5533     0.0000   176.0000 </r>
      </set>
      <set comment="spin 2">
       <r>   -45.2608     0.0000     0.0000 </r>
       <r>   -45.0681     0.0000     0.0000 </r>
       <r>   -44.8754     0.0000     0.0000 </r>
       <r>   -44.6826     0.0000     0.0000 </r>
       <r>   -44.4899     0.0000     0.0000 </r>
       <r>   -44.2972     0.0000     0.0000 </r>
       <r>   -44.1045     0.0000     0.0000 </r>
       <r>   -43.9118     0.0000     0.0000 </r>
       <r>   -43.7191     0.0000     0.0000 </r>
       <r>   -43.5264     0.0000     0.0000 </r>
       <r>   -43.3336     0.0000     0.0000 </r>
       <r>   -43.1409     0.0000     0.0000 </r>
       <r>   -42.9482     0.0000     0.0000 </r>
       <r>   -42.7555     0.0000     0.0000 </r>
       <r>   -42.5628    17.0633     3.2883 </r>
       <r>   -42.3701    58.1152    14.4906 </r>
       <r>   -42.1774    49.3081    24.0000 </r>
       <r>   -41.9847     0.0000    24.0000 </r>
       <r>   -41.7919     0.0000    24.0000 </r>
       <r>   -41.5992     0.0000    24.0000 </r>
       <r>   -41.4065     0.0000    24.0000 </r>
       <r>   -41.2138     0.0000    24.0000 </r>
       <r>   -41.0211     0.0000    24.0000 </r>
       <r>   -40.8284     0.0000    24.0000 </r>
       <r>   -40.6357     0.0000    24.0000 </r>
       <r>   -40.4429     0.0000    24.0000 </r>
       <r>   -40.2502     0.0000    24.0000 </r>
       <r>   -40.0575     0.0000    24.0000 </r>
       <r>   -39.8648     0.0000    24.0000 </r>
       <r>   -39.6721     0.0000    24.0000 </r>
       <r>   -39.4794     0.0000    24.0000 </r>
       <r>   -39.2867     0.0000    24.0000 </r>
       <r>   -39.0939     0.0000    24.0000 </r>
       <r>   -38.9012     0.0000    24.0000 </r>
       <r>   -38.7085     0.0000    24.0000 </r>
       <r>   -38.5158     0.0000    24.0000 </r>
       <r>   -38.3231     0.0000    24.0000 </r>
       <r>   -38.1304     0.0000    24.0000 </r>
       <r>   -37.9377     0.0000    24.0000 </r>
       <r>   -37.7450     0.0000    24.0000 </r>
       <r>   -37.5522     0.0000    24.0000 </r>
       <r>   -37.3595     0.0000    24.0000 </r>
       <r>   -37.1668     0.0000    24.0000 </r>
       <r>   -36.9741     0.0000    24.0000 </r>
       <r>   -36.7814     0.0000    24.0000 </r>
       <r>   -36.5887     0.0000    24.0000 </r>
       <r>   -36.3960     0.0000    24.0000 </r>
       <r>   -36.2032     0.0000    24.0000 </r>
       <r>   -36.0105     0.0000    24.0000 </r>
       <r>   -35.8178     0.0000    24.0000 </r>
       <r>   -35.6251     0.0000    24.0000 </r>
       <r>   -35.4324     0.0000    24.0000 </r>
       <r>   -35.2397     0.0000    24.0000 </r>
       <r>   -35.0470     0.0000    24.0000 </r>
       <r>   -34.8542     0.0000    24.0000 </r>
       <r>   -34.6615     0.0000    24.0000 </r>
       <r>   -34.4688     0.0000    24.0000 </r>
       <r>   -34.2761     0.0000    24.0000 </r>
       <r>   -34.0834     0.0000    24.0000 </r>
       <r>   -33.8907     0.0000    24.0000 </r>
       <r>   -33.6980     0.0000    24.0000 </r>
       <r>   -33.5052     0.0000    24.0000 </r>
       <r>   -33.3125     0.0000    24.0000 </r>
       <r>   -33.1198     0.0000    24.0000 </r>
       <r>   -32.9271     0.0000    24.0000 </r>
       <r>   -32.7344     0.0000    24.0000 </r>
       <r>   -32.5417     0.0000    24.0000 </r>
       <r>   -32.3490     0.0000    24.0000 </r>
       <r>   -32.1563     0.0000    24.0000 </r>
       <r>   -31.9635     0.0000    24.0000 </r>
       <r>   -31.7708     0.0000    24.0000 </r>
       <r>   -31.5781     0.0000    24.0000 </r>
       <r>   -31.3854     0.0000    24.0000 </r>
       <r>   -31.1927     0.0000    24.0000 </r>
       <r>   -31.0000     0.0000    24.0000 </r>
       <r>   -30.8073     0.0000    24.0000 </r>
       <r>   -30.6145     0.0000    24.0000 </r>
       <r>   -30.4218     0.0000    24.0000 </r>
       <r>   -30.2291     0.0000    24.0000 </r>
       <r>   -30.0364     0.0000    24.0000 </r>
       <r>   -29.8437     0.0000    24.0000 </r>
       <r>   -29.6510     0.0000    24.0000 </r>
       <r>   -29.4583     0.0000    24.0000 </r>
       <r>   -29.2655     0.0000    24.0000 </r>
       <r>   -29.0728     0.0000    24.0000 </r>
       <r>   -28.8801     0.0000    24.0000 </r>
       <r>   -28.6874     0.0000    24.0000 </r>
       <r>   -28.4947     0.0000    24.0000 </r>
       <r>   -28.3020     0.0000    24.0000 </r>
       <r>   -28.1093     0.0000    24.0000 </r>
       <r>   -27.9166     0.0000    24.0000 </r>
       <r>   -27.7238     0.0000    24.0000 </r>
       <r>   -27.5311     0.0000    24.0000 </r>
       <r>   -27.3384     0.0000    24.0000 </r>
       <r>   -27.1457     0.0000    24.0000 </r>
       <r>   -26.9530     0.0000    24.0000 </r>
       <r>   -26.7603     0.0000    24.0000 </r>
       <r>   -26.5676     0.0000    24.0000 </r>
       <r>   -26.3748     0.0000    24.0000 </r>
       <r>   -26.1821     0.0000    24.0000 </r>
       <r>   -25.9894     0.0000    24.0000 </r>
       <r>   -25.7967     0.0000    24.0000 </r>
       <r>   -25.6040     0.0000    24.0000 </r>
       <r>   -25.4113     0.0000    24.0000 </r>
       <r>   -25.2186     0.0000    24.0000 </r>
       <r>   -25.0258     0.0000    24.0000 </r>
       <r>   -24.8331     0.0000    24.0000 </r>
       <r>   -24.6404     0.0000    24.0000 </r>
       <r>   -24.4477     0.0000    24.0000 </r>
       <r>   -24.2550     0.0000    24.0000 </r>
       <r>   -24.0623     0.0000    24.0000 </r>
       <r>   -23.8696     0.0000    24.0000 </r>
       <r>   -23.6768     0.0000    24.0000 </r>
       <r>   -23.4841     0.0000    24.0000 </r>
       <r>   -23.2914     0.0000    24.0000 </r>
       <r>   -23.0987     0.0000    24.0000 </r>
       <r>   -22.9060     0.0000    24.0000 </r>
       <r>   -22.7133     0.0000    24.0000 </r>
       <r>   -22.5206     0.0000    24.0000 </r>
       <r>   -22.3279     0.0000    24.0000 </r>
       <r>   -22.1351     0.0000    24.0000 </r>
       <r>   -21.9424     0.0000    24.0000 </r>
       <r>   -21.7497     0.0000    24.0000 </r>
       <r>   -21.5570     0.0000    24.0000 </r>
       <r>   -21.3643     0.0000    24.0000 </r>
       <r>   -21.1716     0.0000    24.0000 </r>
       <r>   -20.9789     0.0000    24.0000 </r>
       <r>   -20.7861     0.0000    24.0000 </r>
       <r>   -20.5934     0.0000    24.0000 </r>
       <r>   -20.4007     0.0000    24.0000 </r>
       <r>   -20.2080     0.0000    24.0000 </r>
       <r>   -20.0153     0.0000    24.0000 </r>
       <r>   -19.8226     0.0000    24.0000 </r>
       <r>   -19.6299     0.0000    24.0000 </r>
       <r>   -19.4371     0.0000    24.0000 </r>
       <r>   -19.2444     0.0000    24.0000 </r>
       <r>   -19.0517     0.0000    24.0000 </r>
       <r>   -18.8590     0.0000    24.0000 </r>
       <r>   -18.6663     0.0000    24.0000 </r>
       <r>   -18.4736     0.0000    24.0000 </r>
       <r>   -18.2809     0.0000    24.0000 </r>
       <r>   -18.0882     0.0000    24.0000 </r>
       <r>   -17.8954     0.0000    24.0000 </r>
       <r>   -17.7027     0.0000    24.0000 </r>
       <r>   -17.5100     0.0000    24.0000 </r>
       <r>   -17.3173     0.0000    24.0000 </r>
       <r>   -17.1246     0.0000    24.0000 </r>
       <r>   -16.9319     0.0000    24.0000 </r>
       <r>   -16.7392     0.0000    24.0000 </r>
       <r>   -16.5464     0.0000    24.0000 </r>
       <r>   -16.3537     0.0000    24.0000 </r>
       <r>   -16.1610     0.0000    24.0000 </r>
       <r>   -15.9683     0.0000    24.0000 </r>
       <r>   -15.7756     0.0000    24.0000 </r>
       <r>   -15.5829     0.0000    24.0000 </r>
       <r>   -15.3902     0.0000    24.0000 </r>
       <r>   -15.1974     0.0000    24.0000 </r>
       <r>   -15.0047     0.0000    24.0000 </r>
       <r>   -14.8120     0.0000    24.0000 </r>
       <r>   -14.6193     0.0000    24.0000 </r>
       <r>   -14.4266     0.0000    24.0000 </r>
       <r>   -14.2339     0.0000    24.0000 </r>
       <r>   -14.0412     0.0000    24.0000 </r>
       <r>   -13.8484     0.0000    24.0000 </r>
       <r>   -13.6557     0.0000    24.0000 </r>
       <r>   -13.4630     0.0000    24.0000 </r>
       <r>   -13.2703     0.0000    24.0000 </r>
       <r>   -13.0776     2.8065    24.5408 </r>
       <r>   -12.8849    17.9497    28.0000 </r>
       <r>   -12.6922     0.0701    28.0135 </r>
       <r>   -12.4995    19.9026    31.8490 </r>
       <r>   -12.3067     0.7835    32.0000 </r>
       <r>   -12.1140     0.0000    32.0000 </r>
       <r>   -11.9213     0.0000    32.0000 </r>
       <r>   -11.7286     0.0000    32.0000 </r>
       <r>   -11.5359     0.0000    32.0000 </r>
       <r>   -11.3432     0.0000    32.0000 </r>
       <r>   -11.1505     0.0000    32.0000 </r>
       <r>   -10.9577     0.0000    32.0000 </r>
       <r>   -10.7650     0.0000    32.0000 </r>
       <r>   -10.5723     0.0000    32.0000 </r>
       <r>   -10.3796     0.0032    32.0006 </r>
       <r>   -10.1869    15.8469    35.0545 </r>
       <r>    -9.9942    28.4822    40.5436 </r>
       <r>    -9.8015    17.9198    44.0000 </r>
       <r>    -9.6087     0.0000    44.0000 </r>
       <r>    -9.4160     0.0000    44.0000 </r>
       <r>    -9.2233     0.0000    44.0000 </r>
       <r>    -9.0306     0.0000    44.0000 </r>
       <r>    -8.8379     0.0000    44.0000 </r>
       <r>    -8.6452     0.0000    44.0000 </r>
       <r>    -8.4525     3.5433    44.6828 </r>
       <r>    -8.2598    17.2100    47.9994 </r>
       <r>    -8.0670     0.0000    48.0000 </r>
       <r>    -7.8743     0.0000    48.0000 </r>
       <r>    -7.6816     0.0000    48.0000 </r>
       <r>    -7.4889     0.0000    48.0000 </r>
       <r>    -7.2962     0.0000    48.0000 </r>
       <r>    -7.1035     0.0000    48.0000 </r>
       <r>    -6.9108     0.0000    48.0000 </r>
       <r>    -6.7180     0.0000    48.0000 </r>
       <r>    -6.5253     0.0000    48.0000 </r>
       <r>    -6.3326     0.0000    48.0000 </r>
       <r>    -6.1399     4.0367    48.7779 </r>
       <r>    -5.9472     1.1523    49.0000 </r>
       <r>    -5.7545     2.7985    49.5393 </r>
       <r>    -5.5618    12.7686    52.0000 </r>
       <r>    -5.3690     0.0000    52.0000 </r>
       <r>    -5.1763     0.0000    52.0000 </r>
       <r>    -4.9836     0.0000    52.0000 </r>
       <r>    -4.7909     0.0000    52.0000 </r>
       <r>    -4.5982     0.0000    52.0000 </r>
       <r>    -4.4055     0.0000    52.0000 </r>
       <r>    -4.2128     0.0000    52.0000 </r>
       <r>    -4.0200     0.0000    52.0000 </r>
       <r>    -3.8273     0.0000    52.0000 </r>
       <r>    -3.6346     0.0000    52.0000 </r>
       <r>    -3.4419     0.0000    52.0000 </r>
       <r>    -3.2492     4.9574    52.9554 </r>
       <r>    -3.0565    10.6097    55.0000 </r>
       <r>    -2.8638     4.0622    55.7828 </r>
       <r>    -2.6711    11.0372    57.9099 </r>
       <r>    -2.4783    13.2206    60.4577 </r>
       <r>    -2.2856    18.2882    63.9827 </r>
       <r>    -2.0929     0.0688    64.0000 </r>
       <r>    -1.9002     0.0000    64.0000 </r>
       <r>    -1.7075     0.0000    64.0000 </r>
       <r>    -1.5148     2.5602    64.4934 </r>
       <r>    -1.3221    33.0425    70.8611 </r>
       <r>    -1.1293    20.3333    74.7851 </r>
       <r>    -0.9366     6.2998    76.0000 </r>
       <r>    -0.7439     0.0000    76.0000 </r>
       <r>    -0.5512     7.9328    77.5288 </r>
       <r>    -0.3585    10.9086    79.6310 </r>
       <r>    -0.1658    12.8334    82.1042 </r>
       <r>     0.0269    28.3772    87.5731 </r>
       <r>     0.2197    27.0996    92.8030 </r>
       <r>     0.4124    15.9974    95.8895 </r>
       <r>     0.6051     0.5735    96.0029 </r>
       <r>     0.7978    12.1831    98.3508 </r>
       <r>     0.9905    22.2390   102.6383 </r>
       <r>     1.1832    23.3336   107.1356 </r>
       <r>     1.3759    28.2860   112.5871 </r>
       <r>     1.5686    28.3843   118.0598 </r>
       <r>     1.7614    10.0547   119.9981 </r>
       <r>     1.9541     0.0000   120.0000 </r>
       <r>     2.1468     0.0000   120.0000 </r>
       <r>     2.3395     0.0000   120.0000 </r>
       <r>     2.5322     0.0000   120.0000 </r>
       <r>     2.7249     0.0000   120.0000 </r>
       <r>     2.9176     0.0000   120.0000 </r>
       <r>     3.1104     0.0000   120.0000 </r>
       <r>     3.3031     0.0000   120.0000 </r>
       <r>     3.4958     0.0000   120.0000 </r>
       <r>     3.6885     0.0000   120.0000 </r>
       <r>     3.8812     0.0000   120.0000 </r>
       <r>     4.0739     0.0000   120.0000 </r>
       <r>     4.2666     0.0000   120.0000 </r>
       <r>     4.4594     5.1835   120.9989 </r>
       <r>     4.6521     0.0000   121.0000 </r>
       <r>     4.8448     0.0000   121.0000 </r>
       <r>     5.0375     0.0000   121.0000 </r>
       <r>     5.2302     5.7268   122.1036 </r>
       <r>     5.4229     9.8263   124.0000 </r>
       <r>     5.6156     0.0000   124.0000 </r>
       <r>     5.8084     0.4083   124.0787 </r>
       <r>     6.0011    14.3985   126.8535 </r>
       <r>     6.1938    14.2631   129.6039 </r>
       <r>     6.3865     2.1332   130.0150 </r>
       <r>     6.5792    13.4246   132.6021 </r>
       <r>     6.7719     7.7173   134.0909 </r>
       <r>     6.9646     9.8997   136.0004 </r>
       <r>     7.1573     5.1871   137.0000 </r>
       <r>     7.3501     4.5687   137.8805 </r>
       <r>     7.5428     9.5033   139.7119 </r>
       <r>     7.7355    13.0457   142.2269 </r>
       <r>     7.9282     9.1552   143.9954 </r>
       <r>     8.1209    11.7465   146.2616 </r>
       <r>     8.3136    17.7108   149.6747 </r>
       <r>     8.5063    17.9177   153.1279 </r>
       <r>     8.6991    14.3865   155.9011 </r>
       <r>     8.8918    15.7773   158.9418 </r>
       <r>     9.0845    15.4112   161.9136 </r>
       <r>     9.2772    16.8844   165.1676 </r>
       <r>     9.4699    20.8684   169.1899 </r>
       <r>     9.6626    18.6395   172.7824 </r>
       <r>     9.8553    12.8332   175.2569 </r>
       <r>    10.0481     3.8551   176.0000 </r>
       <r>    10.2408     0.0000   176.0000 </r>
       <r>    10.4335     0.0000   176.0000 </r>
       <r>    10.6262     0.0000   176.0000 </r>
       <r>    10.8189     0.0000   176.0000 </r>
       <r>    11.0116     0.0000   176.0000 </r>
       <r>    11.2043     0.0000   176.0000 </r>
       <r>    11.3970     0.0000   176.0000 </r>
       <r>    11.5898     0.0000   176.0000 </r>
       <r>    11.7825     0.0000   176.0000 </r>
       <r>    11.9752     0.0000   176.0000 </r>
       <r>    12.1679     0.0000   176.0000 </r>
       <r>    12.3606     0.0000   176.0000 </r>
       <r>    12.5533     0.0000   176.0000 </r>
      </set>
     </set>
    </array>
   </total>
  </dos>
 </calculation>
 <structure name="finalpos" >
  <crystal>
   <varray name="basis" >
    <v>       9.68054707       0.00000000       0.00000000 </v>
    <v>       0.00000000       9.68054707       0.00000000 </v>
    <v>       0.00000000       0.00000000       9.68054707 </v>
   </varray>
   <i name="volume">    907.19302574 </i>
   <varray name="rec_basis" >
    <v>       0.10329995       0.00000000       0.00000000 </v>
    <v>       0.00000000       0.10329995       0.00000000 </v>
    <v>       0.00000000       0.00000000       0.10329995 </v>
   </varray>
  </crystal>
  <varray name="positions" >
   <v>       0.97693954       0.30364537       0.28755705 </v>
   <v>       0.97166992       0.80994561       0.80395364 </v>
   <v>       0.02918579       0.32194992       0.68434896 </v>
   <v>       0.01604262       0.80050553       0.18631752 </v>
   <v>       0.18276464       0.21482747       0.97361316 </v>
   <v>       0.28216188       0.69596445       0.01659053 </v>
   <v>       0.82635562       0.14909059       0.03794004 </v>
   <v>       0.72329926       0.74161660       0.97862635 </v>
   <v>       0.22362419       0.98158534       0.18048977 </v>
   <v>       0.18886279       0.01892254       0.78648196 </v>
   <v>       0.69246383       0.95561685       0.67133556 </v>
   <v>       0.69969029       0.01549071       0.33117998 </v>
   <v>       0.32770053       0.83447765       0.46313834 </v>
   <v>       0.28180716       0.20617109       0.51244876 </v>
   <v>       0.83309951       0.66012473       0.52791804 </v>
   <v>       0.78512444       0.30135059       0.47988161 </v>
   <v>       0.31794309       0.46506551       0.80256245 </v>
   <v>       0.17648483       0.54681827       0.34470980 </v>
   <v>       0.67945483       0.45400253       0.17807452 </v>
   <v>       0.70980197       0.50315195       0.81045391 </v>
   <v>       0.47500053       0.18023847       0.71193430 </v>
   <v>       0.47520546       0.69633960       0.20978264 </v>
   <v>       0.51700851       0.20662106       0.29757766 </v>
   <v>       0.51768363       0.71651992       0.77305503 </v>
   <v>       0.49589288       0.49903796       0.49791878 </v>
   <v>       0.50304883       0.00445011       0.99719009 </v>
   <v>       0.00199734       0.49438093       0.99836478 </v>
   <v>       0.00041884       0.99109387       0.49286317 </v>
   <v>       0.12491952       0.86648489       0.61067882 </v>
   <v>       0.11698178       0.11203887       0.36255556 </v>
   <v>       0.87584866       0.86128363       0.38084555 </v>
   <v>       0.88261604       0.11311515       0.62024997 </v>
   <v>       0.87273776       0.61202669       0.11952342 </v>
   <v>       0.88720938       0.35174509       0.89118474 </v>
   <v>       0.11311337       0.61131233       0.86034392 </v>
   <v>       0.13914864       0.39776432       0.12692815 </v>
   <v>       0.64176147       0.10347842       0.87209319 </v>
   <v>       0.61385637       0.88699616       0.13545368 </v>
   <v>       0.38511042       0.14520313       0.10214044 </v>
   <v>       0.37615708       0.88396393       0.87624268 </v>
   <v>       0.63063884       0.61052662       0.37876403 </v>
   <v>       0.60593011       0.37332764       0.62968592 </v>
   <v>       0.36575052       0.62416377       0.60866985 </v>
   <v>       0.37261655       0.38602319       0.36782942 </v>
   <v>       0.75188738       0.73356754       0.74494599 </v>
   <v>       0.74923353       0.23687408       0.25169343 </v>
   <v>       0.24722454       0.75537096       0.24557447 </v>
   <v>       0.24778813       0.24429400       0.74458788 </v>
   <v>       0.02916372       0.99117552       0.99547976 </v>
   <v>       0.98243722       0.46340040       0.48597986 </v>
   <v>       0.49779870       0.02695486       0.49725034 </v>
   <v>       0.50663398       0.54771977       0.98395388 </v>
  </varray>
 </structure>
</modeling>
