unknown system                          
           1
     9.680547    0.000000    0.000000
     0.000000    9.680547    0.000000
     0.000000    0.000000    9.680547
   Li   P    S    Cl
    24     4    20     4
Direct configuration=     1
   0.97694075  0.30363371  0.28756049
   0.97166656  0.80994260  0.80396150
   0.02918505  0.32194673  0.68434687
   0.01604138  0.80050787  0.18631942
   0.18279108  0.21483116  0.97361625
   0.28216495  0.69597720  0.01658685
   0.82636137  0.14909773  0.03793563
   0.72328461  0.74159454  0.97862535
   0.22362079  0.98158504  0.18049330
   0.18885684  0.01892668  0.78648442
   0.69246292  0.95562092  0.67134384
   0.69968885  0.01548612  0.33117365
   0.32769199  0.83447951  0.46313731
   0.28181194  0.20616381  0.51245086
   0.83309406  0.66012197  0.52791739
   0.78512304  0.30134693  0.47987974
   0.31793815  0.46507169  0.80255285
   0.17647819  0.54681358  0.34469613
   0.67946435  0.45400133  0.17807489
   0.70980152  0.50315381  0.81044171
   0.47500028  0.18024212  0.71193910
   0.47520407  0.69634078  0.20978294
   0.51701209  0.20662753  0.29758487
   0.51768297  0.71652673  0.77305122
   0.49589540  0.49903925  0.49791814
   0.50305249  0.00444979  0.99718567
   0.00199460  0.49438100  0.99836164
   0.00041574  0.99108968  0.49286630
   0.12491283  0.86648379  0.61068437
   0.11698197  0.11203186  0.36256402
   0.87584877  0.86128277  0.38085113
   0.88261619  0.11311158  0.62025021
   0.87274285  0.61202641  0.11952250
   0.88720883  0.35175568  0.89118211
   0.11311442  0.61131163  0.86035239
   0.13914096  0.39775789  0.12692756
   0.64175746  0.10348204  0.87210190
   0.61386121  0.88699029  0.13544903
   0.38511815  0.14519514  0.10215259
   0.37616420  0.88397539  0.87624356
   0.63063374  0.61052029  0.37876202
   0.60592707  0.37332878  0.62967879
   0.36575461  0.62416674  0.60866625
   0.37261298  0.38602477  0.36783423
   0.75188626  0.73357053  0.74494559
   0.74923484  0.23686975  0.25169206
   0.24722389  0.75536968  0.24557235
   0.24778835  0.24429687  0.74458756
   0.02917210  0.99118282  0.99548297
   0.98243118  0.46339369  0.48597622
   0.49779659  0.02695900  0.49725004
   0.50664096  0.54772896  0.98394557
Direct configuration=     2
   0.97694064  0.30363565  0.28755984
   0.97166717  0.80994312  0.80396017
   0.02918521  0.32194723  0.68434716
   0.01604160  0.80050748  0.18631912
   0.18278686  0.21483062  0.97361596
   0.28216444  0.69597505  0.01658763
   0.82636046  0.14909652  0.03793651
   0.72328699  0.74159817  0.97862568
   0.22362147  0.98158522  0.18049269
   0.18885779  0.01892605  0.78648397
   0.69246312  0.95562028  0.67134239
   0.69968906  0.01548690  0.33117462
   0.32769338  0.83447922  0.46313748
   0.28181118  0.20616509  0.51245042
   0.83309499  0.66012245  0.52791749
   0.78512333  0.30134752  0.47987998
   0.31793895  0.46507069  0.80255441
   0.17647937  0.54681428  0.34469831
   0.67946280  0.45400154  0.17807486
   0.70980155  0.50315361  0.81044372
   0.47500022  0.18024158  0.71193821
   0.47520430  0.69634069  0.20978284
   0.51701141  0.20662649  0.29758365
   0.51768311  0.71652556  0.77305184
   0.49589300  0.49903874  0.49791772
   0.50305190  0.00445006  0.99719014
   0.00199620  0.49438087  0.99836418
   0.00041670  0.99109041  0.49286586
   0.12491410  0.86648380  0.61068347
   0.11698187  0.11203296  0.36256259
   0.87584847  0.86128256  0.38084989
   0.88261588  0.11311249  0.62025049
   0.87274186  0.61202658  0.11952266
   0.88720813  0.35175286  0.89118174
   0.11311461  0.61131231  0.86035022
   0.13914153  0.39775950  0.12692697
   0.64175952  0.10348241  0.87209913
   0.61385983  0.88699198  0.13544901
   0.38511728  0.14519584  0.10214987
   0.37616183  0.88397246  0.87624216
   0.63063552  0.61052205  0.37876179
   0.60592821  0.37332803  0.62968073
   0.36575399  0.62416622  0.60866678
   0.37261404  0.38602494  0.36783391
   0.75188657  0.73357001  0.74494548
   0.74923468  0.23687049  0.25169217
   0.24722391  0.75536985  0.24557284
   0.24778831  0.24429645  0.74458763
   0.02916993  0.99118142  0.99548240
   0.98243258  0.46339565  0.48597709
   0.49779688  0.02695783  0.49725014
   0.50663967  0.54772636  0.98394733
Direct configuration=     3
   0.97694057  0.30363673  0.28755948
   0.97166752  0.80994342  0.80395943
   0.02918530  0.32194751  0.68434732
   0.01604172  0.80050726  0.18631895
   0.18278452  0.21483032  0.97361579
   0.28216416  0.69597385  0.01658806
   0.82635996  0.14909585  0.03793700
   0.72328830  0.74160019  0.97862586
   0.22362186  0.98158531  0.18049235
   0.18885832  0.01892570  0.78648373
   0.69246324  0.95561992  0.67134159
   0.69968917  0.01548732  0.33117515
   0.32769415  0.83447905  0.46313758
   0.28181075  0.20616581  0.51245018
   0.83309551  0.66012272  0.52791755
   0.78512349  0.30134785  0.47988011
   0.31793940  0.46507014  0.80255528
   0.17648002  0.54681467  0.34469952
   0.67946194  0.45400166  0.17807484
   0.70980157  0.50315350  0.81044484
   0.47500018  0.18024128  0.71193772
   0.47520443  0.69634064  0.20978279
   0.51701104  0.20662591  0.29758297
   0.51768319  0.71652492  0.77305218
   0.49589168  0.49903845  0.49791749
   0.50305158  0.00445021  0.99719261
   0.00199708  0.49438080  0.99836559
   0.00041723  0.99109082  0.49286562
   0.12491481  0.86648381  0.61068297
   0.11698182  0.11203358  0.36256180
   0.87584829  0.86128245  0.38084920
   0.88261571  0.11311299  0.62025064
   0.87274131  0.61202667  0.11952275
   0.88720774  0.35175130  0.89118153
   0.11311471  0.61131269  0.86034902
   0.13914185  0.39776040  0.12692664
   0.64176066  0.10348261  0.87209759
   0.61385906  0.88699292  0.13544900
   0.38511679  0.14519623  0.10214837
   0.37616052  0.88397083  0.87624139
   0.63063651  0.61052302  0.37876167
   0.60592885  0.37332761  0.62968181
   0.36575365  0.62416594  0.60866706
   0.37261463  0.38602503  0.36783373
   0.75188675  0.73356972  0.74494542
   0.74923459  0.23687090  0.25169223
   0.24722392  0.75536995  0.24557311
   0.24778829  0.24429622  0.74458768
   0.02916873  0.99118064  0.99548209
   0.98243336  0.46339673  0.48597757
   0.49779705  0.02695719  0.49725020
   0.50663895  0.54772492  0.98394831
Direct configuration=     4
   0.97694044  0.30363889  0.28755876
   0.97166820  0.80994400  0.80395796
   0.02918548  0.32194806  0.68434764
   0.01604196  0.80050683  0.18631862
   0.18277984  0.21482973  0.97361546
   0.28216359  0.69597145  0.01658892
   0.82635896  0.14909450  0.03793798
   0.72329094  0.74160422  0.97862623
   0.22362262  0.98158551  0.18049168
   0.18885938  0.01892500  0.78648324
   0.69246346  0.95561920  0.67133999
   0.69968939  0.01548818  0.33117622
   0.32769569  0.83447873  0.46313778
   0.28180990  0.20616723  0.51244969
   0.83309654  0.66012327  0.52791767
   0.78512381  0.30134850  0.47988038
   0.31794029  0.46506903  0.80255701
   0.17648133  0.54681545  0.34470194
   0.67946021  0.45400190  0.17807480
   0.70980161  0.50315329  0.81044707
   0.47500010  0.18024068  0.71193672
   0.47520469  0.69634054  0.20978268
   0.51701030  0.20662476  0.29758161
   0.51768334  0.71652362  0.77305287
   0.49588902  0.49903788  0.49791702
   0.50305092  0.00445051  0.99719757
   0.00199886  0.49438065  0.99836841
   0.00041830  0.99109163  0.49286513
   0.12491621  0.86648382  0.61068197
   0.11698171  0.11203481  0.36256023
   0.87584795  0.86128222  0.38084782
   0.88261537  0.11311400  0.62025094
   0.87274022  0.61202686  0.11952293
   0.88720696  0.35174817  0.89118113
   0.11311492  0.61131344  0.86034661
   0.13914248  0.39776219  0.12692597
   0.64176295  0.10348302  0.87209451
   0.61385753  0.88699479  0.13544899
   0.38511583  0.14519702  0.10214535
   0.37615790  0.88396758  0.87623984
   0.63063849  0.61052498  0.37876142
   0.60593012  0.37332677  0.62968396
   0.36575296  0.62416536  0.60866764
   0.37261582  0.38602522  0.36783337
   0.75188709  0.73356914  0.74494530
   0.74923441  0.23687172  0.25169234
   0.24722395  0.75537014  0.24557364
   0.24778825  0.24429576  0.74458776
   0.02916633  0.99117908  0.99548146
   0.98243492  0.46339891  0.48597854
   0.49779738  0.02695590  0.49725032
   0.50663751  0.54772204  0.98395026
Direct configuration=     5
   0.97694000  0.30364212  0.28755791
   0.97166906  0.80994480  0.80395581
   0.02918564  0.32194899  0.68434830
   0.01604229  0.80050618  0.18631807
   0.18277226  0.21482860  0.97361431
   0.28216274  0.69596796  0.01658972
   0.82635729  0.14909255  0.03793901
   0.72329509  0.74161039  0.97862629
   0.22362340  0.98158543  0.18049072
   0.18886108  0.01892377  0.78648260
   0.69246365  0.95561803  0.67133778
   0.69968984  0.01548944  0.33117810
   0.32769810  0.83447819  0.46313806
   0.28180853  0.20616916  0.51244923
   0.83309802  0.66012400  0.52791785
   0.78512413  0.30134954  0.47988099
   0.31794169  0.46506727  0.80255972
   0.17648308  0.54681685  0.34470586
   0.67945752  0.45400222  0.17807466
   0.70980179  0.50315262  0.81045048
   0.47500031  0.18023958  0.71193552
   0.47520507  0.69634007  0.20978266
   0.51700941  0.20662291  0.29757964
   0.51768348  0.71652177  0.77305395
   0.49589094  0.49903792  0.49791790
   0.50304988  0.00445031  0.99719384
   0.00199810  0.49438079  0.99836660
   0.00041857  0.99109275  0.49286415
   0.12491786  0.86648436  0.61068040
   0.11698175  0.11203683  0.36255790
   0.87584830  0.86128292  0.38084669
   0.88261571  0.11311457  0.62025046
   0.87273899  0.61202678  0.11952317
   0.88720817  0.35174664  0.89118293
   0.11311415  0.61131289  0.86034527
   0.13914556  0.39776325  0.12692706
   0.64176221  0.10348073  0.87209385
   0.61385695  0.88699547  0.13545133
   0.38511313  0.14520006  0.10214290
   0.37615749  0.88396576  0.87624126
   0.63063866  0.61052579  0.37876273
   0.60593012  0.37332720  0.62968493
   0.36575174  0.62416457  0.60866874
   0.37261618  0.38602420  0.36783140
   0.75188723  0.73356834  0.74494564
   0.74923397  0.23687290  0.25169289
   0.24722425  0.75537055  0.24557405
   0.24778819  0.24429488  0.74458782
   0.02916502  0.99117730  0.99548061
   0.98243607  0.46339965  0.48597920
   0.49779804  0.02695538  0.49725033
   0.50663575  0.54772091  0.98395206
Direct configuration=     6
   0.97693954  0.30364537  0.28755705
   0.97166992  0.80994561  0.80395364
   0.02918579  0.32194992  0.68434896
   0.01604262  0.80050553  0.18631752
   0.18276464  0.21482747  0.97361316
   0.28216188  0.69596445  0.01659053
   0.82635562  0.14909059  0.03794004
   0.72329926  0.74161660  0.97862635
   0.22362419  0.98158534  0.18048977
   0.18886279  0.01892254  0.78648196
   0.69246383  0.95561685  0.67133556
   0.69969029  0.01549071  0.33117998
   0.32770053  0.83447765  0.46313834
   0.28180716  0.20617109  0.51244876
   0.83309951  0.66012473  0.52791804
   0.78512444  0.30135059  0.47988161
   0.31794309  0.46506551  0.80256245
   0.17648483  0.54681827  0.34470980
   0.67945483  0.45400253  0.17807452
   0.70980197  0.50315195  0.81045391
   0.47500053  0.18023847  0.71193430
   0.47520546  0.69633960  0.20978264
   0.51700851  0.20662106  0.29757766
   0.51768363  0.71651992  0.77305503
   0.49589288  0.49903796  0.49791878
   0.50304883  0.00445011  0.99719009
   0.00199734  0.49438093  0.99836478
   0.00041884  0.99109387  0.49286317
   0.12491952  0.86648489  0.61067882
   0.11698178  0.11203887  0.36255556
   0.87584866  0.86128363  0.38084555
   0.88261604  0.11311515  0.62024997
   0.87273776  0.61202669  0.11952342
   0.88720938  0.35174509  0.89118474
   0.11311337  0.61131233  0.86034392
   0.13914864  0.39776432  0.12692815
   0.64176147  0.10347842  0.87209319
   0.61385637  0.88699616  0.13545368
   0.38511042  0.14520313  0.10214044
   0.37615708  0.88396393  0.87624268
   0.63063884  0.61052662  0.37876403
   0.60593011  0.37332764  0.62968592
   0.36575052  0.62416377  0.60866985
   0.37261655  0.38602319  0.36782942
   0.75188738  0.73356754  0.74494599
   0.74923353  0.23687408  0.25169343
   0.24722454  0.75537096  0.24557447
   0.24778813  0.24429400  0.74458788
   0.02916372  0.99117552  0.99547976
   0.98243722  0.46340040  0.48597986
   0.49779870  0.02695486  0.49725034
   0.50663398  0.54771977  0.98395388
