  52  52   0   4
  0.1721303E+02  0.9637259E-09  0.9637259E-09  0.9637259E-09  0.2000000E-15
  1.000000000000000E-004
  CAR 
 unknown system                          
     12.68613895    -45.42318093  301      2.63806905      1.00000000
    -45.423  0.0000E+00  0.0000E+00  0.0000E+00  0.0000E+00
    -45.229  0.0000E+00  0.0000E+00  0.0000E+00  0.0000E+00
    -45.036  0.0000E+00  0.0000E+00  0.0000E+00  0.0000E+00
    -44.842  0.0000E+00  0.0000E+00  0.0000E+00  0.0000E+00
    -44.648  0.0000E+00  0.0000E+00  0.0000E+00  0.0000E+00
    -44.455  0.0000E+00  0.0000E+00  0.0000E+00  0.0000E+00
    -44.261  0.0000E+00  0.0000E+00  0.0000E+00  0.0000E+00
    -44.067  0.0000E+00  0.0000E+00  0.0000E+00  0.0000E+00
    -43.874  0.0000E+00  0.0000E+00  0.0000E+00  0.0000E+00
    -43.680  0.0000E+00  0.0000E+00  0.0000E+00  0.0000E+00
    -43.486  0.0000E+00  0.0000E+00  0.0000E+00  0.0000E+00
    -43.293  0.0000E+00  0.0000E+00  0.0000E+00  0.0000E+00
    -43.099  0.0000E+00  0.0000E+00  0.0000E+00  0.0000E+00
    -42.905  0.1610E-10  0.1610E-10  0.3119E-11  0.3119E-11
    -42.711  0.1051E-01  0.1051E-01  0.2036E-02  0.2036E-02
    -42.518  0.9456E-02  0.9456E-02  0.3875E-02  0.3875E-02
    -42.324  0.5220E-01  0.5220E-01  0.1399E-01  0.1399E-01
    -42.130  0.3371E-01  0.3371E-01  0.2052E-01  0.2052E-01
    -41.937  0.1749E-01  0.1749E-01  0.2391E-01  0.2391E-01
    -41.743  0.4658E-03  0.4658E-03  0.2400E-01  0.2400E-01
    -41.549  0.0000E+00  0.0000E+00  0.2400E-01  0.2400E-01
    -41.356  0.0000E+00  0.0000E+00  0.2400E-01  0.2400E-01
    -41.162  0.0000E+00  0.0000E+00  0.2400E-01  0.2400E-01
    -40.968  0.0000E+00  0.0000E+00  0.2400E-01  0.2400E-01
    -40.774  0.0000E+00  0.0000E+00  0.2400E-01  0.2400E-01
    -40.581  0.0000E+00  0.0000E+00  0.2400E-01  0.2400E-01
    -40.387  0.0000E+00  0.0000E+00  0.2400E-01  0.2400E-01
    -40.193  0.0000E+00  0.0000E+00  0.2400E-01  0.2400E-01
    -40.000  0.0000E+00  0.0000E+00  0.2400E-01  0.2400E-01
    -39.806  0.0000E+00  0.0000E+00  0.2400E-01  0.2400E-01
    -39.612  0.0000E+00  0.0000E+00  0.2400E-01  0.2400E-01
    -39.419  0.0000E+00  0.0000E+00  0.2400E-01  0.2400E-01
    -39.225  0.0000E+00  0.0000E+00  0.2400E-01  0.2400E-01
    -39.031  0.0000E+00  0.0000E+00  0.2400E-01  0.2400E-01
    -38.837  0.0000E+00  0.0000E+00  0.2400E-01  0.2400E-01
    -38.644  0.0000E+00  0.0000E+00  0.2400E-01  0.2400E-01
    -38.450  0.0000E+00  0.0000E+00  0.2400E-01  0.2400E-01
    -38.256  0.0000E+00  0.0000E+00  0.2400E-01  0.2400E-01
    -38.063  0.0000E+00  0.0000E+00  0.2400E-01  0.2400E-01
    -37.869  0.0000E+00  0.0000E+00  0.2400E-01  0.2400E-01
    -37.675  0.0000E+00  0.0000E+00  0.2400E-01  0.2400E-01
    -37.482  0.0000E+00  0.0000E+00  0.2400E-01  0.2400E-01
    -37.288  0.0000E+00  0.0000E+00  0.2400E-01  0.2400E-01
    -37.094  0.0000E+00  0.0000E+00  0.2400E-01  0.2400E-01
    -36.900  0.0000E+00  0.0000E+00  0.2400E-01  0.2400E-01
    -36.707  0.0000E+00  0.0000E+00  0.2400E-01  0.2400E-01
    -36.513  0.0000E+00  0.0000E+00  0.2400E-01  0.2400E-01
    -36.319  0.0000E+00  0.0000E+00  0.2400E-01  0.2400E-01
    -36.126  0.0000E+00  0.0000E+00  0.2400E-01  0.2400E-01
    -35.932  0.0000E+00  0.0000E+00  0.2400E-01  0.2400E-01
    -35.738  0.0000E+00  0.0000E+00  0.2400E-01  0.2400E-01
    -35.545  0.0000E+00  0.0000E+00  0.2400E-01  0.2400E-01
    -35.351  0.0000E+00  0.0000E+00  0.2400E-01  0.2400E-01
    -35.157  0.0000E+00  0.0000E+00  0.2400E-01  0.2400E-01
    -34.964  0.0000E+00  0.0000E+00  0.2400E-01  0.2400E-01
    -34.770  0.0000E+00  0.0000E+00  0.2400E-01  0.2400E-01
    -34.576  0.0000E+00  0.0000E+00  0.2400E-01  0.2400E-01
    -34.382  0.0000E+00  0.0000E+00  0.2400E-01  0.2400E-01
    -34.189  0.0000E+00  0.0000E+00  0.2400E-01  0.2400E-01
    -33.995  0.0000E+00  0.0000E+00  0.2400E-01  0.2400E-01
    -33.801  0.0000E+00  0.0000E+00  0.2400E-01  0.2400E-01
    -33.608  0.0000E+00  0.0000E+00  0.2400E-01  0.2400E-01
    -33.414  0.0000E+00  0.0000E+00  0.2400E-01  0.2400E-01
    -33.220  0.0000E+00  0.0000E+00  0.2400E-01  0.2400E-01
    -33.027  0.0000E+00  0.0000E+00  0.2400E-01  0.2400E-01
    -32.833  0.0000E+00  0.0000E+00  0.2400E-01  0.2400E-01
    -32.639  0.0000E+00  0.0000E+00  0.2400E-01  0.2400E-01
    -32.445  0.0000E+00  0.0000E+00  0.2400E-01  0.2400E-01
    -32.252  0.0000E+00  0.0000E+00  0.2400E-01  0.2400E-01
    -32.058  0.0000E+00  0.0000E+00  0.2400E-01  0.2400E-01
    -31.864  0.0000E+00  0.0000E+00  0.2400E-01  0.2400E-01
    -31.671  0.0000E+00  0.0000E+00  0.2400E-01  0.2400E-01
    -31.477  0.0000E+00  0.0000E+00  0.2400E-01  0.2400E-01
    -31.283  0.0000E+00  0.0000E+00  0.2400E-01  0.2400E-01
    -31.090  0.0000E+00  0.0000E+00  0.2400E-01  0.2400E-01
    -30.896  0.0000E+00  0.0000E+00  0.2400E-01  0.2400E-01
    -30.702  0.0000E+00  0.0000E+00  0.2400E-01  0.2400E-01
    -30.508  0.0000E+00  0.0000E+00  0.2400E-01  0.2400E-01
    -30.315  0.0000E+00  0.0000E+00  0.2400E-01  0.2400E-01
    -30.121  0.0000E+00  0.0000E+00  0.2400E-01  0.2400E-01
    -29.927  0.0000E+00  0.0000E+00  0.2400E-01  0.2400E-01
    -29.734  0.0000E+00  0.0000E+00  0.2400E-01  0.2400E-01
    -29.540  0.0000E+00  0.0000E+00  0.2400E-01  0.2400E-01
    -29.346  0.0000E+00  0.0000E+00  0.2400E-01  0.2400E-01
    -29.153  0.0000E+00  0.0000E+00  0.2400E-01  0.2400E-01
    -28.959  0.0000E+00  0.0000E+00  0.2400E-01  0.2400E-01
    -28.765  0.0000E+00  0.0000E+00  0.2400E-01  0.2400E-01
    -28.571  0.0000E+00  0.0000E+00  0.2400E-01  0.2400E-01
    -28.378  0.0000E+00  0.0000E+00  0.2400E-01  0.2400E-01
    -28.184  0.0000E+00  0.0000E+00  0.2400E-01  0.2400E-01
    -27.990  0.0000E+00  0.0000E+00  0.2400E-01  0.2400E-01
    -27.797  0.0000E+00  0.0000E+00  0.2400E-01  0.2400E-01
    -27.603  0.0000E+00  0.0000E+00  0.2400E-01  0.2400E-01
    -27.409  0.0000E+00  0.0000E+00  0.2400E-01  0.2400E-01
    -27.216  0.0000E+00  0.0000E+00  0.2400E-01  0.2400E-01
    -27.022  0.0000E+00  0.0000E+00  0.2400E-01  0.2400E-01
    -26.828  0.0000E+00  0.0000E+00  0.2400E-01  0.2400E-01
    -26.635  0.0000E+00  0.0000E+00  0.2400E-01  0.2400E-01
    -26.441  0.0000E+00  0.0000E+00  0.2400E-01  0.2400E-01
    -26.247  0.0000E+00  0.0000E+00  0.2400E-01  0.2400E-01
    -26.053  0.0000E+00  0.0000E+00  0.2400E-01  0.2400E-01
    -25.860  0.0000E+00  0.0000E+00  0.2400E-01  0.2400E-01
    -25.666  0.0000E+00  0.0000E+00  0.2400E-01  0.2400E-01
    -25.472  0.0000E+00  0.0000E+00  0.2400E-01  0.2400E-01
    -25.279  0.0000E+00  0.0000E+00  0.2400E-01  0.2400E-01
    -25.085  0.0000E+00  0.0000E+00  0.2400E-01  0.2400E-01
    -24.891  0.0000E+00  0.0000E+00  0.2400E-01  0.2400E-01
    -24.698  0.0000E+00  0.0000E+00  0.2400E-01  0.2400E-01
    -24.504  0.0000E+00  0.0000E+00  0.2400E-01  0.2400E-01
    -24.310  0.0000E+00  0.0000E+00  0.2400E-01  0.2400E-01
    -24.116  0.0000E+00  0.0000E+00  0.2400E-01  0.2400E-01
    -23.923  0.0000E+00  0.0000E+00  0.2400E-01  0.2400E-01
    -23.729  0.0000E+00  0.0000E+00  0.2400E-01  0.2400E-01
    -23.535  0.0000E+00  0.0000E+00  0.2400E-01  0.2400E-01
    -23.342  0.0000E+00  0.0000E+00  0.2400E-01  0.2400E-01
    -23.148  0.0000E+00  0.0000E+00  0.2400E-01  0.2400E-01
    -22.954  0.0000E+00  0.0000E+00  0.2400E-01  0.2400E-01
    -22.761  0.0000E+00  0.0000E+00  0.2400E-01  0.2400E-01
    -22.567  0.0000E+00  0.0000E+00  0.2400E-01  0.2400E-01
    -22.373  0.0000E+00  0.0000E+00  0.2400E-01  0.2400E-01
    -22.179  0.0000E+00  0.0000E+00  0.2400E-01  0.2400E-01
    -21.986  0.0000E+00  0.0000E+00  0.2400E-01  0.2400E-01
    -21.792  0.0000E+00  0.0000E+00  0.2400E-01  0.2400E-01
    -21.598  0.0000E+00  0.0000E+00  0.2400E-01  0.2400E-01
    -21.405  0.0000E+00  0.0000E+00  0.2400E-01  0.2400E-01
    -21.211  0.0000E+00  0.0000E+00  0.2400E-01  0.2400E-01
    -21.017  0.0000E+00  0.0000E+00  0.2400E-01  0.2400E-01
    -20.824  0.0000E+00  0.0000E+00  0.2400E-01  0.2400E-01
    -20.630  0.0000E+00  0.0000E+00  0.2400E-01  0.2400E-01
    -20.436  0.0000E+00  0.0000E+00  0.2400E-01  0.2400E-01
    -20.242  0.0000E+00  0.0000E+00  0.2400E-01  0.2400E-01
    -20.049  0.0000E+00  0.0000E+00  0.2400E-01  0.2400E-01
    -19.855  0.0000E+00  0.0000E+00  0.2400E-01  0.2400E-01
    -19.661  0.0000E+00  0.0000E+00  0.2400E-01  0.2400E-01
    -19.468  0.0000E+00  0.0000E+00  0.2400E-01  0.2400E-01
    -19.274  0.0000E+00  0.0000E+00  0.2400E-01  0.2400E-01
    -19.080  0.0000E+00  0.0000E+00  0.2400E-01  0.2400E-01
    -18.887  0.0000E+00  0.0000E+00  0.2400E-01  0.2400E-01
    -18.693  0.0000E+00  0.0000E+00  0.2400E-01  0.2400E-01
    -18.499  0.0000E+00  0.0000E+00  0.2400E-01  0.2400E-01
    -18.305  0.0000E+00  0.0000E+00  0.2400E-01  0.2400E-01
    -18.112  0.0000E+00  0.0000E+00  0.2400E-01  0.2400E-01
    -17.918  0.0000E+00  0.0000E+00  0.2400E-01  0.2400E-01
    -17.724  0.0000E+00  0.0000E+00  0.2400E-01  0.2400E-01
    -17.531  0.0000E+00  0.0000E+00  0.2400E-01  0.2400E-01
    -17.337  0.0000E+00  0.0000E+00  0.2400E-01  0.2400E-01
    -17.143  0.0000E+00  0.0000E+00  0.2400E-01  0.2400E-01
    -16.950  0.0000E+00  0.0000E+00  0.2400E-01  0.2400E-01
    -16.756  0.0000E+00  0.0000E+00  0.2400E-01  0.2400E-01
    -16.562  0.0000E+00  0.0000E+00  0.2400E-01  0.2400E-01
    -16.369  0.0000E+00  0.0000E+00  0.2400E-01  0.2400E-01
    -16.175  0.0000E+00  0.0000E+00  0.2400E-01  0.2400E-01
    -15.981  0.0000E+00  0.0000E+00  0.2400E-01  0.2400E-01
    -15.787  0.0000E+00  0.0000E+00  0.2400E-01  0.2400E-01
    -15.594  0.0000E+00  0.0000E+00  0.2400E-01  0.2400E-01
    -15.400  0.0000E+00  0.0000E+00  0.2400E-01  0.2400E-01
    -15.206  0.0000E+00  0.0000E+00  0.2400E-01  0.2400E-01
    -15.013  0.0000E+00  0.0000E+00  0.2400E-01  0.2400E-01
    -14.819  0.0000E+00  0.0000E+00  0.2400E-01  0.2400E-01
    -14.625  0.0000E+00  0.0000E+00  0.2400E-01  0.2400E-01
    -14.432  0.0000E+00  0.0000E+00  0.2400E-01  0.2400E-01
    -14.238  0.0000E+00  0.0000E+00  0.2400E-01  0.2400E-01
    -14.044  0.0000E+00  0.0000E+00  0.2400E-01  0.2400E-01
    -13.850  0.0000E+00  0.0000E+00  0.2400E-01  0.2400E-01
    -13.657  0.0000E+00  0.0000E+00  0.2400E-01  0.2400E-01
    -13.463  0.0000E+00  0.0000E+00  0.2400E-01  0.2400E-01
    -13.269  0.1992E-16  0.1992E-16  0.2400E-01  0.2400E-01
    -13.076  0.4713E-02  0.4713E-02  0.2491E-01  0.2491E-01
    -12.882  0.6206E-02  0.6206E-02  0.2611E-01  0.2611E-01
    -12.688  0.2001E-01  0.2001E-01  0.2999E-01  0.2999E-01
    -12.495  0.1036E-01  0.1036E-01  0.3200E-01  0.3200E-01
    -12.301  0.0000E+00  0.0000E+00  0.3200E-01  0.3200E-01
    -12.107  0.0000E+00  0.0000E+00  0.3200E-01  0.3200E-01
    -11.913  0.0000E+00  0.0000E+00  0.3200E-01  0.3200E-01
    -11.720  0.0000E+00  0.0000E+00  0.3200E-01  0.3200E-01
    -11.526  0.0000E+00  0.0000E+00  0.3200E-01  0.3200E-01
    -11.332  0.0000E+00  0.0000E+00  0.3200E-01  0.3200E-01
    -11.139  0.0000E+00  0.0000E+00  0.3200E-01  0.3200E-01
    -10.945  0.0000E+00  0.0000E+00  0.3200E-01  0.3200E-01
    -10.751  0.0000E+00  0.0000E+00  0.3200E-01  0.3200E-01
    -10.558  0.0000E+00  0.0000E+00  0.3200E-01  0.3200E-01
    -10.364  0.1308E-06  0.1308E-06  0.3200E-01  0.3200E-01
    -10.170  0.1494E-01  0.1494E-01  0.3489E-01  0.3489E-01
     -9.976  0.1077E-01  0.1077E-01  0.3698E-01  0.3698E-01
     -9.783  0.2914E-01  0.2914E-01  0.4262E-01  0.4262E-01
     -9.589  0.7098E-02  0.7098E-02  0.4400E-01  0.4400E-01
     -9.395  0.0000E+00  0.0000E+00  0.4400E-01  0.4400E-01
     -9.202  0.0000E+00  0.0000E+00  0.4400E-01  0.4400E-01
     -9.008  0.0000E+00  0.0000E+00  0.4400E-01  0.4400E-01
     -8.814  0.4299E-18  0.4299E-18  0.4400E-01  0.4400E-01
     -8.621  0.4211E-02  0.4211E-02  0.4482E-01  0.4482E-01
     -8.427  0.9514E-03  0.9514E-03  0.4500E-01  0.4500E-01
     -8.233  0.7254E-02  0.7254E-02  0.4641E-01  0.4641E-01
     -8.040  0.3071E-02  0.3071E-02  0.4700E-01  0.4700E-01
     -7.846  0.0000E+00  0.0000E+00  0.4700E-01  0.4700E-01
     -7.652  0.4780E-07  0.4780E-07  0.4700E-01  0.4700E-01
     -7.458  0.5163E-02  0.5163E-02  0.4800E-01  0.4800E-01
     -7.265  0.0000E+00  0.0000E+00  0.4800E-01  0.4800E-01
     -7.071  0.0000E+00  0.0000E+00  0.4800E-01  0.4800E-01
     -6.877  0.0000E+00  0.0000E+00  0.4800E-01  0.4800E-01
     -6.684  0.0000E+00  0.0000E+00  0.4800E-01  0.4800E-01
     -6.490  0.0000E+00  0.0000E+00  0.4800E-01  0.4800E-01
     -6.296  0.0000E+00  0.0000E+00  0.4800E-01  0.4800E-01
     -6.103  0.1500E-03  0.1500E-03  0.4803E-01  0.4803E-01
     -5.909  0.5013E-02  0.5013E-02  0.4900E-01  0.4900E-01
     -5.715  0.2470E-03  0.2470E-03  0.4905E-01  0.4905E-01
     -5.521  0.9368E-02  0.9368E-02  0.5086E-01  0.5086E-01
     -5.328  0.5873E-02  0.5873E-02  0.5200E-01  0.5200E-01
     -5.134  0.0000E+00  0.0000E+00  0.5200E-01  0.5200E-01
     -4.940  0.0000E+00  0.0000E+00  0.5200E-01  0.5200E-01
     -4.747  0.0000E+00  0.0000E+00  0.5200E-01  0.5200E-01
     -4.553  0.0000E+00  0.0000E+00  0.5200E-01  0.5200E-01
     -4.359  0.0000E+00  0.0000E+00  0.5200E-01  0.5200E-01
     -4.166  0.0000E+00  0.0000E+00  0.5200E-01  0.5200E-01
     -3.972  0.0000E+00  0.0000E+00  0.5200E-01  0.5200E-01
     -3.778  0.0000E+00  0.0000E+00  0.5200E-01  0.5200E-01
     -3.584  0.0000E+00  0.0000E+00  0.5200E-01  0.5200E-01
     -3.391  0.0000E+00  0.0000E+00  0.5200E-01  0.5200E-01
     -3.197  0.7328E-03  0.7328E-03  0.5214E-01  0.5214E-01
     -3.003  0.1476E-01  0.1476E-01  0.5500E-01  0.5500E-01
     -2.810  0.5757E-03  0.5757E-03  0.5511E-01  0.5511E-01
     -2.616  0.1289E-01  0.1289E-01  0.5761E-01  0.5761E-01
     -2.422  0.9111E-02  0.9111E-02  0.5938E-01  0.5938E-01
     -2.229  0.1791E-01  0.1791E-01  0.6285E-01  0.6285E-01
     -2.035  0.5930E-02  0.5930E-02  0.6400E-01  0.6400E-01
     -1.841  0.0000E+00  0.0000E+00  0.6400E-01  0.6400E-01
     -1.647  0.4584E-03  0.4584E-03  0.6409E-01  0.6409E-01
     -1.454  0.2450E-01  0.2450E-01  0.6883E-01  0.6883E-01
     -1.260  0.1658E-01  0.1658E-01  0.7205E-01  0.7205E-01
     -1.066  0.1788E-01  0.1788E-01  0.7552E-01  0.7552E-01
     -0.873  0.2491E-02  0.2491E-02  0.7600E-01  0.7600E-01
     -0.679  0.8177E-06  0.8176E-06  0.7600E-01  0.7600E-01
     -0.485  0.1011E-01  0.1011E-01  0.7796E-01  0.7796E-01
     -0.292  0.1012E-01  0.1012E-01  0.7992E-01  0.7992E-01
     -0.098  0.1357E-01  0.1357E-01  0.8256E-01  0.8256E-01
      0.096  0.2392E-01  0.2392E-01  0.8719E-01  0.8719E-01
      0.289  0.2266E-01  0.2266E-01  0.9159E-01  0.9159E-01
      0.483  0.1826E-01  0.1826E-01  0.9513E-01  0.9513E-01
      0.677  0.5588E-02  0.5588E-02  0.9621E-01  0.9621E-01
      0.871  0.1129E-01  0.1129E-01  0.9840E-01  0.9840E-01
      1.064  0.1856E-01  0.1856E-01  0.1020E+00  0.1020E+00
      1.258  0.2058E-01  0.2058E-01  0.1060E+00  0.1060E+00
      1.452  0.2068E-01  0.2068E-01  0.1100E+00  0.1100E+00
      1.645  0.2292E-01  0.2292E-01  0.1144E+00  0.1144E+00
      1.839  0.1269E-01  0.1269E-01  0.1169E+00  0.1169E+00
      2.033  0.1087E-01  0.1087E-01  0.1190E+00  0.1190E+00
      2.226  0.1294E-11  0.1294E-11  0.1190E+00  0.1190E+00
      2.420  0.5144E-02  0.5144E-02  0.1200E+00  0.1200E+00
      2.614  0.0000E+00  0.0000E+00  0.1200E+00  0.1200E+00
      2.808  0.0000E+00  0.0000E+00  0.1200E+00  0.1200E+00
      3.001  0.0000E+00  0.0000E+00  0.1200E+00  0.1200E+00
      3.195  0.0000E+00  0.0000E+00  0.1200E+00  0.1200E+00
      3.389  0.0000E+00  0.0000E+00  0.1200E+00  0.1200E+00
      3.582  0.0000E+00  0.0000E+00  0.1200E+00  0.1200E+00
      3.776  0.0000E+00  0.0000E+00  0.1200E+00  0.1200E+00
      3.970  0.0000E+00  0.0000E+00  0.1200E+00  0.1200E+00
      4.163  0.0000E+00  0.0000E+00  0.1200E+00  0.1200E+00
      4.357  0.7875E-12  0.7875E-12  0.1200E+00  0.1200E+00
      4.551  0.5081E-02  0.5081E-02  0.1210E+00  0.1210E+00
      4.745  0.6310E-04  0.6310E-04  0.1210E+00  0.1210E+00
      4.938  0.0000E+00  0.0000E+00  0.1210E+00  0.1210E+00
      5.132  0.4325E-13  0.4325E-13  0.1210E+00  0.1210E+00
      5.326  0.4601E-02  0.4601E-02  0.1219E+00  0.1219E+00
      5.519  0.1088E-01  0.1088E-01  0.1240E+00  0.1240E+00
      5.713  0.0000E+00  0.0000E+00  0.1240E+00  0.1240E+00
      5.907  0.5794E-05  0.5794E-05  0.1240E+00  0.1240E+00
      6.100  0.1093E-01  0.1093E-01  0.1261E+00  0.1261E+00
      6.294  0.1617E-01  0.1617E-01  0.1293E+00  0.1293E+00
      6.488  0.4248E-02  0.4248E-02  0.1301E+00  0.1301E+00
      6.682  0.1089E-01  0.1089E-01  0.1322E+00  0.1322E+00
      6.875  0.8554E-02  0.8554E-02  0.1338E+00  0.1338E+00
      7.069  0.1113E-01  0.1113E-01  0.1360E+00  0.1360E+00
      7.263  0.5159E-02  0.5159E-02  0.1370E+00  0.1370E+00
      7.456  0.3393E-02  0.3393E-02  0.1377E+00  0.1377E+00
      7.650  0.1276E-01  0.1276E-01  0.1401E+00  0.1401E+00
      7.844  0.1365E-01  0.1365E-01  0.1428E+00  0.1428E+00
      8.037  0.1042E-01  0.1042E-01  0.1448E+00  0.1448E+00
      8.231  0.1371E-01  0.1371E-01  0.1475E+00  0.1475E+00
      8.425  0.1445E-01  0.1445E-01  0.1503E+00  0.1503E+00
      8.618  0.1255E-01  0.1255E-01  0.1527E+00  0.1527E+00
      8.812  0.1540E-01  0.1540E-01  0.1557E+00  0.1557E+00
      9.006  0.1568E-01  0.1568E-01  0.1587E+00  0.1587E+00
      9.200  0.1730E-01  0.1730E-01  0.1621E+00  0.1621E+00
      9.393  0.1851E-01  0.1851E-01  0.1656E+00  0.1656E+00
      9.587  0.1824E-01  0.1823E-01  0.1692E+00  0.1692E+00
      9.781  0.1679E-01  0.1682E-01  0.1724E+00  0.1724E+00
      9.974  0.1423E-01  0.1413E-01  0.1752E+00  0.1752E+00
     10.168  0.4139E-02  0.4216E-02  0.1760E+00  0.1760E+00
     10.362  0.0000E+00  0.0000E+00  0.1760E+00  0.1760E+00
     10.555  0.0000E+00  0.0000E+00  0.1760E+00  0.1760E+00
     10.749  0.0000E+00  0.0000E+00  0.1760E+00  0.1760E+00
     10.943  0.0000E+00  0.0000E+00  0.1760E+00  0.1760E+00
     11.137  0.0000E+00  0.0000E+00  0.1760E+00  0.1760E+00
     11.330  0.0000E+00  0.0000E+00  0.1760E+00  0.1760E+00
     11.524  0.0000E+00  0.0000E+00  0.1760E+00  0.1760E+00
     11.718  0.0000E+00  0.0000E+00  0.1760E+00  0.1760E+00
     11.911  0.0000E+00  0.0000E+00  0.1760E+00  0.1760E+00
     12.105  0.0000E+00  0.0000E+00  0.1760E+00  0.1760E+00
     12.299  0.0000E+00  0.0000E+00  0.1760E+00  0.1760E+00
     12.492  0.0000E+00  0.0000E+00  0.1760E+00  0.1760E+00
     12.686  0.0000E+00  0.0000E+00  0.1760E+00  0.1760E+00
