 vasp.6.4.1 05Apr23 (build Jun 07 2023 15:38:11) complex                        
  
 executed on             LinuxIFC date 2023.10.24  22:52:23
 running  128 mpi-ranks, with    1 threads/rank, on    1 nodes
 distrk:  each k-point on  128 cores,    1 groups
 distr:  one band on NCORE=  32 cores,    4 groups


--------------------------------------------------------------------------------------------------------


 INCAR:
   GGA = PE
   PREC = Accu
   EDIFF = 1.e-6
   EDIFFG = -1.e-3
   ENCUT = 520.
   NELM = 100
   NELMDL = -10
   LASPH = .TRUE.
   LREAL = Auto
   LMAXMIX = 4
   ISPIN = 2
   LDIAG = .TRUE.
   LPLANE = .TRUE.
   IVDW = 12
   SIGMA = 0.03
   ISMEAR = 0
   NSW = 1000    number of steps for IOM
   IBRION = 2    ionic relax: 0-MD 1-quasi-New 2-CG
   ISIF = 2    ionic relaxation + stress tensor calcn.
   LCHARG = .FALSE.
   LWAVE = .FALSE.
   ALGO = F
   KPAR = 1
   NPAR = 4
   POTIM = 0.2

 POTCAR:    PAW_PBE Li_sv_GW 25Mar2010            
 POTCAR:    PAW_PBE P_GW 19Mar2012                
 POTCAR:    PAW_PBE S_GW 19Mar2012                
 POTCAR:    PAW_PBE Cl_GW 19Mar2012               
 -----------------------------------------------------------------------------
|                                                                             |
|           W    W    AA    RRRRR   N    N  II  N    N   GGGG   !!!           |
|           W    W   A  A   R    R  NN   N  II  NN   N  G    G  !!!           |
|           W    W  A    A  R    R  N N  N  II  N N  N  G       !!!           |
|           W WW W  AAAAAA  RRRRR   N  N N  II  N  N N  G  GGG   !            |
|           WW  WW  A    A  R   R   N   NN  II  N   NN  G    G                |
|           W    W  A    A  R    R  N    N  II  N    N   GGGG   !!!           |
|                                                                             |
|     You use a magnetic or noncollinear calculation, but did not specify     |
|     the initial magnetic moment with the MAGMOM tag. Note that a            |
|     default of 1 will be used for all atoms. This ferromagnetic setup       |
|     may break the symmetry of the crystal, in particular it may rule        |
|     out finding an antiferromagnetic solution. Thence, we recommend         |
|     setting the initial magnetic moment manually or verifying carefully     |
|     that this magnetic setup is desired.                                    |
|                                                                             |
 -----------------------------------------------------------------------------

 POTCAR:    PAW_PBE Li_sv_GW 25Mar2010            
   SHA256 =  24a6ace15a582615486b36ce4dc781b048409f4015b7684ed1273ae395fa2fdc Li_sv_GW/POTCAR       
   COPYR  = (c) Copyright 25Mar2010 Georg Kresse                                                    
   COPYR  = This file is part of the software VASP. Any use, copying, and all other rights are regul
   COPYR  = If you do not have a valid VASP license, you may not use, copy or distribute this file. 
   VRHFIN =Li: 1s2s                                                                                 
   LEXCH  = PE                                                                                      
   EATOM  =   200.9989 eV,   14.7730 Ry                                                             
                                                                                                    
   TITEL  = PAW_PBE Li_sv_GW 25Mar2010                                                              
   LULTRA =        F    use ultrasoft PP ?                                                          
   IUNSCR =        0    unscreen: 0-lin 1-nonlin 2-no                                               
   RPACOR =    0.000    partial core radius                                                         
   POMASS =    7.010; ZVAL   =    3.000    mass and valenz                                          
   RCORE  =    1.500    outmost cutoff radius                                                       
   RWIGS  =    1.600; RWIGS  =    0.847    wigner-seitz radius (au A)                               
   ENMAX  =  433.699; ENMIN  =  325.274 eV                                                          
   RCLOC  =    1.003    cutoff for local pot                                                        
   LCOR   =        T    correct aug charges                                                         
   LPAW   =        T    paw PP                                                                      
   EAUG   = 1041.699                                                                                
   RMAX   =    1.536    core radius for proj-oper                                                   
   RAUG   =    1.300    factor for augmentation sphere                                              
   RDEP   =    1.520    radius for radial grids                                                     
   RDEPT  =    1.300    core radius for aug-charge                                                  
                                                                                                    
   Atomic configuration                                                                             
    4 entries                                                                                       
     n  l   j            E        occ.                                                              
     1  0  0.50       -53.3604   2.0000                                                             
     1  0  0.50       -52.0001   0.0000                                                             
     2  1  0.50        -1.5636   1.0000                                                             
     3  2  1.50        -1.3606   0.0000                                                             
   Description                                                                                      
     l       E           TYP  RCUT    TYP  RCUT                                                     
     0    -53.3603633     23  1.200                                                                 
     0    -52.0001064     23  1.200                                                                 
     0    176.8757380     23  1.300                                                                 
     1     -1.5635925     23  1.500                                                                 
     1    108.8466080     23  1.500                                                                 
     2     81.6349560     23  1.500                                                                 
  local pseudopotential read in
  kinetic energy density of atom read in
  atomic valenz-charges read in
  non local Contribution for L=           0  read in
    real space projection operators read in
  non local Contribution for L=           0  read in
    real space projection operators read in
  non local Contribution for L=           0  read in
    real space projection operators read in
  non local Contribution for L=           1  read in
    real space projection operators read in
  non local Contribution for L=           1  read in
    real space projection operators read in
  non local Contribution for L=           2  read in
    real space projection operators read in
    PAW grid and wavefunctions read in
 
   number of l-projection  operators is LMAX  =           6
   number of lm-projection operators is LMMAX =          14
 
 POTCAR:    PAW_PBE P_GW 19Mar2012                
   SHA256 =  715c28f2291d37b61637ce89646c59f66f71c8b8d8bfba631e5feb9f7b42defe P_GW/POTCAR           
   COPYR  = (c) Copyright 19Mar2012 Georg Kresse                                                    
   COPYR  = This file is part of the software VASP. Any use, copying, and all other rights are regul
   COPYR  = If you do not have a valid VASP license, you may not use, copy or distribute this file. 
   VRHFIN =P : s2p3                                                                                 
   LEXCH  = PE                                                                                      
   EATOM  =   176.0430 eV,   12.9388 Ry                                                             
                                                                                                    
   TITEL  = PAW_PBE P_GW 19Mar2012                                                                  
   LULTRA =        F    use ultrasoft PP ?                                                          
   IUNSCR =        1    unscreen: 0-lin 1-nonlin 2-no                                               
   RPACOR =    1.400    partial core radius                                                         
   POMASS =   30.974; ZVAL   =    5.000    mass and valenz                                          
   RCORE  =    2.000    outmost cutoff radius                                                       
   RWIGS  =    1.900; RWIGS  =    1.005    wigner-seitz radius (au A)                               
   ENMAX  =  255.040; ENMIN  =  191.280 eV                                                          
   ICORE  =        3    local potential                                                             
   LCOR   =        T    correct aug charges                                                         
   LPAW   =        T    paw PP                                                                      
   EAUG   =  499.732                                                                                
   DEXC   =    0.000                                                                                
   RMAX   =    2.047    core radius for proj-oper                                                   
   RAUG   =    1.300    factor for augmentation sphere                                              
   RDEP   =    2.059    radius for radial grids                                                     
   RDEPT  =    1.900    core radius for aug-charge                                                  
                                                                                                    
   Atomic configuration                                                                             
    7 entries                                                                                       
     n  l   j            E        occ.                                                              
     1  0  0.50     -2084.0982   2.0000                                                             
     2  0  0.50      -173.9859   2.0000                                                             
     2  1  1.50      -124.4865   6.0000                                                             
     3  0  0.50       -13.9692   2.0000                                                             
     3  1  0.50        -5.5067   3.0000                                                             
     3  2  1.50        -6.8029   0.0000                                                             
     4  3  2.50        -1.3606   0.0000                                                             
   Description                                                                                      
     l       E           TYP  RCUT    TYP  RCUT                                                     
     0    -13.9691528     23  1.900                                                                 
     0    102.0436950     23  1.900                                                                 
     1     -5.5066939     23  1.900                                                                 
     1    102.0436950     23  1.900                                                                 
     2     -8.1634956     23  2.000                                                                 
     2     81.6349560     23  2.000                                                                 
     3     27.2116520     23  2.000                                                                 
  local pseudopotential read in
  partial core-charges read in
  partial kinetic energy density read in
  kinetic energy density of atom read in
  atomic valenz-charges read in
  non local Contribution for L=           0  read in
    real space projection operators read in
  non local Contribution for L=           0  read in
    real space projection operators read in
  non local Contribution for L=           1  read in
    real space projection operators read in
  non local Contribution for L=           1  read in
    real space projection operators read in
  non local Contribution for L=           2  read in
    real space projection operators read in
  non local Contribution for L=           2  read in
    real space projection operators read in
    PAW grid and wavefunctions read in
 
   number of l-projection  operators is LMAX  =           6
   number of lm-projection operators is LMMAX =          18
 
 POTCAR:    PAW_PBE S_GW 19Mar2012                
   SHA256 =  357db9cfb0783579b2eebe03197c2d807131fea8ea663b1fcfb6ce2fa75af011 S_GW/POTCAR           
   COPYR  = (c) Copyright 19Mar2012 Georg Kresse                                                    
   COPYR  = This file is part of the software VASP. Any use, copying, and all other rights are regul
   COPYR  = If you do not have a valid VASP license, you may not use, copy or distribute this file. 
   VRHFIN =S : s2p4                                                                                 
   LEXCH  = PE                                                                                      
   EATOM  =   276.8230 eV,   20.3459 Ry                                                             
                                                                                                    
   TITEL  = PAW_PBE S_GW 19Mar2012                                                                  
   LULTRA =        F    use ultrasoft PP ?                                                          
   IUNSCR =        1    unscreen: 0-lin 1-nonlin 2-no                                               
   RPACOR =    1.400    partial core radius                                                         
   POMASS =   32.066; ZVAL   =    6.000    mass and valenz                                          
   RCORE  =    1.900    outmost cutoff radius                                                       
   RWIGS  =    1.900; RWIGS  =    1.005    wigner-seitz radius (au A)                               
   ENMAX  =  258.689; ENMIN  =  194.016 eV                                                          
   ICORE  =        3    local potential                                                             
   LCOR   =        T    correct aug charges                                                         
   LPAW   =        T    paw PP                                                                      
   EAUG   =  488.319                                                                                
   DEXC   =    0.000                                                                                
   RMAX   =    1.942    core radius for proj-oper                                                   
   RAUG   =    1.300    factor for augmentation sphere                                              
   RDEP   =    1.954    radius for radial grids                                                     
   RDEPT  =    1.900    core radius for aug-charge                                                  
                                                                                                    
   Atomic configuration                                                                             
    7 entries                                                                                       
     n  l   j            E        occ.                                                              
     1  0  0.50     -2405.8406   2.0000                                                             
     2  0  0.50      -211.7007   2.0000                                                             
     2  1  1.50      -156.4958   6.0000                                                             
     3  0  0.50       -17.2562   2.0000                                                             
     3  1  0.50        -7.0085   4.0000                                                             
     3  2  1.50        -8.1635   0.0000                                                             
     4  3  2.50        -1.3606   0.0000                                                             
   Description                                                                                      
     l       E           TYP  RCUT    TYP  RCUT                                                     
     0    -17.2561639     23  1.700                                                                 
     0     88.4378690     23  1.900                                                                 
     1     -7.0085399     23  1.900                                                                 
     1     88.4378690     23  1.900                                                                 
     2    -10.8846608     23  1.900                                                                 
     2     54.4233040     23  1.900                                                                 
     3     27.2116520     23  1.800                                                                 
  local pseudopotential read in
  partial core-charges read in
  partial kinetic energy density read in
  kinetic energy density of atom read in
  atomic valenz-charges read in
  non local Contribution for L=           0  read in
    real space projection operators read in
  non local Contribution for L=           0  read in
    real space projection operators read in
  non local Contribution for L=           1  read in
    real space projection operators read in
  non local Contribution for L=           1  read in
    real space projection operators read in
  non local Contribution for L=           2  read in
    real space projection operators read in
  non local Contribution for L=           2  read in
    real space projection operators read in
    PAW grid and wavefunctions read in
 
   number of l-projection  operators is LMAX  =           6
   number of lm-projection operators is LMMAX =          18
 
 POTCAR:    PAW_PBE Cl_GW 19Mar2012               
   SHA256 =  3ef3b3169d6a9a89979f58b4cf17d927a58518fc660d8883d88cacaee8175441 Cl_GW/POTCAR          
   COPYR  = (c) Copyright 19Mar2012 Georg Kresse                                                    
   COPYR  = This file is part of the software VASP. Any use, copying, and all other rights are regul
   COPYR  = If you do not have a valid VASP license, you may not use, copy or distribute this file. 
   VRHFIN =Cl: s2p5                                                                                 
   LEXCH  = PE                                                                                      
   EATOM  =   409.7259 eV,   30.1140 Ry                                                             
                                                                                                    
   TITEL  = PAW_PBE Cl_GW 19Mar2012                                                                 
   LULTRA =        F    use ultrasoft PP ?                                                          
   IUNSCR =        1    unscreen: 0-lin 1-nonlin 2-no                                               
   RPACOR =    1.400    partial core radius                                                         
   POMASS =   35.453; ZVAL   =    7.000    mass and valenz                                          
   RCORE  =    1.900    outmost cutoff radius                                                       
   RWIGS  =    1.900; RWIGS  =    1.005    wigner-seitz radius (au A)                               
   ENMAX  =  262.472; ENMIN  =  196.854 eV                                                          
   ICORE  =        3    local potential                                                             
   LCOR   =        T    correct aug charges                                                         
   LPAW   =        T    paw PP                                                                      
   EAUG   =  456.703                                                                                
   DEXC   =    0.000                                                                                
   RMAX   =    1.945    core radius for proj-oper                                                   
   RAUG   =    1.300    factor for augmentation sphere                                              
   RDEP   =    2.020    radius for radial grids                                                     
   RDEPT  =    1.900    core radius for aug-charge                                                  
                                                                                                    
   Atomic configuration                                                                             
    7 entries                                                                                       
     n  l   j            E        occ.                                                              
     1  0  0.50     -2751.1850   2.0000                                                             
     2  0  0.50      -252.6861   2.0000                                                             
     2  1  1.50      -191.6157   6.0000                                                             
     3  0  0.50       -20.6916   2.0000                                                             
     3  1  0.50        -8.5949   5.0000                                                             
     3  2  1.50        -9.5241   0.0000                                                             
     4  3  2.50        -9.5241   0.0000                                                             
   Description                                                                                      
     l       E           TYP  RCUT    TYP  RCUT                                                     
     0    -20.6915657     23  1.700                                                                 
     0     95.2407820     23  1.800                                                                 
     1     -8.5948577     23  1.900                                                                 
     1     95.2407820     23  1.900                                                                 
     2    -10.8846608     23  1.900                                                                 
     2     54.4233040     23  1.900                                                                 
     3     27.2116520     23  1.900                                                                 
  local pseudopotential read in
  partial core-charges read in
  partial kinetic energy density read in
  kinetic energy density of atom read in
  atomic valenz-charges read in
  non local Contribution for L=           0  read in
    real space projection operators read in
  non local Contribution for L=           0  read in
    real space projection operators read in
  non local Contribution for L=           1  read in
    real space projection operators read in
  non local Contribution for L=           1  read in
    real space projection operators read in
  non local Contribution for L=           2  read in
    real space projection operators read in
  non local Contribution for L=           2  read in
    real space projection operators read in
    PAW grid and wavefunctions read in
 
   number of l-projection  operators is LMAX  =           6
   number of lm-projection operators is LMMAX =          18
 
 Optimization of the real space projectors (new method)

 maximal supplied QI-value         = 25.13
 optimisation between [QCUT,QGAM] = [ 11.56, 23.12] = [ 37.43,149.72] Ry 
 Optimized for a Real-space Cutoff    1.28 Angstroem

   l    n(q)    QCUT    max X(q) W(low)/X(q) W(high)/X(q)  e(spline) 
   0      9    11.561    87.733    0.11E-03    0.32E-04    0.56E-06
   0      9    11.561    82.800    0.11E-03    0.35E-04    0.56E-06
   0      9    11.561     2.509    0.22E-03    0.42E-04    0.79E-06
   1      8    11.561    12.580    0.94E-04    0.26E-03    0.21E-06
   1      8    11.561     1.319    0.33E-04    0.15E-03    0.19E-06
   2      8    11.561     1.993    0.36E-04    0.89E-04    0.26E-06
 Optimization of the real space projectors (new method)

 maximal supplied QI-value         = 18.90
 optimisation between [QCUT,QGAM] = [ 11.53, 23.24] = [ 37.21,151.29] Ry 
 Optimized for a Real-space Cutoff    1.21 Angstroem

   l    n(q)    QCUT    max X(q) W(low)/X(q) W(high)/X(q)  e(spline) 
   0      8    11.527     8.355    0.73E-04    0.70E-04    0.26E-07
   0      8    11.527     1.401    0.17E-03    0.17E-03    0.63E-07
   1      8    11.527     4.747    0.13E-03    0.17E-03    0.11E-06
   1      8    11.527     2.025    0.16E-03    0.18E-03    0.12E-06
   2      7    11.527     3.169    0.51E-04    0.25E-03    0.60E-07
   2      7    11.527     3.441    0.82E-04    0.22E-03    0.14E-06
 Optimization of the real space projectors (new method)

 maximal supplied QI-value         = 19.84
 optimisation between [QCUT,QGAM] = [ 11.51, 23.22] = [ 37.09,150.92] Ry 
 Optimized for a Real-space Cutoff    1.49 Angstroem

   l    n(q)    QCUT    max X(q) W(low)/X(q) W(high)/X(q)  e(spline) 
   0     10    11.508     7.541    0.34E-04    0.13E-04    0.69E-07
   0     10    11.508     1.809    0.49E-04    0.27E-04    0.14E-06
   1     10    11.508     4.107    0.27E-05    0.41E-05    0.14E-06
   1     10    11.508     2.196    0.26E-05    0.25E-05    0.22E-06
   2      9    11.508     4.265    0.18E-03    0.11E-03    0.81E-06
   2      9    11.508     1.925    0.97E-04    0.76E-04    0.47E-06
 Optimization of the real space projectors (new method)

 maximal supplied QI-value         = 19.84
 optimisation between [QCUT,QGAM] = [ 11.51, 23.22] = [ 37.09,150.92] Ry 
 Optimized for a Real-space Cutoff    1.21 Angstroem

   l    n(q)    QCUT    max X(q) W(low)/X(q) W(high)/X(q)  e(spline) 
   0      8    11.508     6.761    0.57E-04    0.57E-04    0.35E-07
   0      8    11.508     1.642    0.14E-03    0.14E-03    0.91E-07
   1      8    11.508     3.519    0.20E-04    0.72E-04    0.47E-07
   1      8    11.508     2.150    0.27E-04    0.11E-03    0.89E-07
   2      7    11.508     2.976    0.19E-03    0.33E-03    0.16E-06
   2      7    11.508     1.494    0.14E-03    0.29E-03    0.14E-06
  PAW_PBE Li_sv_GW 25Mar2010            :
 energy of atom  1       EATOM= -200.9989
 kinetic energy error for atom=    0.0127 (will be added to EATOM!!)
  PAW_PBE P_GW 19Mar2012                :
 energy of atom  2       EATOM= -176.0430
 kinetic energy error for atom=    0.0011 (will be added to EATOM!!)
  PAW_PBE S_GW 19Mar2012                :
 energy of atom  3       EATOM= -276.8230
 kinetic energy error for atom=    0.0024 (will be added to EATOM!!)
  PAW_PBE Cl_GW 19Mar2012               :
 energy of atom  4       EATOM= -409.7259
 kinetic energy error for atom=    0.0030 (will be added to EATOM!!)
 
 
 POSCAR: Li24 P4 S20 Cl4
  positions in direct lattice
  velocities in cartesian coordinates
 exchange correlation table for  LEXCH =        8
   RHO(1)=    0.500       N(1)  =     2000
   RHO(2)=  100.500       N(2)  =     4000

 VTST: version 4.1, (05/19/21)

 CHAIN: initializing optimizer
 
 OPT: Using VASP Conjugate-Gradient optimizer
 CHAIN: Read ICHAIN            0
 
 POSCAR: Li24 P4 S20 Cl4
  positions in direct lattice
  velocities in cartesian coordinates
 


--------------------------------------------------------------------------------------------------------


 ion  position               nearest neighbor table
   1  1.000  0.211  0.195-
   2  0.958  0.825  0.828-
   3  0.048  0.172  0.833-
   4  0.021  0.803  0.217-
   5  0.335  0.306  0.963-
   6  0.498  0.658  0.838-
   7  0.700  0.302  0.015-
   8  0.727  0.688  0.983-
   9  0.234  0.909  0.069-
  10  0.290  0.017  0.664-
  11  0.717  0.981  0.676-
  12  0.794  0.024  0.169-
  13  0.185  0.683  0.468-
  14  0.197  0.299  0.509-
  15  0.838  0.702  0.520-
  16  0.835  0.314  0.463-
  17  0.165  0.472  0.728-
  18  0.334  0.550  0.184-
  19  0.688  0.480  0.225-
  20  0.822  0.519  0.718-
  21  0.491  0.210  0.694-
  22  0.456  0.851  0.306-
  23  0.543  0.180  0.318-
  24  0.539  0.786  0.598-
  25  0.504  0.500  0.503-  44 2.04  42 2.05  41 2.07  43 2.07
  26  0.510  0.995  0.987-  39 2.05  37 2.05  40 2.05  38 2.06
  27  0.017  0.506  0.015-  35 2.03  36 2.05  33 2.06  34 2.07
  28  0.003  0.005  0.497-  30 2.03  32 2.06  31 2.06  29 2.07
  29  0.101  0.863  0.624-  28 2.07
  30  0.140  0.105  0.373-  28 2.03
  31  0.858  0.900  0.380-  28 2.06
  32  0.899  0.138  0.628-  28 2.06
  33  0.886  0.610  0.147-  27 2.06
  34  0.903  0.373  0.891-  27 2.07
  35  0.123  0.645  0.898-  27 2.03
  36  0.155  0.384  0.123-  27 2.05
  37  0.642  0.115  0.870-  26 2.05
  38  0.619  0.863  0.114-  26 2.06
  39  0.390  0.114  0.117-  26 2.05
  40  0.381  0.881  0.861-  26 2.05
  41  0.615  0.648  0.394-  25 2.07
  42  0.641  0.382  0.615-  25 2.05
  43  0.369  0.607  0.630-  25 2.07
  44  0.393  0.380  0.369-  25 2.04
  45  0.734  0.744  0.748-
  46  0.763  0.251  0.243-
  47  0.248  0.758  0.255-
  48  0.260  0.248  0.740-
  49  0.001  0.997  0.018-
  50  0.002  0.502  0.529-
  51  0.506  0.012  0.516-
  52  0.529  0.492  0.015-
 
  LATTYP: Found a simple cubic cell.
 ALAT       =     9.6372592763
  
  Lattice vectors:
  
 A1 = (   9.6372592763,   0.0000000000,   0.0000000000)
 A2 = (   0.0000000000,   9.6372592763,   0.0000000000)
 A3 = (   0.0000000000,   0.0000000000,   9.6372592763)


Analysis of symmetry for initial positions (statically):
=====================================================================
 Subroutine PRICEL returns:
 Original cell was already a primitive cell.
 

 Routine SETGRP: Setting up the symmetry group for a 
 simple cubic supercell.


 Subroutine GETGRP returns: Found  1 space group operations
 (whereof  1 operations were pure point group operations)
 out of a pool of 48 trial point group operations.


The static configuration has the point symmetry C_1 .


Analysis of symmetry for dynamics (positions and initial velocities):
=====================================================================
 Subroutine PRICEL returns:
 Original cell was already a primitive cell.
 

 Routine SETGRP: Setting up the symmetry group for a 
 simple cubic supercell.


 Subroutine GETGRP returns: Found  1 space group operations
 (whereof  1 operations were pure point group operations)
 out of a pool of 48 trial point group operations.


The dynamic configuration has the point symmetry C_1 .


Analysis of structural, dynamic, and magnetic symmetry:
=====================================================================
 Subroutine PRICEL returns:
 Original cell was already a primitive cell.
 

 Routine SETGRP: Setting up the symmetry group for a 
 simple cubic supercell.


 Subroutine GETGRP returns: Found  1 space group operations
 (whereof  1 operations were pure point group operations)
 out of a pool of 48 trial point group operations.


The overall configuration has the point symmetry C_1 .


 Subroutine INISYM returns: Found  1 space group operations
 (whereof  1 operations are pure point group operations),
 and found     1 'primitive' translations


----------------------------------------------------------------------------------------

                                     Primitive cell                                     

  volume of cell :     895.0775

  direct lattice vectors                    reciprocal lattice vectors
     9.637259276  0.000000000  0.000000000     0.103763941  0.000000000  0.000000000
     0.000000000  9.637259276  0.000000000     0.000000000  0.103763941  0.000000000
     0.000000000  0.000000000  9.637259276     0.000000000  0.000000000  0.103763941

  length of vectors
     9.637259276  9.637259276  9.637259276     0.103763941  0.103763941  0.103763941

  position of ions in fractional coordinates (direct lattice)
     0.999526037  0.210704827  0.195496035
     0.957821719  0.825290177  0.827996959
     0.048439525  0.172306226  0.832614087
     0.020773860  0.803062673  0.216697864
     0.335090721  0.305744872  0.962844770
     0.497542219  0.657856025  0.838064727
     0.700295602  0.301870246  0.015034337
     0.726608856  0.688048377  0.983196891
     0.233896907  0.908857040  0.068618516
     0.289907889  0.017304051  0.664085407
     0.717197629  0.981196497  0.675583903
     0.794052653  0.024052504  0.168739297
     0.184695892  0.683339150  0.467908895
     0.197263144  0.299220887  0.509440548
     0.837526832  0.701663143  0.519875697
     0.834522862  0.314296037  0.463128672
     0.164866070  0.471723921  0.728378234
     0.333560714  0.550390842  0.183834549
     0.688158526  0.479847667  0.224748064
     0.821668515  0.519452780  0.718290495
     0.491133912  0.209759787  0.694463350
     0.455980481  0.851222176  0.305923804
     0.543281798  0.180012522  0.318014297
     0.539088635  0.785915207  0.598237373
     0.504288939  0.500217874  0.502687980
     0.509706699  0.995330358  0.986807538
     0.017373242  0.505515332  0.015061194
     0.002501562  0.005292198  0.497085712
     0.100698309  0.863145321  0.623914746
     0.140267544  0.105024977  0.373383141
     0.858322264  0.899848611  0.379611373
     0.899038857  0.138324124  0.628157343
     0.886469414  0.610170569  0.147498007
     0.902994483  0.372909969  0.890684743
     0.123289168  0.645206921  0.897552239
     0.154667351  0.384310975  0.122538925
     0.641798428  0.114920856  0.870406163
     0.619309598  0.863450372  0.114039687
     0.390439711  0.114005866  0.116801740
     0.381335229  0.880883957  0.861063506
     0.614955031  0.648189584  0.393770701
     0.640591380  0.382489472  0.615279254
     0.368615742  0.607021452  0.630465955
     0.393496703  0.379727700  0.369126863
     0.734299939  0.744158755  0.747709167
     0.762628729  0.251029038  0.242653549
     0.247893382  0.757515106  0.254581935
     0.260109742  0.248090204  0.740181899
     0.000679246  0.997108152  0.018454338
     0.002343957  0.501862580  0.528526664
     0.506325966  0.011603568  0.516363658
     0.529411843  0.492431937  0.015466647

  ion indices of the primitive-cell ions
   primitive index   ion index
                 1           1
                 2           2
                 3           3
                 4           4
                 5           5
                 6           6
                 7           7
                 8           8
                 9           9
                10          10
                11          11
                12          12
                13          13
                14          14
                15          15
                16          16
                17          17
                18          18
                19          19
                20          20
                21          21
                22          22
                23          23
                24          24
                25          25
                26          26
                27          27
                28          28
                29          29
                30          30
                31          31
                32          32
                33          33
                34          34
                35          35
                36          36
                37          37
                38          38
                39          39
                40          40
                41          41
                42          42
                43          43
                44          44
                45          45
                46          46
                47          47
                48          48
                49          49
                50          50
                51          51
                52          52

----------------------------------------------------------------------------------------

 
 
 KPOINTS: Automatic mesh                          

Automatic generation of k-mesh.
 Grid dimensions read from file:
 generate k-points for:    2    2    2

 Generating k-lattice:

  Cartesian coordinates                     Fractional coordinates (reciprocal lattice)
     0.051881970  0.000000000  0.000000000     0.500000000  0.000000000  0.000000000
     0.000000000  0.051881970  0.000000000     0.000000000  0.500000000  0.000000000
     0.000000000  0.000000000  0.051881970     0.000000000  0.000000000  0.500000000

  Length of vectors
     0.051881970  0.051881970  0.051881970

  Shift w.r.t. Gamma in fractional coordinates (k-lattice)
     0.500000000  0.500000000  0.500000000

 
 Subroutine IBZKPT returns following result:
 ===========================================
 
 Found      4 irreducible k-points:
 
 Following reciprocal coordinates:
            Coordinates               Weight
  0.250000  0.250000  0.250000      2.000000
 -0.250000  0.250000  0.250000      2.000000
 -0.250000 -0.250000  0.250000      2.000000
  0.250000 -0.250000  0.250000      2.000000
 
 Following cartesian coordinates:
            Coordinates               Weight
  0.025941  0.025941  0.025941      2.000000
 -0.025941  0.025941  0.025941      2.000000
 -0.025941 -0.025941  0.025941      2.000000
  0.025941 -0.025941  0.025941      2.000000
 


--------------------------------------------------------------------------------------------------------




 Dimension of arrays:
   k-points           NKPTS =      4   k-points in BZ     NKDIM =      4   number of bands    NBANDS=    176
   number of dos      NEDOS =    301   number of ions     NIONS =     52
   non local maximal  LDIM  =      6   non local SUM 2l+1 LMDIM =     18
   total plane-waves  NPLWV = 373248
   max r-space proj   IRMAX =   5818   max aug-charges    IRDMAX=  17797
   dimension x,y,z NGX =    72 NGY =   72 NGZ =   72
   dimension x,y,z NGXF=   144 NGYF=  144 NGZF=  144
   support grid    NGXF=   144 NGYF=  144 NGZF=  144
   ions per type =              24   4  20   4
   NGX,Y,Z   is equivalent  to a cutoff of  12.42, 12.42, 12.42 a.u.
   NGXF,Y,Z  is equivalent  to a cutoff of  24.84, 24.84, 24.84 a.u.

 SYSTEM =  unknown system                          
 POSCAR =  Li24 P4 S20 Cl4                         

 Startparameter for this run:
   NWRITE =      2    write-flag & timer
   PREC   = accu      normal or accurate (medium, high low for compatibility)
   ISTART =      0    job   : 0-new  1-cont  2-samecut
   ICHARG =      2    charge: 1-file 2-atom 10-const
   ISPIN  =      2    spin polarized calculation?
   LNONCOLLINEAR =      F non collinear calculations
   LSORBIT =      F    spin-orbit coupling
   INIWAV =      1    electr: 0-lowe 1-rand  2-diag
   LASPH  =      T    aspherical Exc in radial PAW
 Electronic Relaxation 1
   ENCUT  =  520.0 eV  38.22 Ry    6.18 a.u.  17.92 17.92 17.92*2*pi/ulx,y,z
   ENINI  =  520.0     initial cutoff
   ENAUG  = 1041.7 eV  augmentation charge cutoff
   NELM   =    100;   NELMIN=  2; NELMDL=-10     # of ELM steps 
   EDIFF  = 0.1E-05   stopping-criterion for ELM
   LREAL  =      T    real-space projection
   NLSPLINE    = F    spline interpolate recip. space projectors
   LCOMPAT=      F    compatible to vasp.4.4
   GGA_COMPAT  = T    GGA compatible to vasp.4.4-vasp.4.6
   LMAXPAW     = -100 max onsite density
   LMAXMIX     =    4 max onsite mixed and CHGCAR
   VOSKOWN=      0    Vosko Wilk Nusair interpolation
   ROPT   =   -0.00025  -0.00025  -0.00025  -0.00025
 Ionic relaxation
   EDIFFG = -.1E-02   stopping-criterion for IOM
   NSW    =   1000    number of steps for IOM
   NBLOCK =      1;   KBLOCK =   1000    inner block; outer block 
   IBRION =      2    ionic relax: 0-MD 1-quasi-New 2-CG
   NFREE  =      1    steps in history (QN), initial steepest desc. (CG)
   ISIF   =      2    stress and relaxation
   IWAVPR =     11    prediction:  0-non 1-charg 2-wave 3-comb
   ISYM   =      2    0-nonsym 1-usesym 2-fastsym
   LCORR  =      T    Harris-Foulkes like correction to forces

   POTIM  = 0.2000    time-step for ionic-motion
   TEIN   =    0.0    initial temperature
   TEBEG  =    0.0;   TEEND  =   0.0 temperature during run
   SMASS  =  -3.00    Nose mass-parameter (am)
   estimated Nose-frequenzy (Omega)   =  0.10E-29 period in steps = 0.31E+47 mass=  -0.212E-26a.u.
   SCALEE = 1.0000    scale energy and forces
   NPACO  =    256;   APACO  = 10.0  distance and # of slots for P.C.
   PSTRESS=    0.0 pullay stress

  Mass of Ions in am
   POMASS =   7.01 30.97 32.07 35.45
  Ionic Valenz
   ZVAL   =   3.00  5.00  6.00  7.00
  Atomic Wigner-Seitz radii
   RWIGS  =  -1.00 -1.00 -1.00 -1.00
  virtual crystal weights 
   VCA    =   1.00  1.00  1.00  1.00
   NELECT =     240.0000    total number of electrons
   NUPDOWN=      -1.0000    fix difference up-down

 DOS related values:
   EMIN   =  10.00;   EMAX   =-10.00  energy-range for DOS
   EFERMI =   0.00;   METHOD = LEGACY      
   ISMEAR =     0;   SIGMA  =   0.03  broadening in eV -4-tet -1-fermi 0-gaus

 Electronic relaxation 2 (details)
   IALGO  =     68    algorithm
   LDIAG  =      T    sub-space diagonalisation (order eigenvalues)
   LSUBROT=      F    optimize rotation matrix (better conditioning)
   TURBO    =      0    0=normal 1=particle mesh
   IRESTART =      0    0=no restart 2=restart with 2 vectors
   NREBOOT  =      0    no. of reboots
   NMIN     =      0    reboot dimension
   EREF     =   0.00    reference energy to select bands
   IMIX   =      4    mixing-type and parameters
     AMIX     =   0.40;   BMIX     =  1.00
     AMIX_MAG =   1.60;   BMIX_MAG =  1.00
     AMIN     =   0.10
     WC   =   100.;   INIMIX=   1;  MIXPRE=   1;  MAXMIX= -45

 Intra band minimization:
   WEIMIN = 0.0010     energy-eigenvalue tresh-hold
   EBREAK =  0.14E-08  absolut break condition
   DEPER  =   0.30     relativ break condition  

   TIME   =   0.40     timestep for ELM

  volume/ion in A,a.u.               =      17.21       116.16
  Fermi-wavevector in a.u.,A,eV,Ry     =   1.055662  1.994913 15.162646  1.114423
  Thomas-Fermi vector in A             =   2.190869
 
 Write flags
   LWAVE        =      F    write WAVECAR
   LDOWNSAMPLE  =      F    k-point downsampling of WAVECAR
   LCHARG       =      F    write CHGCAR
   LVTOT        =      F    write LOCPOT, total local potential
   LVHAR        =      F    write LOCPOT, Hartree potential only
   LELF         =      F    write electronic localiz. function (ELF)
   LORBIT       =      0    0 simple, 1 ext, 2 COOP (PROOUT), +10 PAW based schemes


 Dipole corrections
   LMONO  =      F    monopole corrections only (constant potential shift)
   LDIPOL =      F    correct potential (dipole corrections)
   IDIPOL =      0    1-x, 2-y, 3-z, 4-all directions 
   EPSILON=  1.0000000 bulk dielectric constant

 Exchange correlation treatment:
   GGA     =    PE    GGA type
   LEXCH   =     8    internal setting for exchange type
   LIBXC   =     F    Libxc                    
   VOSKOWN =     0    Vosko Wilk Nusair interpolation
   LHFCALC =     F    Hartree Fock is set to
   LHFONE  =     F    Hartree Fock one center treatment
   AEXX    =    0.0000 exact exchange contribution

 Linear response parameters
   LEPSILON=     F    determine dielectric tensor
   LRPA    =     F    only Hartree local field effects (RPA)
   LNABLA  =     F    use nabla operator in PAW spheres
   LVEL    =     F    velocity operator in full k-point grid
   CSHIFT  =0.1000    complex shift for real part using Kramers Kronig
   OMEGAMAX=  -1.0    maximum frequency
   DEG_THRESHOLD= 0.2000000E-02 threshold for treating states as degnerate
   RTIME   =   -0.100 relaxation time in fs
  (WPLASMAI=    0.000 imaginary part of plasma frequency in eV, 0.658/RTIME)
   DFIELD  = 0.0000000 0.0000000 0.0000000 field for delta impulse in time
 
  Optional k-point grid parameters
   LKPOINTS_OPT  =     F    use optional k-point grid
   KPOINTS_OPT_MODE=     1    mode for optional k-point grid
 
 Orbital magnetization related:
   ORBITALMAG=     F  switch on orbital magnetization
   LCHIMAG   =     F  perturbation theory with respect to B field
   DQ        =  0.001000  dq finite difference perturbation B field
   LLRAUG    =     F  two centre corrections for induced B field
   LBONE     =     F  B-component reconstruction in AE one-centre
   LVGVCALC  =     T  calculate vGv susceptibility
   LVGVAPPL  =     F  apply vGv susceptibility instead of pGv for G=0

 Random number generation:
   RANDOM_GENERATOR = DEFAULT
   PCG_SEED         = not used


--------------------------------------------------------------------------------------------------------


 conjugate gradient relaxation of ions
 charge density and potential will be updated during run
 spin polarized calculation
 RMM-DIIS sequential band-by-band and
  variant of blocked Davidson during initial phase
 perform sub-space diagonalisation
    before iterative eigenvector-optimisation
 modified Broyden-mixing scheme, WC =      100.0
 initial mixing is a Kerker type mixing with AMIX =  0.4000 and BMIX =      1.0000
 Hartree-type preconditioning will be used
 using additional bands           56
 real space projection scheme for non local part
 use partial core corrections
 calculate Harris-corrections to forces 
   (improved forces if not selfconsistent)
 use gradient corrections 
 use of overlap-Matrix (Vanderbilt PP)
 Gauss-broadening in eV      SIGMA  =   0.03


--------------------------------------------------------------------------------------------------------


  energy-cutoff  :      520.00
  volume of cell :      895.08
      direct lattice vectors                 reciprocal lattice vectors
     9.637259276  0.000000000  0.000000000     0.103763941  0.000000000  0.000000000
     0.000000000  9.637259276  0.000000000     0.000000000  0.103763941  0.000000000
     0.000000000  0.000000000  9.637259276     0.000000000  0.000000000  0.103763941

  length of vectors
     9.637259276  9.637259276  9.637259276     0.103763941  0.103763941  0.103763941


 
 k-points in units of 2pi/SCALE and weight: Automatic mesh                          
   0.02594099  0.02594099  0.02594099       0.250
  -0.02594099  0.02594099  0.02594099       0.250
  -0.02594099 -0.02594099  0.02594099       0.250
   0.02594099 -0.02594099  0.02594099       0.250
 
 k-points in reciprocal lattice and weights: Automatic mesh                          
   0.25000000  0.25000000  0.25000000       0.250
  -0.25000000  0.25000000  0.25000000       0.250
  -0.25000000 -0.25000000  0.25000000       0.250
   0.25000000 -0.25000000  0.25000000       0.250
 
 position of ions in fractional coordinates (direct lattice) 
   0.99952604  0.21070483  0.19549603
   0.95782172  0.82529018  0.82799696
   0.04843952  0.17230623  0.83261409
   0.02077386  0.80306267  0.21669786
   0.33509072  0.30574487  0.96284477
   0.49754222  0.65785603  0.83806473
   0.70029560  0.30187025  0.01503434
   0.72660886  0.68804838  0.98319689
   0.23389691  0.90885704  0.06861852
   0.28990789  0.01730405  0.66408541
   0.71719763  0.98119650  0.67558390
   0.79405265  0.02405250  0.16873930
   0.18469589  0.68333915  0.46790890
   0.19726314  0.29922089  0.50944055
   0.83752683  0.70166314  0.51987570
   0.83452286  0.31429604  0.46312867
   0.16486607  0.47172392  0.72837823
   0.33356071  0.55039084  0.18383455
   0.68815853  0.47984767  0.22474806
   0.82166852  0.51945278  0.71829049
   0.49113391  0.20975979  0.69446335
   0.45598048  0.85122218  0.30592380
   0.54328180  0.18001252  0.31801430
   0.53908864  0.78591521  0.59823737
   0.50428894  0.50021787  0.50268798
   0.50970670  0.99533036  0.98680754
   0.01737324  0.50551533  0.01506119
   0.00250156  0.00529220  0.49708571
   0.10069831  0.86314532  0.62391475
   0.14026754  0.10502498  0.37338314
   0.85832226  0.89984861  0.37961137
   0.89903886  0.13832412  0.62815734
   0.88646941  0.61017057  0.14749801
   0.90299448  0.37290997  0.89068474
   0.12328917  0.64520692  0.89755224
   0.15466735  0.38431097  0.12253893
   0.64179843  0.11492086  0.87040616
   0.61930960  0.86345037  0.11403969
   0.39043971  0.11400587  0.11680174
   0.38133523  0.88088396  0.86106351
   0.61495503  0.64818958  0.39377070
   0.64059138  0.38248947  0.61527925
   0.36861574  0.60702145  0.63046595
   0.39349670  0.37972770  0.36912686
   0.73429994  0.74415876  0.74770917
   0.76262873  0.25102904  0.24265355
   0.24789338  0.75751511  0.25458194
   0.26010974  0.24809020  0.74018190
   0.00067925  0.99710815  0.01845434
   0.00234396  0.50186258  0.52852666
   0.50632597  0.01160357  0.51636366
   0.52941184  0.49243194  0.01546665
 
 position of ions in cartesian coordinates  (Angst):
   9.63269157  2.03061704  1.88404598
   9.23077625  7.95353542  7.97962137
   0.46682426  1.66055977  8.02411784
   0.20020308  7.73932319  2.08837350
   3.22935615  2.94654260  9.27918470
   4.79494336  6.33992908  8.07664706
   6.74893029  2.90920183  0.14488980
   7.00251793  6.63090060  9.47532336
   2.25412514  8.75889094  0.66129443
   2.79391749  0.16676362  6.39996325
   6.91181950  9.45604504  6.51077724
   7.65249130  0.23180022  1.62618436
   1.77996219  6.58551656  4.50935934
   1.90107607  2.88366927  4.90961065
   8.07146323  6.76210963  5.01017688
   8.04251319  3.02895239  4.46329109
   1.58885706  4.54612574  7.01956989
   3.21461109  5.30425925  1.77166121
   6.63196214  4.62441638  2.16595537
   7.91863252  5.00610112  6.92235173
   4.73318485  2.02150945  6.69272336
   4.39440212  8.20344881  2.94826702
   5.23574754  1.73482735  3.06478624
   5.19533695  7.57406862  5.76536868
   4.85996326  4.82072935  4.84453440
   4.91217561  9.59225673  9.51012010
   0.16743044  4.87178232  0.14514863
   0.02410820  0.05100228  4.79054389
   0.97045571  8.31835525  6.01282818
   1.35179469  1.01215293  3.59839014
   8.27187421  8.67207438  3.65841322
   8.66427057  1.33306545  6.05371518
   8.54313558  5.88037198  1.42147654
   8.70239196  3.59383006  8.58375980
   1.18816968  6.21802638  8.64994364
   1.49056937  3.70370451  1.18093939
   6.18517785  1.10752209  8.38832987
   5.96844716  8.32129511  1.09903003
   3.76276872  1.09870409  1.12564865
   3.67502647  8.48930709  8.29829226
   5.92648108  6.24677108  3.79487034
   6.17354522  3.68615021  5.92960569
   3.55244548  5.85002312  6.07596387
   3.79222976  3.65953430  3.55737128
   7.07663890  7.17165087  7.20586711
   7.34965079  2.41923193  2.33851517
   2.38901280  7.30036948  2.45347212
   2.50674503  2.39090962  7.13332487
   0.00654607  9.60938979  0.17784924
   0.02258932  4.83657981  5.09354850
   4.87959461  0.11182659  4.97633046
   5.10207919  4.74569425  0.14905609
 


--------------------------------------------------------------------------------------------------------


 k-point   1 :   0.2500 0.2500 0.2500  plane waves:   24084
 k-point   2 :  -0.2500 0.2500 0.2500  plane waves:   24084
 k-point   3 :  -0.2500-0.2500 0.2500  plane waves:   24084
 k-point   4 :   0.2500-0.2500 0.2500  plane waves:   24084

 maximum and minimum number of plane-waves per node :       766      738

 maximum number of plane-waves:     24084
 maximum index in each direction: 
   IXMAX=   18   IYMAX=   18   IZMAX=   17
   IXMIN=  -18   IYMIN=  -18   IZMIN=  -18


 real space projection operators:
  total allocation   :      28549.47 KBytes
  max/ min on nodes  :       1228.09        751.56


 parallel 3D FFT for wavefunctions:
    minimum data exchange during FFTs selected (reduces bandwidth)
 parallel 3D FFT for charge:
    minimum data exchange during FFTs selected (reduces bandwidth)


 total amount of memory used by VASP MPI-rank0    48172. kBytes
=======================================================================

   base      :      30000. kBytes
   nonlr-proj:       6602. kBytes
   fftplans  :       1747. kBytes
   grid      :       5278. kBytes
   one-center:         62. kBytes
   wavefun   :       4483. kBytes
 
     INWAV:  cpu time      0.0001: real time      0.0001
 Broyden mixing: mesh for mixing (old mesh)
   NGX = 35   NGY = 35   NGZ = 35
  (NGX  =144   NGY  =144   NGZ  =144)
  gives a total of  42875 points

 initial charge density was supplied:
 charge density of overlapping atoms calculated
 number of electron     240.0000000 magnetization      52.0000000
 keeping initial charge density in first step


--------------------------------------------------------------------------------------------------------


 Maximum index for non-local projection operator          607
 Maximum index for augmentation-charges          873 (set IRDMAX)


--------------------------------------------------------------------------------------------------------


 First call to EWALD:  gamma=   0.184
 Maximum number of real-space cells 3x 3x 3
 Maximum number of reciprocal cells 3x 3x 3

    FEWALD:  cpu time      0.0030: real time      0.0034


--------------------------------------- Ionic step        1  -------------------------------------------




--------------------------------------- Iteration      1(   1)  ---------------------------------------


    POTLOK:  cpu time      0.0569: real time      0.0892
    SETDIJ:  cpu time      0.4031: real time      0.4134
     EDDAV:  cpu time      2.2867: real time      2.3496
       DOS:  cpu time      0.0021: real time      0.0035
    --------------------------------------------
      LOOP:  cpu time      2.7488: real time      2.8558

 eigenvalue-minimisations  :  3088
 total energy-change (2. order) : 0.1594651E+04  (-0.1136619E+05)
 number of electron     240.0000000 magnetization      52.0000000
 augmentation part      240.0000000 magnetization      52.0000000

 Free energy of the ion-electron system (eV)
  ---------------------------------------------------
  alpha Z        PSCENC =       303.27821927
  Ewald energy   TEWEN  =     -8856.82652092
  -Hartree energ DENC   =     -2088.96748755
  -exchange      EXHF   =         0.00000000
  -V(xc)+E(xc)   XCENC  =       534.55002998
  PAW double counting   =      8141.38806575    -8271.61346273
  entropy T*S    EENTRO =        -0.01131938
  eigenvalues    EBANDS =      -870.28685712
  atomic energy  EATOM  =     12703.13999606
  Solvation  Ediel_sol  =         0.00000000
  ---------------------------------------------------
  free energy    TOTEN  =      1594.65066336 eV

  energy without entropy =     1594.66198274  energy(sigma->0) =     1594.65632305


--------------------------------------------------------------------------------------------------------




--------------------------------------- Iteration      1(   2)  ---------------------------------------


     EDDAV:  cpu time      2.7143: real time      2.7589
       DOS:  cpu time      0.0004: real time      0.0004
    --------------------------------------------
      LOOP:  cpu time      2.7147: real time      2.7594

 eigenvalue-minimisations  :  3864
 total energy-change (2. order) :-0.1650195E+04  (-0.1550158E+04)
 number of electron     240.0000000 magnetization      52.0000000
 augmentation part      240.0000000 magnetization      52.0000000

 Free energy of the ion-electron system (eV)
  ---------------------------------------------------
  alpha Z        PSCENC =       303.27821927
  Ewald energy   TEWEN  =     -8856.82652092
  -Hartree energ DENC   =     -2088.96748755
  -exchange      EXHF   =         0.00000000
  -V(xc)+E(xc)   XCENC  =       534.55002998
  PAW double counting   =      8141.38806575    -8271.61346273
  entropy T*S    EENTRO =        -0.00000000
  eigenvalues    EBANDS =     -2520.49303358
  atomic energy  EATOM  =     12703.13999606
  Solvation  Ediel_sol  =         0.00000000
  ---------------------------------------------------
  free energy    TOTEN  =       -55.54419372 eV

  energy without entropy =      -55.54419372  energy(sigma->0) =      -55.54419372


--------------------------------------------------------------------------------------------------------




--------------------------------------- Iteration      1(   3)  ---------------------------------------


     EDDAV:  cpu time      2.6416: real time      2.6653
       DOS:  cpu time      0.0005: real time      0.0005
    --------------------------------------------
      LOOP:  cpu time      2.6421: real time      2.6658

 eigenvalue-minimisations  :  3768
 total energy-change (2. order) :-0.1721139E+03  (-0.1700627E+03)
 number of electron     240.0000000 magnetization      52.0000000
 augmentation part      240.0000000 magnetization      52.0000000

 Free energy of the ion-electron system (eV)
  ---------------------------------------------------
  alpha Z        PSCENC =       303.27821927
  Ewald energy   TEWEN  =     -8856.82652092
  -Hartree energ DENC   =     -2088.96748755
  -exchange      EXHF   =         0.00000000
  -V(xc)+E(xc)   XCENC  =       534.55002998
  PAW double counting   =      8141.38806575    -8271.61346273
  entropy T*S    EENTRO =        -0.00000000
  eigenvalues    EBANDS =     -2692.60696451
  atomic energy  EATOM  =     12703.13999606
  Solvation  Ediel_sol  =         0.00000000
  ---------------------------------------------------
  free energy    TOTEN  =      -227.65812465 eV

  energy without entropy =     -227.65812465  energy(sigma->0) =     -227.65812465


--------------------------------------------------------------------------------------------------------




--------------------------------------- Iteration      1(   4)  ---------------------------------------


     EDDAV:  cpu time      3.1859: real time      3.2142
       DOS:  cpu time      0.0004: real time      0.0004
    --------------------------------------------
      LOOP:  cpu time      3.1863: real time      3.2146

 eigenvalue-minimisations  :  4720
 total energy-change (2. order) :-0.1323981E+02  (-0.1321443E+02)
 number of electron     240.0000000 magnetization      52.0000000
 augmentation part      240.0000000 magnetization      52.0000000

 Free energy of the ion-electron system (eV)
  ---------------------------------------------------
  alpha Z        PSCENC =       303.27821927
  Ewald energy   TEWEN  =     -8856.82652092
  -Hartree energ DENC   =     -2088.96748755
  -exchange      EXHF   =         0.00000000
  -V(xc)+E(xc)   XCENC  =       534.55002998
  PAW double counting   =      8141.38806575    -8271.61346273
  entropy T*S    EENTRO =        -0.00000000
  eigenvalues    EBANDS =     -2705.84677034
  atomic energy  EATOM  =     12703.13999606
  Solvation  Ediel_sol  =         0.00000000
  ---------------------------------------------------
  free energy    TOTEN  =      -240.89793048 eV

  energy without entropy =     -240.89793048  energy(sigma->0) =     -240.89793048


--------------------------------------------------------------------------------------------------------




--------------------------------------- Iteration      1(   5)  ---------------------------------------


     EDDAV:  cpu time      2.9866: real time      3.0139
       DOS:  cpu time      0.0004: real time      0.0004
    --------------------------------------------
      LOOP:  cpu time      2.9870: real time      3.0144

 eigenvalue-minimisations  :  4448
 total energy-change (2. order) :-0.2706790E+00  (-0.2705686E+00)
 number of electron     240.0000000 magnetization      52.0000000
 augmentation part      240.0000000 magnetization      52.0000000

 Free energy of the ion-electron system (eV)
  ---------------------------------------------------
  alpha Z        PSCENC =       303.27821927
  Ewald energy   TEWEN  =     -8856.82652092
  -Hartree energ DENC   =     -2088.96748755
  -exchange      EXHF   =         0.00000000
  -V(xc)+E(xc)   XCENC  =       534.55002998
  PAW double counting   =      8141.38806575    -8271.61346273
  entropy T*S    EENTRO =        -0.00000000
  eigenvalues    EBANDS =     -2706.11744931
  atomic energy  EATOM  =     12703.13999606
  Solvation  Ediel_sol  =         0.00000000
  ---------------------------------------------------
  free energy    TOTEN  =      -241.16860945 eV

  energy without entropy =     -241.16860945  energy(sigma->0) =     -241.16860945


--------------------------------------------------------------------------------------------------------




--------------------------------------- Iteration      1(   6)  ---------------------------------------


     EDDAV:  cpu time      3.2852: real time      3.3484
       DOS:  cpu time      0.0004: real time      0.0004
    --------------------------------------------
      LOOP:  cpu time      3.2856: real time      3.3488

 eigenvalue-minimisations  :  4632
 total energy-change (2. order) :-0.1104345E-01  (-0.1104219E-01)
 number of electron     240.0000000 magnetization      52.0000000
 augmentation part      240.0000000 magnetization      52.0000000

 Free energy of the ion-electron system (eV)
  ---------------------------------------------------
  alpha Z        PSCENC =       303.27821927
  Ewald energy   TEWEN  =     -8856.82652092
  -Hartree energ DENC   =     -2088.96748755
  -exchange      EXHF   =         0.00000000
  -V(xc)+E(xc)   XCENC  =       534.55002998
  PAW double counting   =      8141.38806575    -8271.61346273
  entropy T*S    EENTRO =        -0.00000000
  eigenvalues    EBANDS =     -2706.12849276
  atomic energy  EATOM  =     12703.13999606
  Solvation  Ediel_sol  =         0.00000000
  ---------------------------------------------------
  free energy    TOTEN  =      -241.17965290 eV

  energy without entropy =     -241.17965290  energy(sigma->0) =     -241.17965290


--------------------------------------------------------------------------------------------------------




--------------------------------------- Iteration      1(   7)  ---------------------------------------


     EDDAV:  cpu time      3.0387: real time      3.0645
       DOS:  cpu time      0.0004: real time      0.0005
    --------------------------------------------
      LOOP:  cpu time      3.0391: real time      3.0650

 eigenvalue-minimisations  :  4544
 total energy-change (2. order) :-0.3874671E-03  (-0.3874410E-03)
 number of electron     240.0000000 magnetization      52.0000000
 augmentation part      240.0000000 magnetization      52.0000000

 Free energy of the ion-electron system (eV)
  ---------------------------------------------------
  alpha Z        PSCENC =       303.27821927
  Ewald energy   TEWEN  =     -8856.82652092
  -Hartree energ DENC   =     -2088.96748755
  -exchange      EXHF   =         0.00000000
  -V(xc)+E(xc)   XCENC  =       534.55002998
  PAW double counting   =      8141.38806575    -8271.61346273
  entropy T*S    EENTRO =        -0.00000000
  eigenvalues    EBANDS =     -2706.12888023
  atomic energy  EATOM  =     12703.13999606
  Solvation  Ediel_sol  =         0.00000000
  ---------------------------------------------------
  free energy    TOTEN  =      -241.18004037 eV

  energy without entropy =     -241.18004037  energy(sigma->0) =     -241.18004037


--------------------------------------------------------------------------------------------------------




--------------------------------------- Iteration      1(   8)  ---------------------------------------


     EDDAV:  cpu time      3.0644: real time      3.0978
       DOS:  cpu time      0.0005: real time      0.0005
    --------------------------------------------
      LOOP:  cpu time      3.0650: real time      3.0983

 eigenvalue-minimisations  :  4568
 total energy-change (2. order) :-0.2262409E-04  (-0.2262387E-04)
 number of electron     240.0000000 magnetization      52.0000000
 augmentation part      240.0000000 magnetization      52.0000000

 Free energy of the ion-electron system (eV)
  ---------------------------------------------------
  alpha Z        PSCENC =       303.27821927
  Ewald energy   TEWEN  =     -8856.82652092
  -Hartree energ DENC   =     -2088.96748755
  -exchange      EXHF   =         0.00000000
  -V(xc)+E(xc)   XCENC  =       534.55002998
  PAW double counting   =      8141.38806575    -8271.61346273
  entropy T*S    EENTRO =        -0.00000000
  eigenvalues    EBANDS =     -2706.12890285
  atomic energy  EATOM  =     12703.13999606
  Solvation  Ediel_sol  =         0.00000000
  ---------------------------------------------------
  free energy    TOTEN  =      -241.18006299 eV

  energy without entropy =     -241.18006299  energy(sigma->0) =     -241.18006299


--------------------------------------------------------------------------------------------------------




--------------------------------------- Iteration      1(   9)  ---------------------------------------


     EDDAV:  cpu time      3.1168: real time      3.1493
       DOS:  cpu time      0.0004: real time      0.0004
    --------------------------------------------
      LOOP:  cpu time      3.1172: real time      3.1497

 eigenvalue-minimisations  :  4520
 total energy-change (2. order) :-0.1458822E-05  (-0.1458531E-05)
 number of electron     240.0000000 magnetization      52.0000000
 augmentation part      240.0000000 magnetization      52.0000000

 Free energy of the ion-electron system (eV)
  ---------------------------------------------------
  alpha Z        PSCENC =       303.27821927
  Ewald energy   TEWEN  =     -8856.82652092
  -Hartree energ DENC   =     -2088.96748755
  -exchange      EXHF   =         0.00000000
  -V(xc)+E(xc)   XCENC  =       534.55002998
  PAW double counting   =      8141.38806575    -8271.61346273
  entropy T*S    EENTRO =        -0.00000000
  eigenvalues    EBANDS =     -2706.12890431
  atomic energy  EATOM  =     12703.13999606
  Solvation  Ediel_sol  =         0.00000000
  ---------------------------------------------------
  free energy    TOTEN  =      -241.18006445 eV

  energy without entropy =     -241.18006445  energy(sigma->0) =     -241.18006445


--------------------------------------------------------------------------------------------------------




--------------------------------------- Iteration      1(  10)  ---------------------------------------


     EDDAV:  cpu time      2.0115: real time      2.0289
       DOS:  cpu time      0.0005: real time      0.0005
    CHARGE:  cpu time      0.0673: real time      0.0735
    MIXING:  cpu time      0.0019: real time      0.0030
    --------------------------------------------
      LOOP:  cpu time      2.0811: real time      2.1060

 eigenvalue-minimisations  :  2656
 total energy-change (2. order) :-0.6006121E-07  (-0.6037395E-07)
 number of electron     239.9999995 magnetization      27.1834099
 augmentation part        1.4905571 magnetization      27.6260312

 Broyden mixing:
  rms(total) = 0.63986E+01    rms(broyden)= 0.63980E+01
  rms(prec ) = 0.66326E+01
  weight for this iteration     100.00

 Free energy of the ion-electron system (eV)
  ---------------------------------------------------
  alpha Z        PSCENC =       303.27821927
  Ewald energy   TEWEN  =     -8856.82652092
  -Hartree energ DENC   =     -2088.96748755
  -exchange      EXHF   =         0.00000000
  -V(xc)+E(xc)   XCENC  =       534.55002998
  PAW double counting   =      8141.38806575    -8271.61346273
  entropy T*S    EENTRO =        -0.00000000
  eigenvalues    EBANDS =     -2706.12890437
  atomic energy  EATOM  =     12703.13999606
  Solvation  Ediel_sol  =         0.00000000
  ---------------------------------------------------
  free energy    TOTEN  =      -241.18006451 eV

  energy without entropy =     -241.18006451  energy(sigma->0) =     -241.18006451


--------------------------------------------------------------------------------------------------------




--------------------------------------- Iteration      1(  11)  ---------------------------------------


    POTLOK:  cpu time      0.0548: real time      0.0557
    SETDIJ:  cpu time      0.3980: real time      0.4013
    EDDIAG:  cpu time      0.3638: real time      0.3670
  RMM-DIIS:  cpu time      1.1652: real time      1.1760
    ORTHCH:  cpu time      0.0658: real time      0.0672
       DOS:  cpu time      0.0005: real time      0.0005
    CHARGE:  cpu time      0.0644: real time      0.0671
    MIXING:  cpu time      0.0011: real time      0.0036
    --------------------------------------------
      LOOP:  cpu time      2.1135: real time      2.1384

 eigenvalue-minimisations  :  2816
 total energy-change (2. order) : 0.5024550E+01  (-0.4593618E+01)
 number of electron     239.9999995 magnetization      16.2793253
 augmentation part        1.7062202 magnetization      16.4616339

 Broyden mixing:
  rms(total) = 0.32964E+01    rms(broyden)= 0.32962E+01
  rms(prec ) = 0.34090E+01
  weight for this iteration     100.00

 eigenvalues of (default mixing * dielectric matrix)
  average eigenvalue GAMMA=   0.7246
  0.7246

 Free energy of the ion-electron system (eV)
  ---------------------------------------------------
  alpha Z        PSCENC =       303.27821927
  Ewald energy   TEWEN  =     -8856.82652092
  -Hartree energ DENC   =     -2135.97986098
  -exchange      EXHF   =         0.00000000
  -V(xc)+E(xc)   XCENC  =       542.65357636
  PAW double counting   =      8924.90916258    -9061.16309299
  entropy T*S    EENTRO =        -0.00000000
  eigenvalues    EBANDS =     -2656.16699391
  atomic energy  EATOM  =     12703.13999606
  Solvation  Ediel_sol  =         0.00000000
  ---------------------------------------------------
  free energy    TOTEN  =      -236.15551452 eV

  energy without entropy =     -236.15551452  energy(sigma->0) =     -236.15551452


--------------------------------------------------------------------------------------------------------




--------------------------------------- Iteration      1(  12)  ---------------------------------------


    POTLOK:  cpu time      0.0534: real time      0.0542
    SETDIJ:  cpu time      0.3996: real time      0.4018
    EDDIAG:  cpu time      0.3560: real time      0.3593
  RMM-DIIS:  cpu time      1.2250: real time      1.2362
    ORTHCH:  cpu time      0.0673: real time      0.0676
       DOS:  cpu time      0.0005: real time      0.0005
    CHARGE:  cpu time      0.0645: real time      0.0670
    MIXING:  cpu time      0.0011: real time      0.0011
    --------------------------------------------
      LOOP:  cpu time      2.1673: real time      2.1878

 eigenvalue-minimisations  :  2942
 total energy-change (2. order) :-0.1942750E+02  (-0.2050900E+01)
 number of electron     239.9999995 magnetization       0.4101759
 augmentation part        1.8034241 magnetization       0.7491402

 Broyden mixing:
  rms(total) = 0.20179E+01    rms(broyden)= 0.20179E+01
  rms(prec ) = 0.20775E+01
  weight for this iteration     100.00

 eigenvalues of (default mixing * dielectric matrix)
  average eigenvalue GAMMA=   1.1567
  1.6425  0.6710

 Free energy of the ion-electron system (eV)
  ---------------------------------------------------
  alpha Z        PSCENC =       303.27821927
  Ewald energy   TEWEN  =     -8856.82652092
  -Hartree energ DENC   =     -2159.12323960
  -exchange      EXHF   =         0.00000000
  -V(xc)+E(xc)   XCENC  =       536.34053706
  PAW double counting   =      9275.26891684    -9415.09243860
  entropy T*S    EENTRO =        -0.00000000
  eigenvalues    EBANDS =     -2642.56848000
  atomic energy  EATOM  =     12703.13999606
  Solvation  Ediel_sol  =         0.00000000
  ---------------------------------------------------
  free energy    TOTEN  =      -255.58300988 eV

  energy without entropy =     -255.58300988  energy(sigma->0) =     -255.58300988


--------------------------------------------------------------------------------------------------------




--------------------------------------- Iteration      1(  13)  ---------------------------------------


    POTLOK:  cpu time      0.0527: real time      0.0537
    SETDIJ:  cpu time      0.4000: real time      0.4016
    EDDIAG:  cpu time      0.5712: real time      0.5755
  RMM-DIIS:  cpu time      1.2077: real time      1.2183
    ORTHCH:  cpu time      0.0666: real time      0.0670
       DOS:  cpu time      0.0005: real time      0.0005
    CHARGE:  cpu time      0.0651: real time      0.0670
    MIXING:  cpu time      0.0010: real time      0.0010
    --------------------------------------------
      LOOP:  cpu time      2.3647: real time      2.3845

 eigenvalue-minimisations  :  2874
 total energy-change (2. order) :-0.2502075E+01  (-0.8700926E+00)
 number of electron     239.9999995 magnetization      -1.9155609
 augmentation part        1.9042957 magnetization      -1.8111418

 Broyden mixing:
  rms(total) = 0.66681E+00    rms(broyden)= 0.66680E+00
  rms(prec ) = 0.69891E+00
  weight for this iteration     100.00

 eigenvalues of (default mixing * dielectric matrix)
  average eigenvalue GAMMA=   1.3043
  2.5123  0.7478  0.6529

 Free energy of the ion-electron system (eV)
  ---------------------------------------------------
  alpha Z        PSCENC =       303.27821927
  Ewald energy   TEWEN  =     -8856.82652092
  -Hartree energ DENC   =     -2185.55904442
  -exchange      EXHF   =         0.00000000
  -V(xc)+E(xc)   XCENC  =       537.88353022
  PAW double counting   =      9777.81420726    -9921.60694163
  entropy T*S    EENTRO =        -0.00000000
  eigenvalues    EBANDS =     -2616.20853085
  atomic energy  EATOM  =     12703.13999606
  Solvation  Ediel_sol  =         0.00000000
  ---------------------------------------------------
  free energy    TOTEN  =      -258.08508501 eV

  energy without entropy =     -258.08508501  energy(sigma->0) =     -258.08508501


--------------------------------------------------------------------------------------------------------




--------------------------------------- Iteration      1(  14)  ---------------------------------------


    POTLOK:  cpu time      0.0529: real time      0.0538
    SETDIJ:  cpu time      0.4020: real time      0.4040
    EDDIAG:  cpu time      0.3546: real time      0.3569
  RMM-DIIS:  cpu time      1.5787: real time      1.5923
    ORTHCH:  cpu time      0.0679: real time      0.0683
       DOS:  cpu time      0.0005: real time      0.0005
    CHARGE:  cpu time      0.0653: real time      0.0668
    MIXING:  cpu time      0.0010: real time      0.0010
    --------------------------------------------
      LOOP:  cpu time      2.5230: real time      2.5436

 eigenvalue-minimisations  :  3742
 total energy-change (2. order) :-0.1835569E+00  (-0.1869428E+00)
 number of electron     239.9999995 magnetization      -0.8697065
 augmentation part        1.8706943 magnetization      -0.8430109

 Broyden mixing:
  rms(total) = 0.31854E+00    rms(broyden)= 0.31853E+00
  rms(prec ) = 0.35237E+00
  weight for this iteration     100.00

 eigenvalues of (default mixing * dielectric matrix)
  average eigenvalue GAMMA=   1.2687
  2.6206  1.1724  0.6898  0.5920

 Free energy of the ion-electron system (eV)
  ---------------------------------------------------
  alpha Z        PSCENC =       303.27821927
  Ewald energy   TEWEN  =     -8856.82652092
  -Hartree energ DENC   =     -2186.49857581
  -exchange      EXHF   =         0.00000000
  -V(xc)+E(xc)   XCENC  =       538.30111854
  PAW double counting   =      9853.64454349    -9998.23048062
  entropy T*S    EENTRO =        -0.00000000
  eigenvalues    EBANDS =     -2615.07694193
  atomic energy  EATOM  =     12703.13999606
  Solvation  Ediel_sol  =         0.00000000
  ---------------------------------------------------
  free energy    TOTEN  =      -258.26864192 eV

  energy without entropy =     -258.26864192  energy(sigma->0) =     -258.26864192


--------------------------------------------------------------------------------------------------------




--------------------------------------- Iteration      1(  15)  ---------------------------------------


    POTLOK:  cpu time      0.0515: real time      0.0525
    SETDIJ:  cpu time      0.3979: real time      0.3996
    EDDIAG:  cpu time      0.3615: real time      0.3638
  RMM-DIIS:  cpu time      1.2933: real time      1.3043
    ORTHCH:  cpu time      0.0675: real time      0.0679
       DOS:  cpu time      0.0005: real time      0.0005
    CHARGE:  cpu time      0.0645: real time      0.0656
    MIXING:  cpu time      0.0011: real time      0.0011
    --------------------------------------------
      LOOP:  cpu time      2.2378: real time      2.2553

 eigenvalue-minimisations  :  3082
 total energy-change (2. order) : 0.2118864E-01  (-0.3400645E-01)
 number of electron     239.9999995 magnetization      -0.2557694
 augmentation part        1.8219673 magnetization      -0.2293809

 Broyden mixing:
  rms(total) = 0.65745E-01    rms(broyden)= 0.65742E-01
  rms(prec ) = 0.77367E-01
  weight for this iteration     100.00

 eigenvalues of (default mixing * dielectric matrix)
  average eigenvalue GAMMA=   1.2678
  2.5444  1.5633  0.9441  0.6851  0.6022

 Free energy of the ion-electron system (eV)
  ---------------------------------------------------
  alpha Z        PSCENC =       303.27821927
  Ewald energy   TEWEN  =     -8856.82652092
  -Hartree energ DENC   =     -2181.91561917
  -exchange      EXHF   =         0.00000000
  -V(xc)+E(xc)   XCENC  =       537.93739927
  PAW double counting   =      9825.70628362    -9970.10855685
  entropy T*S    EENTRO =        -0.00000000
  eigenvalues    EBANDS =     -2619.45865457
  atomic energy  EATOM  =     12703.13999606
  Solvation  Ediel_sol  =         0.00000000
  ---------------------------------------------------
  free energy    TOTEN  =      -258.24745329 eV

  energy without entropy =     -258.24745329  energy(sigma->0) =     -258.24745329


--------------------------------------------------------------------------------------------------------




--------------------------------------- Iteration      1(  16)  ---------------------------------------


    POTLOK:  cpu time      0.0524: real time      0.0533
    SETDIJ:  cpu time      0.3989: real time      0.4001
    EDDIAG:  cpu time      0.3561: real time      0.3582
  RMM-DIIS:  cpu time      1.3016: real time      1.3128
    ORTHCH:  cpu time      0.0680: real time      0.0684
       DOS:  cpu time      0.0005: real time      0.0005
    CHARGE:  cpu time      0.0650: real time      0.0665
    MIXING:  cpu time      0.0012: real time      0.0012
    --------------------------------------------
      LOOP:  cpu time      2.2437: real time      2.2610

 eigenvalue-minimisations  :  3085
 total energy-change (2. order) :-0.2027740E-01  (-0.1018217E-01)
 number of electron     239.9999995 magnetization      -0.1236982
 augmentation part        1.7994078 magnetization      -0.1099966

 Broyden mixing:
  rms(total) = 0.30988E-01    rms(broyden)= 0.30986E-01
  rms(prec ) = 0.37700E-01
  weight for this iteration     100.00

 eigenvalues of (default mixing * dielectric matrix)
  average eigenvalue GAMMA=   1.2427
  2.4671  1.8992  1.0352  0.6214  0.7032  0.7298

 Free energy of the ion-electron system (eV)
  ---------------------------------------------------
  alpha Z        PSCENC =       303.27821927
  Ewald energy   TEWEN  =     -8856.82652092
  -Hartree energ DENC   =     -2181.47420947
  -exchange      EXHF   =         0.00000000
  -V(xc)+E(xc)   XCENC  =       537.86078469
  PAW double counting   =      9815.24244694    -9959.42465532
  entropy T*S    EENTRO =        -0.00000000
  eigenvalues    EBANDS =     -2620.06379194
  atomic energy  EATOM  =     12703.13999606
[...]
  0.382  -0.393  -0.001   0.469  -0.148   0.043   0.004  -0.001   0.000   0.006  -0.002  -0.004  -0.005   0.001
  0.426  -0.438  -0.001  -0.148   0.415  -0.027  -0.001   0.003  -0.000  -0.005  -0.003   0.002   0.004   0.003
 -0.113   0.116   0.000   0.043  -0.027   0.783   0.000  -0.000   0.006   0.005  -0.005   0.004   0.004  -0.008
  0.003  -0.003  -0.000   0.004  -0.001   0.000   0.000  -0.000   0.000   0.000  -0.000  -0.000  -0.000   0.000
  0.004  -0.003  -0.000  -0.001   0.003  -0.000  -0.000   0.000  -0.000  -0.000  -0.000   0.000   0.000   0.000
 -0.000   0.000   0.000   0.000  -0.000   0.006   0.000  -0.000   0.000   0.000  -0.000   0.000   0.000  -0.000
  0.007  -0.007  -0.000   0.006  -0.005   0.005   0.000  -0.000   0.000   0.000  -0.000  -0.000  -0.000  -0.000
 -0.016   0.016   0.000  -0.002  -0.003  -0.005  -0.000  -0.000  -0.000  -0.000   0.000  -0.000  -0.000  -0.000
 -0.017   0.017   0.000  -0.004   0.002   0.004  -0.000   0.000   0.000  -0.000  -0.000   0.000   0.000  -0.000
 -0.003   0.004   0.000  -0.005   0.004   0.004  -0.000   0.000   0.000  -0.000  -0.000   0.000   0.000  -0.000
  0.020  -0.020  -0.000   0.001   0.003  -0.008   0.000   0.000  -0.000  -0.000  -0.000  -0.000  -0.000   0.000
 total augmentation occupancy for first ion, spin component:           2
  0.000  -0.000   0.000   0.000  -0.000  -0.000   0.000  -0.000   0.000   0.000   0.000  -0.000  -0.000  -0.000
 -0.000   0.000  -0.000  -0.000   0.000   0.000  -0.000   0.000   0.000  -0.000  -0.000  -0.000   0.000   0.000
  0.000  -0.000  -0.000  -0.000   0.000   0.000  -0.000   0.000   0.000   0.000  -0.000   0.000   0.000  -0.000
  0.000  -0.000  -0.000  -0.000  -0.000  -0.000  -0.000   0.000   0.000   0.000   0.000  -0.000  -0.000  -0.000
 -0.000   0.000   0.000  -0.000   0.000   0.000  -0.000   0.000   0.000  -0.000  -0.000   0.000   0.000   0.000
 -0.000   0.000   0.000  -0.000   0.000   0.000  -0.000   0.000   0.000  -0.000  -0.000  -0.000   0.000   0.000
  0.000  -0.000  -0.000  -0.000  -0.000  -0.000  -0.000   0.000   0.000  -0.000   0.000   0.000   0.000   0.000
 -0.000   0.000   0.000   0.000   0.000   0.000   0.000   0.000   0.000  -0.000  -0.000   0.000   0.000  -0.000
  0.000   0.000   0.000   0.000   0.000   0.000   0.000   0.000   0.000  -0.000  -0.000  -0.000  -0.000   0.000
  0.000  -0.000   0.000   0.000  -0.000  -0.000  -0.000  -0.000  -0.000   0.000   0.000  -0.000  -0.000   0.000
  0.000  -0.000  -0.000   0.000  -0.000  -0.000   0.000  -0.000  -0.000   0.000   0.000  -0.000  -0.000   0.000
 -0.000  -0.000   0.000  -0.000   0.000  -0.000   0.000   0.000  -0.000  -0.000  -0.000  -0.000   0.000   0.000
 -0.000   0.000   0.000  -0.000   0.000   0.000   0.000   0.000  -0.000  -0.000  -0.000   0.000   0.000   0.000
 -0.000   0.000  -0.000  -0.000   0.000   0.000   0.000  -0.000   0.000   0.000   0.000   0.000   0.000   0.000


------------------------ aborting loop because EDIFF is reached ----------------------------------------


    CHARGE:  cpu time      0.0652: real time      0.0658
    FORLOC:  cpu time      0.0038: real time      0.0038
    FORNL :  cpu time      0.3989: real time      0.4017
    STRESS:  cpu time      1.1923: real time      1.2012
    FORCOR:  cpu time      0.0503: real time      0.0507
    FORHAR:  cpu time      0.0083: real time      0.0084
    MIXING:  cpu time      0.0007: real time      0.0007
    OFIELD:  cpu time      0.0000: real time      0.0000

 ---------------------------------------------------------------------------------------------

         DFTD3 V3.0 Rev 1        
 Edisp (eV)  -13.68414

 E6    (eV) :    -8.4311
 E8    (eV) :    -5.2530
 % E8        : 38.39
    FORVDW:  cpu time      0.2921: real time      0.2943

  FORCE on cell =-STRESS in cart. coord.  units (eV):
  Direction    XX          YY          ZZ          XY          YZ          ZX
  --------------------------------------------------------------------------------------
  Alpha Z   303.27822   303.27822   303.27822
  Ewald   -2966.23523 -2897.21614 -2993.42950    24.85889    -8.78141     5.85775
  Hartree   720.10330   760.52702   703.33727     5.68494     0.79058     6.28405
  E(xc)    -947.75882  -947.70065  -947.82740     0.02475    -0.04097    -0.00341
  Local   -1464.01012 -1572.17085 -1421.24973   -27.99760     6.37586   -13.38771
  n-local  1481.01716  1481.88674  1481.20836     0.50215    -0.81779     0.13844
  augment  -356.82266  -356.97467  -356.98539    -0.08735    -0.06147    -0.11157
  Kinetic  3243.84720  3244.45658  3245.55459    -0.50264     2.69214     1.59198
  Fock        0.00000     0.00000     0.00000     0.00000     0.00000     0.00000
  vdW       -14.46540   -14.45934   -14.48075     0.00289    -0.00446     0.01279
  -------------------------------------------------------------------------------------
  Total      -1.04637     1.62690    -0.59433     2.48603     0.15248     0.38232
  in kB      -1.87299     2.91212    -1.06385     4.44996     0.27294     0.68435
  external pressure =       -0.01 kB  Pullay stress =        0.00 kB


 VOLUME and BASIS-vectors are now :
 -----------------------------------------------------------------------------
  energy-cutoff  :      520.00
  volume of cell :      895.08
      direct lattice vectors                 reciprocal lattice vectors
     9.637259276  0.000000000  0.000000000     0.103763941  0.000000000  0.000000000
     0.000000000  9.637259276  0.000000000     0.000000000  0.103763941  0.000000000
     0.000000000  0.000000000  9.637259276     0.000000000  0.000000000  0.103763941

  length of vectors
     9.637259276  9.637259276  9.637259276     0.103763941  0.103763941  0.103763941


 FORCES acting on ions
    electron-ion (+dipol)            ewald-force                    non-local-force                 convergence-correction
 -----------------------------------------------------------------------------------------------
   -.846E+01 -.337E+01 0.847E+00   0.814E+01 0.437E+01 0.239E+00   0.318E+00 -.100E+01 -.109E+01   -.788E-05 -.413E-04 0.472E-04
   0.121E+01 -.982E+01 -.877E+01   -.112E+01 0.868E+01 0.772E+01   -.860E-01 0.114E+01 0.106E+01   -.834E-04 0.468E-04 -.860E-06
   -.403E+01 0.118E+02 -.121E+02   0.482E+01 -.105E+02 0.107E+02   -.784E+00 -.131E+01 0.137E+01   -.386E-05 -.188E-04 0.944E-04
   -.759E-02 0.159E+01 0.218E+01   0.151E+01 -.292E+01 -.105E+01   -.150E+01 0.133E+01 -.113E+01   -.153E-03 0.156E-04 0.751E-04
   -.627E+01 -.926E+01 0.143E+01   0.478E+01 0.796E+01 -.209E+01   0.148E+01 0.131E+01 0.663E+00   0.518E-04 -.671E-04 0.518E-04
   0.113E+02 0.126E+02 -.123E+02   -.115E+02 -.119E+02 0.115E+02   0.154E+00 -.711E+00 0.788E+00   0.176E-06 0.103E-04 0.613E-04
   0.719E+01 -.291E+00 0.683E+01   -.602E+01 -.736E+00 -.601E+01   -.118E+01 0.103E+01 -.811E+00   0.754E-04 0.778E-04 0.499E-06
   -.109E+01 0.165E+01 -.228E-01   0.177E+01 -.479E+00 0.943E-01   -.681E+00 -.118E+01 -.707E-01   0.163E-03 -.620E-05 0.105E-03
   0.884E+01 -.524E+00 0.324E+01   -.810E+01 -.643E+00 -.171E+01   -.733E+00 0.116E+01 -.152E+01   0.645E-04 0.163E-03 0.239E-04
   0.240E+01 0.415E+01 0.557E+01   -.330E+01 -.350E+01 -.438E+01   0.899E+00 -.640E+00 -.120E+01   -.827E-04 -.846E-04 0.192E-03
   -.311E+01 -.244E+01 0.354E+01   0.402E+01 0.257E+01 -.230E+01   -.911E+00 -.137E+00 -.124E+01   0.405E-04 -.741E-04 -.524E-04
   -.140E+00 0.314E+00 0.446E+01   -.906E+00 0.283E+00 -.342E+01   0.105E+01 -.592E+00 -.104E+01   -.724E-04 -.138E-03 0.656E-04
   0.361E+01 0.837E+01 0.640E+01   -.264E+01 -.663E+01 -.809E+01   -.968E+00 -.174E+01 0.169E+01   -.990E-05 0.761E-04 0.720E-04
   0.673E+01 -.978E+01 0.134E+02   -.556E+01 0.797E+01 -.128E+02   -.117E+01 0.181E+01 -.627E+00   0.755E-04 0.464E-04 -.398E-04
   -.118E+02 0.884E+01 0.990E+01   0.107E+02 -.754E+01 -.974E+01   0.107E+01 -.130E+01 -.155E+00   -.232E-05 0.713E-04 -.128E-03
   -.804E+01 -.516E+01 0.101E+02   0.701E+01 0.391E+01 -.107E+02   0.102E+01 0.125E+01 0.673E+00   0.409E-05 -.268E-04 -.161E-03
   -.497E+01 -.576E+00 -.866E+00   0.582E+01 0.286E-01 0.167E+01   -.857E+00 0.543E+00 -.800E+00   -.276E-04 0.126E-03 0.411E-04
   -.431E+01 -.335E+01 0.846E+01   0.237E+01 0.502E+01 -.711E+01   0.193E+01 -.168E+01 -.135E+01   0.692E-04 0.246E-04 -.254E-04
   0.207E+01 -.216E+01 -.532E+01   -.661E+00 0.125E+01 0.561E+01   -.141E+01 0.904E+00 -.298E+00   0.666E-04 0.349E-04 -.939E-05
   -.164E+01 0.294E+01 -.334E+01   0.800E+00 -.271E+01 0.432E+01   0.849E+00 -.228E+00 -.975E+00   0.368E-04 0.328E-04 0.126E-04
   0.486E+00 -.618E+01 0.867E-01   -.125E+01 0.727E+01 0.814E+00   0.760E+00 -.110E+01 -.904E+00   -.195E-04 -.948E-04 0.742E-04
   0.210E+01 -.108E+02 -.763E+01   -.427E+01 0.903E+01 0.606E+01   0.217E+01 0.173E+01 0.157E+01   0.690E-04 -.508E-04 -.134E-04
   0.559E+01 0.957E+01 -.543E+01   -.450E+01 -.826E+01 0.426E+01   -.108E+01 -.130E+01 0.117E+01   0.689E-04 0.611E-05 -.799E-04
   0.986E+01 -.124E+02 0.105E+01   -.918E+01 0.117E+02 -.674E+00   -.685E+00 0.775E+00 -.382E+00   0.387E-04 -.412E-04 -.120E-03
   0.846E+01 0.113E+02 0.156E+01   -.845E+01 -.121E+02 -.186E+01   -.138E-01 0.732E+00 0.300E+00   0.961E-04 0.840E-04 0.548E-05
   0.102E+00 -.412E+01 0.354E+00   -.365E+00 0.421E+01 -.201E+00   0.256E+00 -.864E-01 -.141E+00   -.759E-04 0.498E-04 0.394E-04
   -.666E+01 -.388E+00 -.135E+02   0.755E+01 0.766E+00 0.134E+02   -.880E+00 -.381E+00 0.920E-01   -.968E-05 -.301E-04 0.140E-03
   -.735E+01 -.460E+01 0.578E+01   0.789E+01 0.517E+01 -.622E+01   -.529E+00 -.562E+00 0.444E+00   -.330E-03 -.545E-04 0.817E-04
   -.384E+02 0.436E+02 -.388E+02   0.407E+02 -.470E+02 0.419E+02   -.226E+01 0.343E+01 -.307E+01   0.111E-03 -.684E-04 0.132E-03
   -.680E+02 -.255E+02 0.515E+02   0.724E+02 0.267E+02 -.551E+02   -.444E+01 -.118E+01 0.357E+01   -.405E-04 0.132E-03 -.485E-03
   0.530E+02 0.225E+02 0.347E+02   -.572E+02 -.247E+02 -.370E+02   0.418E+01 0.220E+01 0.230E+01   -.828E-04 -.197E-03 -.199E-03
   0.263E+02 -.461E+02 -.401E+02   -.286E+02 0.493E+02 0.431E+02   0.228E+01 -.316E+01 -.306E+01   0.135E-03 -.344E-03 -.180E-03
   0.166E+02 -.210E+02 -.629E+02   -.193E+02 0.239E+02 0.670E+02   0.267E+01 -.287E+01 -.410E+01   -.146E-03 0.116E-03 0.748E-04
   0.295E+02 0.476E+02 0.303E+02   -.319E+02 -.511E+02 -.333E+02   0.241E+01 0.348E+01 0.305E+01   -.247E-03 -.358E-03 0.587E-05
   -.574E+02 -.520E+02 0.220E+02   0.609E+02 0.556E+02 -.239E+02   -.353E+01 -.359E+01 0.198E+01   -.307E-03 -.343E-03 -.117E-03
   -.395E+02 0.352E+02 -.513E+02   0.426E+02 -.381E+02 0.546E+02   -.304E+01 0.288E+01 -.330E+01   -.298E-03 0.988E-04 -.234E-03
   -.497E+02 -.384E+02 0.228E+02   0.535E+02 0.411E+02 -.253E+02   -.388E+01 -.262E+01 0.249E+01   -.183E-03 -.500E-04 0.731E-04
   -.249E+02 0.450E+02 -.423E+02   0.271E+02 -.483E+02 0.458E+02   -.217E+01 0.324E+01 -.346E+01   0.178E-03 0.596E-04 0.187E-03
   0.512E+02 -.460E+02 -.551E+02   -.546E+02 0.483E+02 0.582E+02   0.342E+01 -.230E+01 -.307E+01   -.102E-03 -.516E-04 -.328E-04
   0.564E+02 0.381E+02 0.315E+02   -.602E+02 -.411E+02 -.339E+02   0.381E+01 0.298E+01 0.239E+01   -.153E-03 0.245E-03 0.129E-03
   -.317E+02 -.417E+02 0.550E+02   0.341E+02 0.451E+02 -.578E+02   -.248E+01 -.334E+01 0.290E+01   0.110E-03 0.218E-03 -.315E-04
   -.311E+02 0.412E+02 -.414E+02   0.341E+02 -.448E+02 0.444E+02   -.300E+01 0.356E+01 -.299E+01   -.160E-03 0.153E-03 -.133E-03
   0.572E+02 -.177E+02 -.418E+02   -.606E+02 0.204E+02 0.448E+02   0.331E+01 -.265E+01 -.299E+01   -.198E-04 0.915E-04 -.703E-04
   0.478E+02 0.449E+02 0.488E+02   -.508E+02 -.475E+02 -.524E+02   0.295E+01 0.255E+01 0.359E+01   0.127E-04 -.156E-03 -.228E-04
   -.929E+01 -.584E+01 -.151E+02   0.935E+01 0.603E+01 0.152E+02   -.680E-01 -.190E+00 -.115E+00   0.182E-04 0.883E-04 -.618E-04
   -.436E+01 -.203E+00 -.140E+02   0.438E+01 0.152E+00 0.143E+02   -.168E-01 0.520E-01 -.293E+00   -.755E-05 0.547E-05 0.265E-04
   -.308E+01 0.404E+01 -.135E+01   0.319E+01 -.398E+01 0.133E+01   -.116E+00 -.620E-01 0.222E-01   -.735E-05 0.193E-03 0.429E-04
   -.201E+01 -.279E+01 -.125E+02   0.196E+01 0.278E+01 0.126E+02   0.494E-01 0.896E-02 -.161E+00   0.294E-04 -.187E-03 0.109E-03
   -.532E+01 -.881E+01 0.162E+02   0.521E+01 0.894E+01 -.165E+02   0.118E+00 -.137E+00 0.262E+00   0.114E-03 0.488E-04 0.545E-05
   -.142E+02 0.741E+01 0.466E+02   0.144E+02 -.754E+01 -.475E+02   -.173E+00 0.120E+00 0.902E+00   -.221E-03 0.225E-03 -.977E-05
   0.114E+02 -.181E+02 0.371E+02   -.115E+02 0.187E+02 -.376E+02   0.770E-01 -.569E+00 0.528E+00   0.228E-03 -.125E-03 -.434E-04
   0.283E+02 0.486E+01 0.108E+02   -.287E+02 -.508E+01 -.109E+02   0.377E+00 0.216E+00 0.760E-02   0.646E-04 -.668E-04 0.928E-04
 -----------------------------------------------------------------------------------------------
   0.103E+01 -.181E+01 0.654E+01   0.355E-14 0.124E-13 -.799E-13   -.104E+01 0.180E+01 -.655E+01   -.933E-03 -.135E-03 -.188E-03
 
 
 POSITION                                       TOTAL-FORCE (eV/Angst)
 -----------------------------------------------------------------------------------
      9.63276      2.03051      1.88408         0.000266     -0.000232      0.000093
      9.23073      7.95355      7.97967        -0.000040      0.000003      0.000115
      0.46689      1.66056      8.02418         0.000189      0.000015      0.000119
      0.20020      7.73941      2.08841         0.000073      0.000263      0.000113
      3.22939      2.94654      9.27920         0.000049     -0.000007      0.000097
      4.79492      6.33993      8.07667        -0.000034     -0.000008      0.000080
      6.74900      2.90925      0.14487         0.000191      0.000093     -0.000040
      7.00251      6.63076      9.47531        -0.000008     -0.000290     -0.000059
      2.25415      8.75858      0.66108         0.000066     -0.000814     -0.000523
      2.79385      0.16685      6.39971        -0.000141      0.000287     -0.000674
      6.91184      9.45606      6.51071         0.000071      0.000107     -0.000042
      7.65243      0.23180      1.62606        -0.000144      0.000032     -0.000347
      1.77994      6.58545      4.50936        -0.000026     -0.000104      0.000017
      1.90101      2.88377      4.90961        -0.000149      0.000252      0.000037
      8.07145      6.76215      5.01015        -0.000031      0.000074      0.000020
      8.04251      3.02895      4.46329        -0.000015     -0.000018      0.000079
      1.58876      4.54611      7.01967        -0.000211      0.000008      0.000272
      3.21465      5.30426      1.77171         0.000058     -0.000021      0.000075
      6.63193      4.62441      2.16602        -0.000036     -0.000027      0.000120
      7.91865      5.00612      6.92231        -0.000004      0.000043     -0.000089
      4.73322      2.02148      6.69275         0.000129      0.000016      0.000048
      4.39435      8.20355      2.94826        -0.000112      0.000260     -0.000041
      5.23575      1.73483      3.06472         0.000072      0.000022     -0.000136
      5.19521      7.57412      5.76547        -0.000289      0.000147      0.000274
      4.85999      4.82074      4.84454         0.000106     -0.000123      0.000348
      4.91219      9.59224      9.51010         0.000138      0.000150     -0.000198
      0.16754      4.87178      0.14517        -0.000077      0.000510      0.000587
      0.02398      0.05107      4.79065         0.000560     -0.000285     -0.000106
      0.97041      8.31829      6.01287        -0.000184     -0.000094      0.000198
      1.35188      1.01212      3.59847        -0.000059     -0.000073      0.000372
      8.27183      8.67216      3.65841        -0.000352      0.000105      0.000000
      8.66435      1.33306      6.05371        -0.000072      0.000068      0.000141
      8.54311      5.88041      1.42159         0.000033      0.000020      0.000071
      8.70246      3.59391      8.58376         0.000056     -0.000072     -0.000330
      1.18819      6.21807      8.65007         0.000049     -0.000125      0.000240
      1.49055      3.70373      1.18096         0.000024      0.000031     -0.000082
      6.18524      1.10751      8.38836         0.000116     -0.000037      0.000094
      5.96840      8.32122      1.09896        -0.000072     -0.000143     -0.000071
      3.76272      1.09860      1.12562         0.000028     -0.000213     -0.000155
      3.67509      8.48938      8.29811        -0.000016     -0.000042     -0.000472
      5.92644      6.24680      3.79492         0.000036      0.000114     -0.000025
      6.17356      3.68616      5.92961        -0.000189      0.000212     -0.000210
      3.55241      5.84998      6.07599        -0.000136     -0.000019      0.000174
      3.79225      3.65952      3.55738        -0.000027     -0.000102     -0.000132
      7.07663      7.17165      7.20587         0.000014      0.000000      0.000016
      7.34969      2.41922      2.33849         0.000074     -0.000017     -0.000039
      2.38900      7.30035      2.45351         0.000054     -0.000045     -0.000024
      2.50677      2.39094      7.13332         0.000020      0.000094      0.000042
      0.00657      9.60940      0.17788         0.000010      0.000027     -0.000084
      0.02260      4.83658      5.09351         0.000001     -0.000047      0.000022
      4.87962      0.11187      4.97628         0.000004      0.000027      0.000010
      5.10208      4.74568      0.14906        -0.000063     -0.000021      0.000008
 -----------------------------------------------------------------------------------
    total drift:                               -0.011159     -0.002834     -0.012571


--------------------------------------------------------------------------------------------------------



  FREE ENERGIE OF THE ION-ELECTRON SYSTEM (eV)
  ---------------------------------------------------
  free  energy   TOTEN  =      -271.95900634 eV

  energy  without entropy=     -271.95900634  energy(sigma->0) =     -271.95900634
 
 d Force = 0.5412275E-06[ 0.417E-06, 0.666E-06]  d Energy = 0.1543654E-05-0.100E-05
 d Force = 0.5124274E-02[ 0.512E-02, 0.512E-02]  d Ewald  = 0.5124274E-02-0.909E-11


--------------------------------------------------------------------------------------------------------


    POTLOK:  cpu time      0.4587: real time      0.4603


--------------------------------------------------------------------------------------------------------


 stress matrix after NEB project (eV)
     -1.04637      2.48603      0.38232
      2.48603      1.62690      0.15248
      0.38232      0.15248     -0.59433
  FORCES: max atom, RMS     0.000970    0.000314
  FORCE total and by dimension    0.002263    0.000814
  Stress total and by dimension    4.098103    2.486030


--------------------------------------------------------------------------------------------------------


  
 reached required accuracy - stopping structural energy minimisation
     LOOP+:  cpu time      7.6873: real time      7.7568
    4ORBIT:  cpu time      0.0000: real time      0.0000

 total amount of memory used by VASP MPI-rank0    48172. kBytes
=======================================================================

   base      :      30000. kBytes
   nonlr-proj:       6602. kBytes
   fftplans  :       1747. kBytes
   grid      :       5278. kBytes
   one-center:         62. kBytes
   wavefun   :       4483. kBytes
 
  
  
 General timing and accounting informations for this job:
 ========================================================
  
                  Total CPU time used (sec):      107.005
                            User time (sec):      105.827
                          System time (sec):        1.178
                         Elapsed time (sec):      110.878
  
                   Maximum memory used (kb):      376884.
                   Average memory used (kb):          N/A
  
                          Minor page faults:        57047
                          Major page faults:          141
                 Voluntary context switches:         3552
