unknown system                          
           1
     9.637259    0.000000    0.000000
     0.000000    9.637259    0.000000
     0.000000    0.000000    9.637259
   Li   P    S    Cl
    24     4    20     4
Direct configuration=     1
   0.99952604  0.21070483  0.19549603
   0.95782172  0.82529018  0.82799696
   0.04843952  0.17230623  0.83261409
   0.02077386  0.80306267  0.21669786
   0.33509072  0.30574487  0.96284477
   0.49754222  0.65785603  0.83806473
   0.70029560  0.30187025  0.01503434
   0.72660886  0.68804838  0.98319689
   0.23389691  0.90885704  0.06861852
   0.28990789  0.01730405  0.66408541
   0.71719763  0.98119650  0.67558390
   0.79405265  0.02405250  0.16873930
   0.18469589  0.68333915  0.46790890
   0.19726314  0.29922089  0.50944055
   0.83752683  0.70166314  0.51987570
   0.83452286  0.31429604  0.46312867
   0.16486607  0.47172392  0.72837823
   0.33356071  0.55039084  0.18383455
   0.68815853  0.47984767  0.22474806
   0.82166852  0.51945278  0.71829049
   0.49113391  0.20975979  0.69446335
   0.45598048  0.85122218  0.30592380
   0.54328180  0.18001252  0.31801430
   0.53908864  0.78591521  0.59823737
   0.50428894  0.50021787  0.50268798
   0.50970670  0.99533036  0.98680754
   0.01737324  0.50551533  0.01506119
   0.00250156  0.00529220  0.49708571
   0.10069831  0.86314532  0.62391475
   0.14026754  0.10502498  0.37338314
   0.85832226  0.89984861  0.37961137
   0.89903886  0.13832412  0.62815734
   0.88646941  0.61017057  0.14749801
   0.90299448  0.37290997  0.89068474
   0.12328917  0.64520692  0.89755224
   0.15466735  0.38431097  0.12253893
   0.64179843  0.11492086  0.87040616
   0.61930960  0.86345037  0.11403969
   0.39043971  0.11400587  0.11680174
   0.38133523  0.88088396  0.86106351
   0.61495503  0.64818958  0.39377070
   0.64059138  0.38248947  0.61527925
   0.36861574  0.60702145  0.63046595
   0.39349670  0.37972770  0.36912686
   0.73429994  0.74415876  0.74770917
   0.76262873  0.25102904  0.24265355
   0.24789338  0.75751511  0.25458194
   0.26010974  0.24809020  0.74018190
   0.00067925  0.99710815  0.01845434
   0.00234396  0.50186258  0.52852666
   0.50632597  0.01160357  0.51636366
   0.52941184  0.49243194  0.01546665
Direct configuration=     2
   0.99952728  0.21070298  0.19549654
   0.95782098  0.82529045  0.82799786
   0.04844057  0.17230622  0.83261509
   0.02077386  0.80306426  0.21669849
   0.33509132  0.30574484  0.96284518
   0.49754180  0.65785605  0.83806508
   0.70029675  0.30187099  0.01503399
   0.72660866  0.68804609  0.98319658
   0.23389724  0.90885179  0.06861505
   0.28990687  0.01730554  0.66408123
   0.71719819  0.98119689  0.67558285
   0.79405156  0.02405245  0.16873726
   0.18469547  0.68333798  0.46790901
   0.19726193  0.29922252  0.50944065
   0.83752646  0.70166384  0.51987540
   0.83452283  0.31429579  0.46312885
   0.16486448  0.47172377  0.72838003
   0.33356137  0.55039072  0.18383528
   0.68815782  0.47984745  0.22474921
   0.82166875  0.51945310  0.71828984
   0.49113448  0.20975938  0.69446380
   0.45597972  0.85122386  0.30592368
   0.54328189  0.18001246  0.31801323
   0.53908659  0.78591599  0.59823913
   0.50429065  0.50021761  0.50268844
   0.50970716  0.99533048  0.98680817
   0.01737864  0.50551487  0.01506055
   0.00249711  0.00529594  0.49708925
   0.10069819  0.86314316  0.62391619
   0.14027019  0.10502498  0.37338341
   0.85832130  0.89985001  0.37961124
   0.89904196  0.13832160  0.62815508
   0.88646760  0.61017239  0.14750182
   0.90299561  0.37291112  0.89068487
   0.12328843  0.64520633  0.89755555
   0.15466557  0.38431274  0.12253832
   0.64179946  0.11492047  0.87040667
   0.61930849  0.86344935  0.11403840
   0.39043923  0.11400367  0.11680091
   0.38133607  0.88088491  0.86106013
   0.61495405  0.64818985  0.39377175
   0.64059090  0.38249009  0.61527868
   0.36861477  0.60702086  0.63046675
   0.39349691  0.37972728  0.36912684
   0.73429974  0.74415879  0.74770915
   0.76262943  0.25102890  0.24265330
   0.24789311  0.75751474  0.25458261
   0.26011026  0.24809058  0.74018180
   0.00067964  0.99710869  0.01845445
   0.00234427  0.50186257  0.52852517
   0.50632648  0.01160480  0.51636200
   0.52941137  0.49243129  0.01546665
Direct configuration=     3
   0.99952794  0.21070200  0.19549681
   0.95782059  0.82529059  0.82799834
   0.04844112  0.17230622  0.83261562
   0.02077385  0.80306511  0.21669882
   0.33509164  0.30574482  0.96284540
   0.49754158  0.65785606  0.83806527
   0.70029735  0.30187138  0.01503381
   0.72660855  0.68804488  0.98319642
   0.23389742  0.90884901  0.06861321
   0.28990633  0.01730634  0.66407901
   0.71719850  0.98119711  0.67558229
   0.79405097  0.02405241  0.16873618
   0.18469524  0.68333736  0.46790907
   0.19726128  0.29922338  0.50944070
   0.83752626  0.70166421  0.51987525
   0.83452281  0.31429565  0.46312894
   0.16486363  0.47172369  0.72838099
   0.33356172  0.55039065  0.18383566
   0.68815745  0.47984733  0.22474982
   0.82166888  0.51945328  0.71828950
   0.49113478  0.20975917  0.69446404
   0.45597931  0.85122476  0.30592362
   0.54328193  0.18001243  0.31801267
   0.53908550  0.78591640  0.59824006
   0.50429155  0.50021748  0.50268869
   0.50970741  0.99533054  0.98680850
   0.01738150  0.50551463  0.01506020
   0.00249475  0.00529793  0.49709113
   0.10069813  0.86314202  0.62391695
   0.14027160  0.10502498  0.37338356
   0.85832078  0.89985075  0.37961117
   0.89904361  0.13832025  0.62815388
   0.88646664  0.61017335  0.14750384
   0.90299621  0.37291173  0.89068493
   0.12328804  0.64520601  0.89755731
   0.15466462  0.38431367  0.12253800
   0.64180002  0.11492026  0.87040694
   0.61930790  0.86344881  0.11403772
   0.39043897  0.11400250  0.11680046
   0.38133652  0.88088542  0.86105834
   0.61495353  0.64818999  0.39377230
   0.64059065  0.38249041  0.61527837
   0.36861425  0.60702054  0.63046717
   0.39349702  0.37972705  0.36912682
   0.73429963  0.74415881  0.74770915
   0.76262980  0.25102882  0.24265316
   0.24789297  0.75751454  0.25458296
   0.26011054  0.24809078  0.74018175
   0.00067985  0.99710897  0.01845451
   0.00234443  0.50186257  0.52852437
   0.50632676  0.01160546  0.51636112
   0.52941111  0.49243095  0.01546666
Direct configuration=     4
   0.99952925  0.21070004  0.19549734
   0.95781980  0.82529088  0.82799930
   0.04844223  0.17230622  0.83261669
   0.02077385  0.80306680  0.21669948
   0.33509228  0.30574479  0.96284584
   0.49754113  0.65785608  0.83806565
   0.70029857  0.30187217  0.01503344
   0.72660834  0.68804245  0.98319610
   0.23389778  0.90884343  0.06860952
   0.28990525  0.01730792  0.66407456
   0.71719910  0.98119753  0.67558117
   0.79404981  0.02405235  0.16873401
   0.18469479  0.68333612  0.46790919
   0.19725998  0.29922511  0.50944081
   0.83752587  0.70166495  0.51987493
   0.83452277  0.31429539  0.46312913
   0.16486193  0.47172353  0.72838290
   0.33356242  0.55039051  0.18383644
   0.68815670  0.47984710  0.22475105
   0.82166913  0.51945362  0.71828880
   0.49113538  0.20975874  0.69446451
   0.45597850  0.85122655  0.30592349
   0.54328203  0.18001236  0.31801153
   0.53908333  0.78591723  0.59824193
   0.50429337  0.50021720  0.50268918
   0.50970790  0.99533067  0.98680917
   0.01738724  0.50551414  0.01505952
   0.00249002  0.00530190  0.49709489
   0.10069801  0.86313972  0.62391849
   0.14027442  0.10502499  0.37338385
   0.85831975  0.89985224  0.37961102
   0.89904690  0.13831757  0.62815147
   0.88646471  0.61017529  0.14750790
   0.90299741  0.37291295  0.89068506
   0.12328726  0.64520538  0.89756083
   0.15466272  0.38431555  0.12253736
   0.64180112  0.11491985  0.87040748
   0.61930673  0.86344773  0.11403635
   0.39043846  0.11400016  0.11679958
   0.38133742  0.88088643  0.86105475
   0.61495249  0.64819027  0.39377341
   0.64059014  0.38249107  0.61527776
   0.36861322  0.60701990  0.63046801
   0.39349724  0.37972660  0.36912679
   0.73429942  0.74415885  0.74770913
   0.76263054  0.25102867  0.24265290
   0.24789268  0.75751415  0.25458368
   0.26011110  0.24809119  0.74018164
   0.00068027  0.99710954  0.01845463
   0.00234477  0.50186256  0.52852277
   0.50632731  0.01160678  0.51635936
   0.52941061  0.49243026  0.01546666
Direct configuration=     5
   0.99953120  0.21069708  0.19549820
   0.95781862  0.82529130  0.82800063
   0.04844419  0.17230625  0.83261845
   0.02077359  0.80306918  0.21670054
   0.33509335  0.30574476  0.96284618
   0.49754043  0.65785616  0.83806613
   0.70030051  0.30187343  0.01503287
   0.72660842  0.68803874  0.98319592
   0.23389842  0.90883490  0.06860366
   0.28990351  0.01731014  0.66406751
   0.71719954  0.98119761  0.67557943
   0.79404816  0.02405223  0.16873065
   0.18469410  0.68333443  0.46790930
   0.19725823  0.29922769  0.50944061
   0.83752552  0.70166622  0.51987423
   0.83452281  0.31429539  0.46312867
   0.16485950  0.47172319  0.72838531
   0.33356368  0.55039050  0.18383763
   0.68815592  0.47984694  0.22475254
   0.82166960  0.51945421  0.71828781
   0.49113612  0.20975804  0.69446513
   0.45597713  0.85122929  0.30592324
   0.54328225  0.18001235  0.31800971
   0.53907987  0.78591862  0.59824465
   0.50429255  0.50021779  0.50268909
   0.50970793  0.99532971  0.98680762
   0.01738611  0.50551474  0.01506112
   0.00248923  0.00530090  0.49709594
   0.10069607  0.86313914  0.62391853
   0.14027529  0.10502324  0.37338721
   0.85831874  0.89985468  0.37961118
   0.89904684  0.13832029  0.62815396
   0.88646578  0.61017517  0.14750897
   0.90299939  0.37291537  0.89068507
   0.12328903  0.64520794  0.89756271
   0.15466376  0.38431486  0.12253921
   0.64180301  0.11491989  0.87040815
   0.61930569  0.86344548  0.11403482
   0.39043693  0.11399781  0.11679900
   0.38133936  0.88088852  0.86105017
   0.61495159  0.64819112  0.39377429
   0.64059115  0.38249064  0.61527857
   0.36861277  0.60701847  0.63046848
   0.39349811  0.37972649  0.36912721
   0.73429913  0.74415879  0.74770906
   0.76263154  0.25102849  0.24265214
   0.24789231  0.75751365  0.25458444
   0.26011180  0.24809194  0.74018149
   0.00068088  0.99710962  0.01845572
   0.00234482  0.50186257  0.52852273
   0.50632798  0.01160742  0.51635877
   0.52941102  0.49243013  0.01546677
Direct configuration=     6
   0.99953360  0.21069341  0.19549926
   0.95781716  0.82529181  0.82800227
   0.04844661  0.17230629  0.83262064
   0.02077326  0.80307213  0.21670184
   0.33509467  0.30574474  0.96284661
   0.49753956  0.65785627  0.83806673
   0.70030292  0.30187500  0.01503217
   0.72660852  0.68803415  0.98319571
   0.23389921  0.90882434  0.06859642
   0.28990135  0.01731287  0.66405879
   0.71720008  0.98119770  0.67557729
   0.79404612  0.02405207  0.16872649
   0.18469323  0.68333234  0.46790944
   0.19725607  0.29923088  0.50944037
   0.83752510  0.70166778  0.51987336
   0.83452285  0.31429539  0.46312809
   0.16485650  0.47172277  0.72838829
   0.33356524  0.55039049  0.18383910
   0.68815494  0.47984674  0.22475439
   0.82167017  0.51945495  0.71828657
   0.49113705  0.20975718  0.69446588
   0.45597542  0.85123269  0.30592294
   0.54328252  0.18001234  0.31800745
   0.53907560  0.78592034  0.59824803
   0.50429154  0.50021851  0.50268899
   0.50970796  0.99532853  0.98680571
   0.01738471  0.50551548  0.01506311
   0.00248825  0.00529966  0.49709723
   0.10069367  0.86313842  0.62391858
   0.14027638  0.10502108  0.37339138
   0.85831748  0.89985770  0.37961138
   0.89904676  0.13832365  0.62815704
   0.88646711  0.61017503  0.14751030
   0.90300185  0.37291836  0.89068508
   0.12329122  0.64521110  0.89756503
   0.15466504  0.38431401  0.12254150
   0.64180536  0.11491992  0.87040898
   0.61930440  0.86344270  0.11403292
   0.39043504  0.11399490  0.11679828
   0.38134175  0.88089110  0.86104450
   0.61495048  0.64819218  0.39377538
   0.64059240  0.38249011  0.61527958
   0.36861221  0.60701670  0.63046907
   0.39349918  0.37972634  0.36912773
   0.73429876  0.74415871  0.74770896
   0.76263278  0.25102826  0.24265120
   0.24789185  0.75751303  0.25458538
   0.26011266  0.24809287  0.74018129
   0.00068164  0.99710972  0.01845706
   0.00234488  0.50186258  0.52852269
   0.50632880  0.01160821  0.51635803
   0.52941153  0.49242996  0.01546691
