  52  52   0   4
  0.1733615E+02  0.9660183E-09  0.9660183E-09  0.9660183E-09  0.2000000E-15
  1.000000000000000E-004
  CAR 
 unknown system                          
     12.58230262    -45.24978007  301      2.02794753      1.00000000
    -45.250  0.0000E+00  0.0000E+00  0.0000E+00  0.0000E+00
    -45.057  0.0000E+00  0.0000E+00  0.0000E+00  0.0000E+00
    -44.864  0.0000E+00  0.0000E+00  0.0000E+00  0.0000E+00
    -44.671  0.0000E+00  0.0000E+00  0.0000E+00  0.0000E+00
    -44.479  0.0000E+00  0.0000E+00  0.0000E+00  0.0000E+00
    -44.286  0.0000E+00  0.0000E+00  0.0000E+00  0.0000E+00
    -44.093  0.0000E+00  0.0000E+00  0.0000E+00  0.0000E+00
    -43.900  0.0000E+00  0.0000E+00  0.0000E+00  0.0000E+00
    -43.708  0.0000E+00  0.0000E+00  0.0000E+00  0.0000E+00
    -43.515  0.0000E+00  0.0000E+00  0.0000E+00  0.0000E+00
    -43.322  0.0000E+00  0.0000E+00  0.0000E+00  0.0000E+00
    -43.129  0.0000E+00  0.0000E+00  0.0000E+00  0.0000E+00
    -42.936  0.0000E+00  0.0000E+00  0.0000E+00  0.0000E+00
    -42.744  0.1904E-10  0.1904E-10  0.3671E-11  0.3671E-11
    -42.551  0.1463E-01  0.1463E-01  0.2821E-02  0.2821E-02
    -42.358  0.4997E-01  0.4997E-01  0.1245E-01  0.1245E-01
    -42.165  0.5973E-01  0.5973E-01  0.2397E-01  0.2397E-01
    -41.973  0.1515E-03  0.1515E-03  0.2400E-01  0.2400E-01
    -41.780  0.0000E+00  0.0000E+00  0.2400E-01  0.2400E-01
    -41.587  0.0000E+00  0.0000E+00  0.2400E-01  0.2400E-01
    -41.394  0.0000E+00  0.0000E+00  0.2400E-01  0.2400E-01
    -41.202  0.0000E+00  0.0000E+00  0.2400E-01  0.2400E-01
    -41.009  0.0000E+00  0.0000E+00  0.2400E-01  0.2400E-01
    -40.816  0.0000E+00  0.0000E+00  0.2400E-01  0.2400E-01
    -40.623  0.0000E+00  0.0000E+00  0.2400E-01  0.2400E-01
    -40.430  0.0000E+00  0.0000E+00  0.2400E-01  0.2400E-01
    -40.238  0.0000E+00  0.0000E+00  0.2400E-01  0.2400E-01
    -40.045  0.0000E+00  0.0000E+00  0.2400E-01  0.2400E-01
    -39.852  0.0000E+00  0.0000E+00  0.2400E-01  0.2400E-01
    -39.659  0.0000E+00  0.0000E+00  0.2400E-01  0.2400E-01
    -39.467  0.0000E+00  0.0000E+00  0.2400E-01  0.2400E-01
    -39.274  0.0000E+00  0.0000E+00  0.2400E-01  0.2400E-01
    -39.081  0.0000E+00  0.0000E+00  0.2400E-01  0.2400E-01
    -38.888  0.0000E+00  0.0000E+00  0.2400E-01  0.2400E-01
    -38.695  0.0000E+00  0.0000E+00  0.2400E-01  0.2400E-01
    -38.503  0.0000E+00  0.0000E+00  0.2400E-01  0.2400E-01
    -38.310  0.0000E+00  0.0000E+00  0.2400E-01  0.2400E-01
    -38.117  0.0000E+00  0.0000E+00  0.2400E-01  0.2400E-01
    -37.924  0.0000E+00  0.0000E+00  0.2400E-01  0.2400E-01
    -37.732  0.0000E+00  0.0000E+00  0.2400E-01  0.2400E-01
    -37.539  0.0000E+00  0.0000E+00  0.2400E-01  0.2400E-01
    -37.346  0.0000E+00  0.0000E+00  0.2400E-01  0.2400E-01
    -37.153  0.0000E+00  0.0000E+00  0.2400E-01  0.2400E-01
    -36.961  0.0000E+00  0.0000E+00  0.2400E-01  0.2400E-01
    -36.768  0.0000E+00  0.0000E+00  0.2400E-01  0.2400E-01
    -36.575  0.0000E+00  0.0000E+00  0.2400E-01  0.2400E-01
    -36.382  0.0000E+00  0.0000E+00  0.2400E-01  0.2400E-01
    -36.189  0.0000E+00  0.0000E+00  0.2400E-01  0.2400E-01
    -35.997  0.0000E+00  0.0000E+00  0.2400E-01  0.2400E-01
    -35.804  0.0000E+00  0.0000E+00  0.2400E-01  0.2400E-01
    -35.611  0.0000E+00  0.0000E+00  0.2400E-01  0.2400E-01
    -35.418  0.0000E+00  0.0000E+00  0.2400E-01  0.2400E-01
    -35.226  0.0000E+00  0.0000E+00  0.2400E-01  0.2400E-01
    -35.033  0.0000E+00  0.0000E+00  0.2400E-01  0.2400E-01
    -34.840  0.0000E+00  0.0000E+00  0.2400E-01  0.2400E-01
    -34.647  0.0000E+00  0.0000E+00  0.2400E-01  0.2400E-01
    -34.454  0.0000E+00  0.0000E+00  0.2400E-01  0.2400E-01
    -34.262  0.0000E+00  0.0000E+00  0.2400E-01  0.2400E-01
    -34.069  0.0000E+00  0.0000E+00  0.2400E-01  0.2400E-01
    -33.876  0.0000E+00  0.0000E+00  0.2400E-01  0.2400E-01
    -33.683  0.0000E+00  0.0000E+00  0.2400E-01  0.2400E-01
    -33.491  0.0000E+00  0.0000E+00  0.2400E-01  0.2400E-01
    -33.298  0.0000E+00  0.0000E+00  0.2400E-01  0.2400E-01
    -33.105  0.0000E+00  0.0000E+00  0.2400E-01  0.2400E-01
    -32.912  0.0000E+00  0.0000E+00  0.2400E-01  0.2400E-01
    -32.719  0.0000E+00  0.0000E+00  0.2400E-01  0.2400E-01
    -32.527  0.0000E+00  0.0000E+00  0.2400E-01  0.2400E-01
    -32.334  0.0000E+00  0.0000E+00  0.2400E-01  0.2400E-01
    -32.141  0.0000E+00  0.0000E+00  0.2400E-01  0.2400E-01
    -31.948  0.0000E+00  0.0000E+00  0.2400E-01  0.2400E-01
    -31.756  0.0000E+00  0.0000E+00  0.2400E-01  0.2400E-01
    -31.563  0.0000E+00  0.0000E+00  0.2400E-01  0.2400E-01
    -31.370  0.0000E+00  0.0000E+00  0.2400E-01  0.2400E-01
    -31.177  0.0000E+00  0.0000E+00  0.2400E-01  0.2400E-01
    -30.985  0.0000E+00  0.0000E+00  0.2400E-01  0.2400E-01
    -30.792  0.0000E+00  0.0000E+00  0.2400E-01  0.2400E-01
    -30.599  0.0000E+00  0.0000E+00  0.2400E-01  0.2400E-01
    -30.406  0.0000E+00  0.0000E+00  0.2400E-01  0.2400E-01
    -30.213  0.0000E+00  0.0000E+00  0.2400E-01  0.2400E-01
    -30.021  0.0000E+00  0.0000E+00  0.2400E-01  0.2400E-01
    -29.828  0.0000E+00  0.0000E+00  0.2400E-01  0.2400E-01
    -29.635  0.0000E+00  0.0000E+00  0.2400E-01  0.2400E-01
    -29.442  0.0000E+00  0.0000E+00  0.2400E-01  0.2400E-01
    -29.250  0.0000E+00  0.0000E+00  0.2400E-01  0.2400E-01
    -29.057  0.0000E+00  0.0000E+00  0.2400E-01  0.2400E-01
    -28.864  0.0000E+00  0.0000E+00  0.2400E-01  0.2400E-01
    -28.671  0.0000E+00  0.0000E+00  0.2400E-01  0.2400E-01
    -28.478  0.0000E+00  0.0000E+00  0.2400E-01  0.2400E-01
    -28.286  0.0000E+00  0.0000E+00  0.2400E-01  0.2400E-01
    -28.093  0.0000E+00  0.0000E+00  0.2400E-01  0.2400E-01
    -27.900  0.0000E+00  0.0000E+00  0.2400E-01  0.2400E-01
    -27.707  0.0000E+00  0.0000E+00  0.2400E-01  0.2400E-01
    -27.515  0.0000E+00  0.0000E+00  0.2400E-01  0.2400E-01
    -27.322  0.0000E+00  0.0000E+00  0.2400E-01  0.2400E-01
    -27.129  0.0000E+00  0.0000E+00  0.2400E-01  0.2400E-01
    -26.936  0.0000E+00  0.0000E+00  0.2400E-01  0.2400E-01
    -26.744  0.0000E+00  0.0000E+00  0.2400E-01  0.2400E-01
    -26.551  0.0000E+00  0.0000E+00  0.2400E-01  0.2400E-01
    -26.358  0.0000E+00  0.0000E+00  0.2400E-01  0.2400E-01
    -26.165  0.0000E+00  0.0000E+00  0.2400E-01  0.2400E-01
    -25.972  0.0000E+00  0.0000E+00  0.2400E-01  0.2400E-01
    -25.780  0.0000E+00  0.0000E+00  0.2400E-01  0.2400E-01
    -25.587  0.0000E+00  0.0000E+00  0.2400E-01  0.2400E-01
    -25.394  0.0000E+00  0.0000E+00  0.2400E-01  0.2400E-01
    -25.201  0.0000E+00  0.0000E+00  0.2400E-01  0.2400E-01
    -25.009  0.0000E+00  0.0000E+00  0.2400E-01  0.2400E-01
    -24.816  0.0000E+00  0.0000E+00  0.2400E-01  0.2400E-01
    -24.623  0.0000E+00  0.0000E+00  0.2400E-01  0.2400E-01
    -24.430  0.0000E+00  0.0000E+00  0.2400E-01  0.2400E-01
    -24.237  0.0000E+00  0.0000E+00  0.2400E-01  0.2400E-01
    -24.045  0.0000E+00  0.0000E+00  0.2400E-01  0.2400E-01
    -23.852  0.0000E+00  0.0000E+00  0.2400E-01  0.2400E-01
    -23.659  0.0000E+00  0.0000E+00  0.2400E-01  0.2400E-01
    -23.466  0.0000E+00  0.0000E+00  0.2400E-01  0.2400E-01
    -23.274  0.0000E+00  0.0000E+00  0.2400E-01  0.2400E-01
    -23.081  0.0000E+00  0.0000E+00  0.2400E-01  0.2400E-01
    -22.888  0.0000E+00  0.0000E+00  0.2400E-01  0.2400E-01
    -22.695  0.0000E+00  0.0000E+00  0.2400E-01  0.2400E-01
    -22.502  0.0000E+00  0.0000E+00  0.2400E-01  0.2400E-01
    -22.310  0.0000E+00  0.0000E+00  0.2400E-01  0.2400E-01
    -22.117  0.0000E+00  0.0000E+00  0.2400E-01  0.2400E-01
    -21.924  0.0000E+00  0.0000E+00  0.2400E-01  0.2400E-01
    -21.731  0.0000E+00  0.0000E+00  0.2400E-01  0.2400E-01
    -21.539  0.0000E+00  0.0000E+00  0.2400E-01  0.2400E-01
    -21.346  0.0000E+00  0.0000E+00  0.2400E-01  0.2400E-01
    -21.153  0.0000E+00  0.0000E+00  0.2400E-01  0.2400E-01
    -20.960  0.0000E+00  0.0000E+00  0.2400E-01  0.2400E-01
    -20.768  0.0000E+00  0.0000E+00  0.2400E-01  0.2400E-01
    -20.575  0.0000E+00  0.0000E+00  0.2400E-01  0.2400E-01
    -20.382  0.0000E+00  0.0000E+00  0.2400E-01  0.2400E-01
    -20.189  0.0000E+00  0.0000E+00  0.2400E-01  0.2400E-01
    -19.996  0.0000E+00  0.0000E+00  0.2400E-01  0.2400E-01
    -19.804  0.0000E+00  0.0000E+00  0.2400E-01  0.2400E-01
    -19.611  0.0000E+00  0.0000E+00  0.2400E-01  0.2400E-01
    -19.418  0.0000E+00  0.0000E+00  0.2400E-01  0.2400E-01
    -19.225  0.0000E+00  0.0000E+00  0.2400E-01  0.2400E-01
    -19.033  0.0000E+00  0.0000E+00  0.2400E-01  0.2400E-01
    -18.840  0.0000E+00  0.0000E+00  0.2400E-01  0.2400E-01
    -18.647  0.0000E+00  0.0000E+00  0.2400E-01  0.2400E-01
    -18.454  0.0000E+00  0.0000E+00  0.2400E-01  0.2400E-01
    -18.261  0.0000E+00  0.0000E+00  0.2400E-01  0.2400E-01
    -18.069  0.0000E+00  0.0000E+00  0.2400E-01  0.2400E-01
    -17.876  0.0000E+00  0.0000E+00  0.2400E-01  0.2400E-01
    -17.683  0.0000E+00  0.0000E+00  0.2400E-01  0.2400E-01
    -17.490  0.0000E+00  0.0000E+00  0.2400E-01  0.2400E-01
    -17.298  0.0000E+00  0.0000E+00  0.2400E-01  0.2400E-01
    -17.105  0.0000E+00  0.0000E+00  0.2400E-01  0.2400E-01
    -16.912  0.0000E+00  0.0000E+00  0.2400E-01  0.2400E-01
    -16.719  0.0000E+00  0.0000E+00  0.2400E-01  0.2400E-01
    -16.527  0.0000E+00  0.0000E+00  0.2400E-01  0.2400E-01
    -16.334  0.0000E+00  0.0000E+00  0.2400E-01  0.2400E-01
    -16.141  0.0000E+00  0.0000E+00  0.2400E-01  0.2400E-01
    -15.948  0.0000E+00  0.0000E+00  0.2400E-01  0.2400E-01
    -15.755  0.0000E+00  0.0000E+00  0.2400E-01  0.2400E-01
    -15.563  0.0000E+00  0.0000E+00  0.2400E-01  0.2400E-01
    -15.370  0.0000E+00  0.0000E+00  0.2400E-01  0.2400E-01
    -15.177  0.0000E+00  0.0000E+00  0.2400E-01  0.2400E-01
    -14.984  0.0000E+00  0.0000E+00  0.2400E-01  0.2400E-01
    -14.792  0.0000E+00  0.0000E+00  0.2400E-01  0.2400E-01
    -14.599  0.0000E+00  0.0000E+00  0.2400E-01  0.2400E-01
    -14.406  0.0000E+00  0.0000E+00  0.2400E-01  0.2400E-01
    -14.213  0.0000E+00  0.0000E+00  0.2400E-01  0.2400E-01
    -14.020  0.0000E+00  0.0000E+00  0.2400E-01  0.2400E-01
    -13.828  0.0000E+00  0.0000E+00  0.2400E-01  0.2400E-01
    -13.635  0.0000E+00  0.0000E+00  0.2400E-01  0.2400E-01
    -13.442  0.0000E+00  0.0000E+00  0.2400E-01  0.2400E-01
    -13.249  0.0000E+00  0.0000E+00  0.2400E-01  0.2400E-01
    -13.057  0.1146E-02  0.1146E-02  0.2422E-01  0.2422E-01
    -12.864  0.1960E-01  0.1960E-01  0.2800E-01  0.2800E-01
    -12.671  0.5184E-02  0.5184E-02  0.2900E-01  0.2900E-01
    -12.478  0.1038E-01  0.1038E-01  0.3100E-01  0.3100E-01
    -12.285  0.5182E-02  0.5182E-02  0.3200E-01  0.3200E-01
    -12.093  0.0000E+00  0.0000E+00  0.3200E-01  0.3200E-01
    -11.900  0.0000E+00  0.0000E+00  0.3200E-01  0.3200E-01
    -11.707  0.0000E+00  0.0000E+00  0.3200E-01  0.3200E-01
    -11.514  0.0000E+00  0.0000E+00  0.3200E-01  0.3200E-01
    -11.322  0.0000E+00  0.0000E+00  0.3200E-01  0.3200E-01
    -11.129  0.0000E+00  0.0000E+00  0.3200E-01  0.3200E-01
    -10.936  0.0000E+00  0.0000E+00  0.3200E-01  0.3200E-01
    -10.743  0.0000E+00  0.0000E+00  0.3200E-01  0.3200E-01
    -10.551  0.0000E+00  0.0000E+00  0.3200E-01  0.3200E-01
    -10.358  0.4705E-06  0.4705E-06  0.3200E-01  0.3200E-01
    -10.165  0.1557E-01  0.1557E-01  0.3500E-01  0.3500E-01
     -9.972  0.2332E-01  0.2332E-01  0.3950E-01  0.3950E-01
     -9.779  0.2320E-01  0.2320E-01  0.4397E-01  0.4397E-01
     -9.587  0.1405E-03  0.1405E-03  0.4400E-01  0.4400E-01
     -9.394  0.0000E+00  0.0000E+00  0.4400E-01  0.4400E-01
     -9.201  0.0000E+00  0.0000E+00  0.4400E-01  0.4400E-01
     -9.008  0.0000E+00  0.0000E+00  0.4400E-01  0.4400E-01
     -8.816  0.0000E+00  0.0000E+00  0.4400E-01  0.4400E-01
     -8.623  0.0000E+00  0.0000E+00  0.4400E-01  0.4400E-01
     -8.430  0.1267E-02  0.1267E-02  0.4424E-01  0.4424E-01
     -8.237  0.1802E-01  0.1802E-01  0.4772E-01  0.4772E-01
     -8.044  0.1434E-02  0.1434E-02  0.4800E-01  0.4800E-01
     -7.852  0.0000E+00  0.0000E+00  0.4800E-01  0.4800E-01
     -7.659  0.0000E+00  0.0000E+00  0.4800E-01  0.4800E-01
     -7.466  0.0000E+00  0.0000E+00  0.4800E-01  0.4800E-01
     -7.273  0.0000E+00  0.0000E+00  0.4800E-01  0.4800E-01
     -7.081  0.0000E+00  0.0000E+00  0.4800E-01  0.4800E-01
     -6.888  0.0000E+00  0.0000E+00  0.4800E-01  0.4800E-01
     -6.695  0.0000E+00  0.0000E+00  0.4800E-01  0.4800E-01
     -6.502  0.0000E+00  0.0000E+00  0.4800E-01  0.4800E-01
     -6.310  0.0000E+00  0.0000E+00  0.4800E-01  0.4800E-01
     -6.117  0.2261E-02  0.2261E-02  0.4844E-01  0.4844E-01
     -5.924  0.2926E-02  0.2926E-02  0.4900E-01  0.4900E-01
     -5.731  0.8961E-03  0.8961E-03  0.4917E-01  0.4917E-01
     -5.538  0.1463E-01  0.1463E-01  0.5199E-01  0.5199E-01
     -5.346  0.2680E-04  0.2680E-04  0.5200E-01  0.5200E-01
     -5.153  0.0000E+00  0.0000E+00  0.5200E-01  0.5200E-01
     -4.960  0.0000E+00  0.0000E+00  0.5200E-01  0.5200E-01
     -4.767  0.0000E+00  0.0000E+00  0.5200E-01  0.5200E-01
     -4.575  0.0000E+00  0.0000E+00  0.5200E-01  0.5200E-01
     -4.382  0.0000E+00  0.0000E+00  0.5200E-01  0.5200E-01
     -4.189  0.0000E+00  0.0000E+00  0.5200E-01  0.5200E-01
     -3.996  0.0000E+00  0.0000E+00  0.5200E-01  0.5200E-01
     -3.803  0.0000E+00  0.0000E+00  0.5200E-01  0.5200E-01
     -3.611  0.0000E+00  0.0000E+00  0.5200E-01  0.5200E-01
     -3.418  0.0000E+00  0.0000E+00  0.5200E-01  0.5200E-01
     -3.225  0.2389E-02  0.2389E-02  0.5246E-01  0.5246E-01
     -3.032  0.1317E-01  0.1317E-01  0.5500E-01  0.5500E-01
     -2.840  0.2688E-02  0.2688E-02  0.5552E-01  0.5552E-01
     -2.647  0.1214E-01  0.1214E-01  0.5786E-01  0.5786E-01
     -2.454  0.1208E-01  0.1208E-01  0.6019E-01  0.6019E-01
     -2.261  0.1738E-01  0.1738E-01  0.6354E-01  0.6354E-01
     -2.068  0.2389E-02  0.2389E-02  0.6400E-01  0.6400E-01
     -1.876  0.0000E+00  0.0000E+00  0.6400E-01  0.6400E-01
     -1.683  0.6692E-09  0.6692E-09  0.6400E-01  0.6400E-01
     -1.490  0.1072E-01  0.1072E-01  0.6607E-01  0.6607E-01
     -1.297  0.2178E-01  0.2178E-01  0.7027E-01  0.7027E-01
     -1.105  0.2252E-01  0.2252E-01  0.7461E-01  0.7461E-01
     -0.912  0.2003E-02  0.2003E-02  0.7500E-01  0.7500E-01
     -0.719  0.5187E-02  0.5187E-02  0.7600E-01  0.7600E-01
     -0.526  0.7470E-02  0.7470E-02  0.7744E-01  0.7744E-01
     -0.334  0.1234E-01  0.1234E-01  0.7982E-01  0.7982E-01
     -0.141  0.1122E-01  0.1122E-01  0.8198E-01  0.8198E-01
      0.052  0.2734E-01  0.2734E-01  0.8725E-01  0.8725E-01
      0.245  0.2446E-01  0.2446E-01  0.9197E-01  0.9197E-01
      0.438  0.1728E-01  0.1728E-01  0.9530E-01  0.9530E-01
      0.630  0.3606E-02  0.3606E-02  0.9600E-01  0.9600E-01
      0.823  0.8353E-02  0.8353E-02  0.9761E-01  0.9761E-01
      1.016  0.2417E-01  0.2417E-01  0.1023E+00  0.1023E+00
      1.209  0.2058E-01  0.2058E-01  0.1062E+00  0.1062E+00
      1.401  0.2802E-01  0.2802E-01  0.1117E+00  0.1117E+00
      1.594  0.2850E-01  0.2850E-01  0.1171E+00  0.1171E+00
      1.787  0.1459E-01  0.1459E-01  0.1200E+00  0.1200E+00
      1.980  0.1958E-03  0.1958E-03  0.1200E+00  0.1200E+00
      2.173  0.0000E+00  0.0000E+00  0.1200E+00  0.1200E+00
      2.365  0.0000E+00  0.0000E+00  0.1200E+00  0.1200E+00
      2.558  0.0000E+00  0.0000E+00  0.1200E+00  0.1200E+00
      2.751  0.0000E+00  0.0000E+00  0.1200E+00  0.1200E+00
      2.944  0.0000E+00  0.0000E+00  0.1200E+00  0.1200E+00
      3.136  0.0000E+00  0.0000E+00  0.1200E+00  0.1200E+00
      3.329  0.0000E+00  0.0000E+00  0.1200E+00  0.1200E+00
      3.522  0.0000E+00  0.0000E+00  0.1200E+00  0.1200E+00
      3.715  0.0000E+00  0.0000E+00  0.1200E+00  0.1200E+00
      3.907  0.0000E+00  0.0000E+00  0.1200E+00  0.1200E+00
      4.100  0.0000E+00  0.0000E+00  0.1200E+00  0.1200E+00
      4.293  0.1234E-13  0.1234E-13  0.1200E+00  0.1200E+00
      4.486  0.5025E-02  0.5025E-02  0.1210E+00  0.1210E+00
      4.679  0.1322E-03  0.1322E-03  0.1210E+00  0.1210E+00
      4.871  0.0000E+00  0.0000E+00  0.1210E+00  0.1210E+00
      5.064  0.3340E-14  0.3340E-14  0.1210E+00  0.1210E+00
      5.257  0.3450E-02  0.3450E-02  0.1217E+00  0.1217E+00
      5.450  0.1211E-01  0.1211E-01  0.1240E+00  0.1240E+00
      5.642  0.0000E+00  0.0000E+00  0.1240E+00  0.1240E+00
      5.835  0.1698E-05  0.1698E-05  0.1240E+00  0.1240E+00
      6.028  0.1184E-01  0.1184E-01  0.1263E+00  0.1263E+00
      6.221  0.1545E-01  0.1545E-01  0.1293E+00  0.1293E+00
      6.414  0.3827E-02  0.3827E-02  0.1300E+00  0.1300E+00
      6.606  0.1178E-01  0.1178E-01  0.1323E+00  0.1323E+00
      6.799  0.6197E-02  0.6197E-02  0.1335E+00  0.1335E+00
      6.992  0.1313E-01  0.1313E-01  0.1360E+00  0.1360E+00
      7.185  0.5143E-02  0.5143E-02  0.1370E+00  0.1370E+00
      7.377  0.3248E-02  0.3248E-02  0.1376E+00  0.1376E+00
      7.570  0.8090E-02  0.8090E-02  0.1392E+00  0.1392E+00
      7.763  0.1424E-01  0.1424E-01  0.1419E+00  0.1419E+00
      7.956  0.9988E-02  0.9988E-02  0.1438E+00  0.1438E+00
      8.149  0.1290E-01  0.1290E-01  0.1463E+00  0.1463E+00
      8.341  0.1621E-01  0.1621E-01  0.1495E+00  0.1495E+00
      8.534  0.1504E-01  0.1504E-01  0.1524E+00  0.1524E+00
      8.727  0.1264E-01  0.1264E-01  0.1548E+00  0.1548E+00
      8.920  0.1811E-01  0.1811E-01  0.1583E+00  0.1583E+00
      9.112  0.1773E-01  0.1773E-01  0.1617E+00  0.1617E+00
      9.305  0.1901E-01  0.1901E-01  0.1654E+00  0.1654E+00
      9.498  0.1862E-01  0.1862E-01  0.1690E+00  0.1690E+00
      9.691  0.1666E-01  0.1667E-01  0.1722E+00  0.1722E+00
      9.883  0.1573E-01  0.1555E-01  0.1752E+00  0.1752E+00
     10.076  0.4025E-02  0.4208E-02  0.1760E+00  0.1760E+00
     10.269  0.0000E+00  0.0000E+00  0.1760E+00  0.1760E+00
     10.462  0.0000E+00  0.0000E+00  0.1760E+00  0.1760E+00
     10.655  0.0000E+00  0.0000E+00  0.1760E+00  0.1760E+00
     10.847  0.0000E+00  0.0000E+00  0.1760E+00  0.1760E+00
     11.040  0.0000E+00  0.0000E+00  0.1760E+00  0.1760E+00
     11.233  0.0000E+00  0.0000E+00  0.1760E+00  0.1760E+00
     11.426  0.0000E+00  0.0000E+00  0.1760E+00  0.1760E+00
     11.618  0.0000E+00  0.0000E+00  0.1760E+00  0.1760E+00
     11.811  0.0000E+00  0.0000E+00  0.1760E+00  0.1760E+00
     12.004  0.0000E+00  0.0000E+00  0.1760E+00  0.1760E+00
     12.197  0.0000E+00  0.0000E+00  0.1760E+00  0.1760E+00
     12.390  0.0000E+00  0.0000E+00  0.1760E+00  0.1760E+00
     12.582  0.0000E+00  0.0000E+00  0.1760E+00  0.1760E+00
