 vasp.6.4.1 05Apr23 (build Jun 07 2023 15:38:11) complex                        
  
 executed on             LinuxIFC date 2023.10.16  22:20:26
 running  128 mpi-ranks, with    1 threads/rank, on    1 nodes
 distrk:  each k-point on  128 cores,    1 groups
 distr:  one band on NCORE=  32 cores,    4 groups


--------------------------------------------------------------------------------------------------------


 INCAR:
   GGA = PE
   PREC = Accu
   EDIFF = 1.e-6
   EDIFFG = -1.e-3
   ENCUT = 520.
   NELM = 100
   NELMDL = -10
   LASPH = .TRUE.
   LREAL = Auto
   LMAXMIX = 4
   ISPIN = 2
   LDIAG = .TRUE.
   LPLANE = .TRUE.
   IVDW = 12
   SIGMA = 0.03
   ISMEAR = 0
   NSW = 1000    number of steps for IOM
   IBRION = 2    ionic relax: 0-MD 1-quasi-New 2-CG
   ISIF = 2    ionic relaxation + stress tensor calcn.
   LCHARG = .FALSE.
   LWAVE = .FALSE.
   ALGO = F
   KPAR = 1
   NPAR = 4
   POTIM = 0.2

 POTCAR:    PAW_PBE Li_sv_GW 25Mar2010            
 POTCAR:    PAW_PBE P_GW 19Mar2012                
 POTCAR:    PAW_PBE S_GW 19Mar2012                
 POTCAR:    PAW_PBE Cl_GW 19Mar2012               
 -----------------------------------------------------------------------------
|                                                                             |
|           W    W    AA    RRRRR   N    N  II  N    N   GGGG   !!!           |
|           W    W   A  A   R    R  NN   N  II  NN   N  G    G  !!!           |
|           W    W  A    A  R    R  N N  N  II  N N  N  G       !!!           |
|           W WW W  AAAAAA  RRRRR   N  N N  II  N  N N  G  GGG   !            |
|           WW  WW  A    A  R   R   N   NN  II  N   NN  G    G                |
|           W    W  A    A  R    R  N    N  II  N    N   GGGG   !!!           |
|                                                                             |
|     You use a magnetic or noncollinear calculation, but did not specify     |
|     the initial magnetic moment with the MAGMOM tag. Note that a            |
|     default of 1 will be used for all atoms. This ferromagnetic setup       |
|     may break the symmetry of the crystal, in particular it may rule        |
|     out finding an antiferromagnetic solution. Thence, we recommend         |
|     setting the initial magnetic moment manually or verifying carefully     |
|     that this magnetic setup is desired.                                    |
|                                                                             |
 -----------------------------------------------------------------------------

 POTCAR:    PAW_PBE Li_sv_GW 25Mar2010            
   SHA256 =  24a6ace15a582615486b36ce4dc781b048409f4015b7684ed1273ae395fa2fdc Li_sv_GW/POTCAR       
   COPYR  = (c) Copyright 25Mar2010 Georg Kresse                                                    
   COPYR  = This file is part of the software VASP. Any use, copying, and all other rights are regul
   COPYR  = If you do not have a valid VASP license, you may not use, copy or distribute this file. 
   VRHFIN =Li: 1s2s                                                                                 
   LEXCH  = PE                                                                                      
   EATOM  =   200.9989 eV,   14.7730 Ry                                                             
                                                                                                    
   TITEL  = PAW_PBE Li_sv_GW 25Mar2010                                                              
   LULTRA =        F    use ultrasoft PP ?                                                          
   IUNSCR =        0    unscreen: 0-lin 1-nonlin 2-no                                               
   RPACOR =    0.000    partial core radius                                                         
   POMASS =    7.010; ZVAL   =    3.000    mass and valenz                                          
   RCORE  =    1.500    outmost cutoff radius                                                       
   RWIGS  =    1.600; RWIGS  =    0.847    wigner-seitz radius (au A)                               
   ENMAX  =  433.699; ENMIN  =  325.274 eV                                                          
   RCLOC  =    1.003    cutoff for local pot                                                        
   LCOR   =        T    correct aug charges                                                         
   LPAW   =        T    paw PP                                                                      
   EAUG   = 1041.699                                                                                
   RMAX   =    1.536    core radius for proj-oper                                                   
   RAUG   =    1.300    factor for augmentation sphere                                              
   RDEP   =    1.520    radius for radial grids                                                     
   RDEPT  =    1.300    core radius for aug-charge                                                  
                                                                                                    
   Atomic configuration                                                                             
    4 entries                                                                                       
     n  l   j            E        occ.                                                              
     1  0  0.50       -53.3604   2.0000                                                             
     1  0  0.50       -52.0001   0.0000                                                             
     2  1  0.50        -1.5636   1.0000                                                             
     3  2  1.50        -1.3606   0.0000                                                             
   Description                                                                                      
     l       E           TYP  RCUT    TYP  RCUT                                                     
     0    -53.3603633     23  1.200                                                                 
     0    -52.0001064     23  1.200                                                                 
     0    176.8757380     23  1.300                                                                 
     1     -1.5635925     23  1.500                                                                 
     1    108.8466080     23  1.500                                                                 
     2     81.6349560     23  1.500                                                                 
  local pseudopotential read in
  kinetic energy density of atom read in
  atomic valenz-charges read in
  non local Contribution for L=           0  read in
    real space projection operators read in
  non local Contribution for L=           0  read in
    real space projection operators read in
  non local Contribution for L=           0  read in
    real space projection operators read in
  non local Contribution for L=           1  read in
    real space projection operators read in
  non local Contribution for L=           1  read in
    real space projection operators read in
  non local Contribution for L=           2  read in
    real space projection operators read in
    PAW grid and wavefunctions read in
 
   number of l-projection  operators is LMAX  =           6
   number of lm-projection operators is LMMAX =          14
 
 POTCAR:    PAW_PBE P_GW 19Mar2012                
   SHA256 =  715c28f2291d37b61637ce89646c59f66f71c8b8d8bfba631e5feb9f7b42defe P_GW/POTCAR           
   COPYR  = (c) Copyright 19Mar2012 Georg Kresse                                                    
   COPYR  = This file is part of the software VASP. Any use, copying, and all other rights are regul
   COPYR  = If you do not have a valid VASP license, you may not use, copy or distribute this file. 
   VRHFIN =P : s2p3                                                                                 
   LEXCH  = PE                                                                                      
   EATOM  =   176.0430 eV,   12.9388 Ry                                                             
                                                                                                    
   TITEL  = PAW_PBE P_GW 19Mar2012                                                                  
   LULTRA =        F    use ultrasoft PP ?                                                          
   IUNSCR =        1    unscreen: 0-lin 1-nonlin 2-no                                               
   RPACOR =    1.400    partial core radius                                                         
   POMASS =   30.974; ZVAL   =    5.000    mass and valenz                                          
   RCORE  =    2.000    outmost cutoff radius                                                       
   RWIGS  =    1.900; RWIGS  =    1.005    wigner-seitz radius (au A)                               
   ENMAX  =  255.040; ENMIN  =  191.280 eV                                                          
   ICORE  =        3    local potential                                                             
   LCOR   =        T    correct aug charges                                                         
   LPAW   =        T    paw PP                                                                      
   EAUG   =  499.732                                                                                
   DEXC   =    0.000                                                                                
   RMAX   =    2.047    core radius for proj-oper                                                   
   RAUG   =    1.300    factor for augmentation sphere                                              
   RDEP   =    2.059    radius for radial grids                                                     
   RDEPT  =    1.900    core radius for aug-charge                                                  
                                                                                                    
   Atomic configuration                                                                             
    7 entries                                                                                       
     n  l   j            E        occ.                                                              
     1  0  0.50     -2084.0982   2.0000                                                             
     2  0  0.50      -173.9859   2.0000                                                             
     2  1  1.50      -124.4865   6.0000                                                             
     3  0  0.50       -13.9692   2.0000                                                             
     3  1  0.50        -5.5067   3.0000                                                             
     3  2  1.50        -6.8029   0.0000                                                             
     4  3  2.50        -1.3606   0.0000                                                             
   Description                                                                                      
     l       E           TYP  RCUT    TYP  RCUT                                                     
     0    -13.9691528     23  1.900                                                                 
     0    102.0436950     23  1.900                                                                 
     1     -5.5066939     23  1.900                                                                 
     1    102.0436950     23  1.900                                                                 
     2     -8.1634956     23  2.000                                                                 
     2     81.6349560     23  2.000                                                                 
     3     27.2116520     23  2.000                                                                 
  local pseudopotential read in
  partial core-charges read in
  partial kinetic energy density read in
  kinetic energy density of atom read in
  atomic valenz-charges read in
  non local Contribution for L=           0  read in
    real space projection operators read in
  non local Contribution for L=           0  read in
    real space projection operators read in
  non local Contribution for L=           1  read in
    real space projection operators read in
  non local Contribution for L=           1  read in
    real space projection operators read in
  non local Contribution for L=           2  read in
    real space projection operators read in
  non local Contribution for L=           2  read in
    real space projection operators read in
    PAW grid and wavefunctions read in
 
   number of l-projection  operators is LMAX  =           6
   number of lm-projection operators is LMMAX =          18
 
 POTCAR:    PAW_PBE S_GW 19Mar2012                
   SHA256 =  357db9cfb0783579b2eebe03197c2d807131fea8ea663b1fcfb6ce2fa75af011 S_GW/POTCAR           
   COPYR  = (c) Copyright 19Mar2012 Georg Kresse                                                    
   COPYR  = This file is part of the software VASP. Any use, copying, and all other rights are regul
   COPYR  = If you do not have a valid VASP license, you may not use, copy or distribute this file. 
   VRHFIN =S : s2p4                                                                                 
   LEXCH  = PE                                                                                      
   EATOM  =   276.8230 eV,   20.3459 Ry                                                             
                                                                                                    
   TITEL  = PAW_PBE S_GW 19Mar2012                                                                  
   LULTRA =        F    use ultrasoft PP ?                                                          
   IUNSCR =        1    unscreen: 0-lin 1-nonlin 2-no                                               
   RPACOR =    1.400    partial core radius                                                         
   POMASS =   32.066; ZVAL   =    6.000    mass and valenz                                          
   RCORE  =    1.900    outmost cutoff radius                                                       
   RWIGS  =    1.900; RWIGS  =    1.005    wigner-seitz radius (au A)                               
   ENMAX  =  258.689; ENMIN  =  194.016 eV                                                          
   ICORE  =        3    local potential                                                             
   LCOR   =        T    correct aug charges                                                         
   LPAW   =        T    paw PP                                                                      
   EAUG   =  488.319                                                                                
   DEXC   =    0.000                                                                                
   RMAX   =    1.942    core radius for proj-oper                                                   
   RAUG   =    1.300    factor for augmentation sphere                                              
   RDEP   =    1.954    radius for radial grids                                                     
   RDEPT  =    1.900    core radius for aug-charge                                                  
                                                                                                    
   Atomic configuration                                                                             
    7 entries                                                                                       
     n  l   j            E        occ.                                                              
     1  0  0.50     -2405.8406   2.0000                                                             
     2  0  0.50      -211.7007   2.0000                                                             
     2  1  1.50      -156.4958   6.0000                                                             
     3  0  0.50       -17.2562   2.0000                                                             
     3  1  0.50        -7.0085   4.0000                                                             
     3  2  1.50        -8.1635   0.0000                                                             
     4  3  2.50        -1.3606   0.0000                                                             
   Description                                                                                      
     l       E           TYP  RCUT    TYP  RCUT                                                     
     0    -17.2561639     23  1.700                                                                 
     0     88.4378690     23  1.900                                                                 
     1     -7.0085399     23  1.900                                                                 
     1     88.4378690     23  1.900                                                                 
     2    -10.8846608     23  1.900                                                                 
     2     54.4233040     23  1.900                                                                 
     3     27.2116520     23  1.800                                                                 
  local pseudopotential read in
  partial core-charges read in
  partial kinetic energy density read in
  kinetic energy density of atom read in
  atomic valenz-charges read in
  non local Contribution for L=           0  read in
    real space projection operators read in
  non local Contribution for L=           0  read in
    real space projection operators read in
  non local Contribution for L=           1  read in
    real space projection operators read in
  non local Contribution for L=           1  read in
    real space projection operators read in
  non local Contribution for L=           2  read in
    real space projection operators read in
  non local Contribution for L=           2  read in
    real space projection operators read in
    PAW grid and wavefunctions read in
 
   number of l-projection  operators is LMAX  =           6
   number of lm-projection operators is LMMAX =          18
 
 POTCAR:    PAW_PBE Cl_GW 19Mar2012               
   SHA256 =  3ef3b3169d6a9a89979f58b4cf17d927a58518fc660d8883d88cacaee8175441 Cl_GW/POTCAR          
   COPYR  = (c) Copyright 19Mar2012 Georg Kresse                                                    
   COPYR  = This file is part of the software VASP. Any use, copying, and all other rights are regul
   COPYR  = If you do not have a valid VASP license, you may not use, copy or distribute this file. 
   VRHFIN =Cl: s2p5                                                                                 
   LEXCH  = PE                                                                                      
   EATOM  =   409.7259 eV,   30.1140 Ry                                                             
                                                                                                    
   TITEL  = PAW_PBE Cl_GW 19Mar2012                                                                 
   LULTRA =        F    use ultrasoft PP ?                                                          
   IUNSCR =        1    unscreen: 0-lin 1-nonlin 2-no                                               
   RPACOR =    1.400    partial core radius                                                         
   POMASS =   35.453; ZVAL   =    7.000    mass and valenz                                          
   RCORE  =    1.900    outmost cutoff radius                                                       
   RWIGS  =    1.900; RWIGS  =    1.005    wigner-seitz radius (au A)                               
   ENMAX  =  262.472; ENMIN  =  196.854 eV                                                          
   ICORE  =        3    local potential                                                             
   LCOR   =        T    correct aug charges                                                         
   LPAW   =        T    paw PP                                                                      
   EAUG   =  456.703                                                                                
   DEXC   =    0.000                                                                                
   RMAX   =    1.945    core radius for proj-oper                                                   
   RAUG   =    1.300    factor for augmentation sphere                                              
   RDEP   =    2.020    radius for radial grids                                                     
   RDEPT  =    1.900    core radius for aug-charge                                                  
                                                                                                    
   Atomic configuration                                                                             
    7 entries                                                                                       
     n  l   j            E        occ.                                                              
     1  0  0.50     -2751.1850   2.0000                                                             
     2  0  0.50      -252.6861   2.0000                                                             
     2  1  1.50      -191.6157   6.0000                                                             
     3  0  0.50       -20.6916   2.0000                                                             
     3  1  0.50        -8.5949   5.0000                                                             
     3  2  1.50        -9.5241   0.0000                                                             
     4  3  2.50        -9.5241   0.0000                                                             
   Description                                                                                      
     l       E           TYP  RCUT    TYP  RCUT                                                     
     0    -20.6915657     23  1.700                                                                 
     0     95.2407820     23  1.800                                                                 
     1     -8.5948577     23  1.900                                                                 
     1     95.2407820     23  1.900                                                                 
     2    -10.8846608     23  1.900                                                                 
     2     54.4233040     23  1.900                                                                 
     3     27.2116520     23  1.900                                                                 
  local pseudopotential read in
  partial core-charges read in
  partial kinetic energy density read in
  kinetic energy density of atom read in
  atomic valenz-charges read in
  non local Contribution for L=           0  read in
    real space projection operators read in
  non local Contribution for L=           0  read in
    real space projection operators read in
  non local Contribution for L=           1  read in
    real space projection operators read in
  non local Contribution for L=           1  read in
    real space projection operators read in
  non local Contribution for L=           2  read in
    real space projection operators read in
  non local Contribution for L=           2  read in
    real space projection operators read in
    PAW grid and wavefunctions read in
 
   number of l-projection  operators is LMAX  =           6
   number of lm-projection operators is LMMAX =          18
 
 Optimization of the real space projectors (new method)

 maximal supplied QI-value         = 25.13
 optimisation between [QCUT,QGAM] = [ 11.56, 23.12] = [ 37.43,149.72] Ry 
 Optimized for a Real-space Cutoff    1.28 Angstroem

   l    n(q)    QCUT    max X(q) W(low)/X(q) W(high)/X(q)  e(spline) 
   0      9    11.561    87.733    0.11E-03    0.32E-04    0.56E-06
   0      9    11.561    82.800    0.11E-03    0.35E-04    0.56E-06
   0      9    11.561     2.509    0.22E-03    0.42E-04    0.79E-06
   1      8    11.561    12.580    0.94E-04    0.26E-03    0.21E-06
   1      8    11.561     1.319    0.33E-04    0.15E-03    0.19E-06
   2      8    11.561     1.993    0.36E-04    0.89E-04    0.26E-06
 Optimization of the real space projectors (new method)

 maximal supplied QI-value         = 18.90
 optimisation between [QCUT,QGAM] = [ 11.53, 23.24] = [ 37.21,151.29] Ry 
 Optimized for a Real-space Cutoff    1.21 Angstroem

   l    n(q)    QCUT    max X(q) W(low)/X(q) W(high)/X(q)  e(spline) 
   0      8    11.527     8.355    0.73E-04    0.70E-04    0.26E-07
   0      8    11.527     1.401    0.17E-03    0.17E-03    0.63E-07
   1      8    11.527     4.747    0.13E-03    0.17E-03    0.11E-06
   1      8    11.527     2.025    0.16E-03    0.18E-03    0.12E-06
   2      7    11.527     3.169    0.51E-04    0.25E-03    0.60E-07
   2      7    11.527     3.441    0.82E-04    0.22E-03    0.14E-06
 Optimization of the real space projectors (new method)

 maximal supplied QI-value         = 19.84
 optimisation between [QCUT,QGAM] = [ 11.51, 23.22] = [ 37.09,150.92] Ry 
 Optimized for a Real-space Cutoff    1.49 Angstroem

   l    n(q)    QCUT    max X(q) W(low)/X(q) W(high)/X(q)  e(spline) 
   0     10    11.508     7.541    0.34E-04    0.13E-04    0.69E-07
   0     10    11.508     1.809    0.49E-04    0.27E-04    0.14E-06
   1     10    11.508     4.107    0.27E-05    0.41E-05    0.14E-06
   1     10    11.508     2.196    0.26E-05    0.25E-05    0.22E-06
   2      9    11.508     4.265    0.18E-03    0.11E-03    0.81E-06
   2      9    11.508     1.925    0.97E-04    0.76E-04    0.47E-06
 Optimization of the real space projectors (new method)

 maximal supplied QI-value         = 19.84
 optimisation between [QCUT,QGAM] = [ 11.51, 23.22] = [ 37.09,150.92] Ry 
 Optimized for a Real-space Cutoff    1.21 Angstroem

   l    n(q)    QCUT    max X(q) W(low)/X(q) W(high)/X(q)  e(spline) 
   0      8    11.508     6.761    0.57E-04    0.57E-04    0.35E-07
   0      8    11.508     1.642    0.14E-03    0.14E-03    0.91E-07
   1      8    11.508     3.519    0.20E-04    0.72E-04    0.47E-07
   1      8    11.508     2.150    0.27E-04    0.11E-03    0.89E-07
   2      7    11.508     2.976    0.19E-03    0.33E-03    0.16E-06
   2      7    11.508     1.494    0.14E-03    0.29E-03    0.14E-06
  PAW_PBE Li_sv_GW 25Mar2010            :
 energy of atom  1       EATOM= -200.9989
 kinetic energy error for atom=    0.0127 (will be added to EATOM!!)
  PAW_PBE P_GW 19Mar2012                :
 energy of atom  2       EATOM= -176.0430
 kinetic energy error for atom=    0.0011 (will be added to EATOM!!)
  PAW_PBE S_GW 19Mar2012                :
 energy of atom  3       EATOM= -276.8230
 kinetic energy error for atom=    0.0024 (will be added to EATOM!!)
  PAW_PBE Cl_GW 19Mar2012               :
 energy of atom  4       EATOM= -409.7259
 kinetic energy error for atom=    0.0030 (will be added to EATOM!!)
 
 
 POSCAR: Li24 P4 S20 Cl4
  positions in direct lattice
  velocities in cartesian coordinates
 exchange correlation table for  LEXCH =        8
   RHO(1)=    0.500       N(1)  =     2000
   RHO(2)=  100.500       N(2)  =     4000

 VTST: version 4.1, (05/19/21)

 CHAIN: initializing optimizer
 
 OPT: Using VASP Conjugate-Gradient optimizer
 CHAIN: Read ICHAIN            0
 
 POSCAR: Li24 P4 S20 Cl4
  positions in direct lattice
  velocities in cartesian coordinates
 


--------------------------------------------------------------------------------------------------------


 ion  position               nearest neighbor table
   1  0.956  0.162  0.186-
   2  0.986  0.796  0.787-
   3  0.032  0.163  0.823-
   4  0.013  0.795  0.206-
   5  0.272  0.296  0.982-
   6  0.208  0.830  0.016-
   7  0.706  0.328  0.027-
   8  0.790  0.837  0.974-
   9  0.307  0.972  0.328-
  10  0.316  0.010  0.702-
  11  0.661  0.971  0.686-
  12  0.668  0.052  0.340-
  13  0.192  0.671  0.459-
  14  0.313  0.218  0.522-
  15  0.806  0.723  0.522-
  16  0.830  0.297  0.484-
  17  0.172  0.458  0.690-
  18  0.279  0.532  0.172-
  19  0.809  0.494  0.298-
  20  0.804  0.525  0.707-
  21  0.475  0.312  0.795-
  22  0.479  0.723  0.203-
  23  0.513  0.302  0.225-
  24  0.537  0.665  0.827-
  25  0.497  0.513  0.503-  43 2.05  41 2.05  42 2.06  44 2.07
  26  0.503  0.012  0.009-  37 2.05  38 2.05  39 2.05  40 2.06
  27  0.995  0.502  0.999-  34 2.05  35 2.05  36 2.05  33 2.06
  28  0.001  0.005  0.502-  30 2.04  32 2.05  29 2.06  31 2.06
  29  0.130  0.871  0.605-  28 2.06
  30  0.117  0.137  0.384-  28 2.04
  31  0.871  0.900  0.370-  28 2.06
  32  0.875  0.109  0.637-  28 2.05
  33  0.859  0.628  0.102-  27 2.06
  34  0.890  0.370  0.870-  27 2.05
  35  0.134  0.617  0.886-  27 2.05
  36  0.098  0.377  0.137-  27 2.05
  37  0.626  0.133  0.886-  26 2.05
  38  0.627  0.902  0.142-  26 2.05
  39  0.366  0.122  0.127-  26 2.05
  40  0.403  0.872  0.882-  26 2.06
  41  0.619  0.638  0.383-  25 2.05
  42  0.622  0.380  0.614-  25 2.06
  43  0.373  0.620  0.637-  25 2.05
  44  0.359  0.408  0.379-  25 2.07
  45  0.751  0.753  0.752-
  46  0.747  0.265  0.257-
  47  0.245  0.756  0.241-
  48  0.250  0.238  0.753-
  49  0.003  0.973  0.996-
  50  0.970  0.519  0.509-
  51  0.480  0.025  0.506-
  52  0.482  0.472  0.011-
 
  LATTYP: Found a simple cubic cell.
 ALAT       =     9.6601830969
  
  Lattice vectors:
  
 A1 = (   9.6601830969,   0.0000000000,   0.0000000000)
 A2 = (   0.0000000000,   9.6601830969,   0.0000000000)
 A3 = (   0.0000000000,   0.0000000000,   9.6601830969)


Analysis of symmetry for initial positions (statically):
=====================================================================
 Subroutine PRICEL returns:
 Original cell was already a primitive cell.
 

 Routine SETGRP: Setting up the symmetry group for a 
 simple cubic supercell.


 Subroutine GETGRP returns: Found  1 space group operations
 (whereof  1 operations were pure point group operations)
 out of a pool of 48 trial point group operations.


The static configuration has the point symmetry C_1 .


Analysis of symmetry for dynamics (positions and initial velocities):
=====================================================================
 Subroutine PRICEL returns:
 Original cell was already a primitive cell.
 

 Routine SETGRP: Setting up the symmetry group for a 
 simple cubic supercell.


 Subroutine GETGRP returns: Found  1 space group operations
 (whereof  1 operations were pure point group operations)
 out of a pool of 48 trial point group operations.


The dynamic configuration has the point symmetry C_1 .


Analysis of structural, dynamic, and magnetic symmetry:
=====================================================================
 Subroutine PRICEL returns:
 Original cell was already a primitive cell.
 

 Routine SETGRP: Setting up the symmetry group for a 
 simple cubic supercell.


 Subroutine GETGRP returns: Found  1 space group operations
 (whereof  1 operations were pure point group operations)
 out of a pool of 48 trial point group operations.


The overall configuration has the point symmetry C_1 .


 Subroutine INISYM returns: Found  1 space group operations
 (whereof  1 operations are pure point group operations),
 and found     1 'primitive' translations


----------------------------------------------------------------------------------------

                                     Primitive cell                                     

  volume of cell :     901.4800

  direct lattice vectors                    reciprocal lattice vectors
     9.660183097  0.000000000  0.000000000     0.103517707  0.000000000  0.000000000
     0.000000000  9.660183097  0.000000000     0.000000000  0.103517707  0.000000000
     0.000000000  0.000000000  9.660183097     0.000000000  0.000000000  0.103517707

  length of vectors
     9.660183097  9.660183097  9.660183097     0.103517707  0.103517707  0.103517707

  position of ions in fractional coordinates (direct lattice)
     0.955804131  0.161715763  0.185657261
     0.985516117  0.796302582  0.786672666
     0.031541067  0.163237370  0.822983451
     0.012773068  0.794685112  0.205525228
     0.271659987  0.296049014  0.982206654
     0.208376052  0.829744080  0.016098210
     0.706470197  0.327509092  0.027069290
     0.790200970  0.837215665  0.973968076
     0.306694541  0.971808355  0.328120869
     0.316122291  0.010260177  0.701634205
     0.660500519  0.970594597  0.686280730
     0.668099417  0.051727551  0.339689683
     0.191723642  0.670540990  0.459473560
     0.313462991  0.217918420  0.521815827
     0.805567134  0.723248883  0.521907557
     0.829904038  0.296630915  0.484191132
     0.171529583  0.457978058  0.689616429
     0.278976392  0.532292516  0.172155064
     0.809370204  0.493715600  0.297520341
     0.804398176  0.524779305  0.706836413
     0.474698525  0.312059702  0.794620064
     0.479056282  0.722514703  0.203157414
     0.512889220  0.301812766  0.224581990
     0.536788642  0.665099435  0.826754817
     0.497254138  0.513096338  0.503259162
     0.503372878  0.011725393  0.008695159
     0.995493097  0.501714659  0.998826331
     0.001177478  0.005339706  0.501714422
     0.129712704  0.871200687  0.605475271
     0.117174625  0.137489481  0.383971469
     0.870520799  0.900368184  0.370322724
     0.875046558  0.109496931  0.637072645
     0.859098129  0.628256165  0.102029671
     0.889770859  0.369721701  0.870251802
     0.133533698  0.617040288  0.885604595
     0.097538423  0.376917722  0.137356724
     0.625643017  0.133307789  0.885672375
     0.626656605  0.901771230  0.141678818
     0.365970841  0.121791481  0.127449144
     0.403461620  0.872174370  0.881804046
     0.619334645  0.637946830  0.383060450
     0.621926902  0.380476465  0.613539531
     0.372887568  0.620166990  0.637367565
     0.358686541  0.408049023  0.378808784
     0.751443767  0.753206232  0.752280341
     0.746600621  0.265067159  0.257097644
     0.245392994  0.756476570  0.241058039
     0.250167914  0.238448587  0.752665765
     0.002944777  0.972893120  0.995977934
     0.970228522  0.519040264  0.509094555
     0.480060355  0.025216480  0.506038242
     0.481787209  0.472159504  0.010938839

  ion indices of the primitive-cell ions
   primitive index   ion index
                 1           1
                 2           2
                 3           3
                 4           4
                 5           5
                 6           6
                 7           7
                 8           8
                 9           9
                10          10
                11          11
                12          12
                13          13
                14          14
                15          15
                16          16
                17          17
                18          18
                19          19
                20          20
                21          21
                22          22
                23          23
                24          24
                25          25
                26          26
                27          27
                28          28
                29          29
                30          30
                31          31
                32          32
                33          33
                34          34
                35          35
                36          36
                37          37
                38          38
                39          39
                40          40
                41          41
                42          42
                43          43
                44          44
                45          45
                46          46
                47          47
                48          48
                49          49
                50          50
                51          51
                52          52

----------------------------------------------------------------------------------------

 
 
 KPOINTS: Automatic mesh                          

Automatic generation of k-mesh.
 Grid dimensions read from file:
 generate k-points for:    2    2    2

 Generating k-lattice:

  Cartesian coordinates                     Fractional coordinates (reciprocal lattice)
     0.051758853  0.000000000  0.000000000     0.500000000  0.000000000  0.000000000
     0.000000000  0.051758853  0.000000000     0.000000000  0.500000000  0.000000000
     0.000000000  0.000000000  0.051758853     0.000000000  0.000000000  0.500000000

  Length of vectors
     0.051758853  0.051758853  0.051758853

  Shift w.r.t. Gamma in fractional coordinates (k-lattice)
     0.500000000  0.500000000  0.500000000

 
 Subroutine IBZKPT returns following result:
 ===========================================
 
 Found      4 irreducible k-points:
 
 Following reciprocal coordinates:
            Coordinates               Weight
  0.250000  0.250000  0.250000      2.000000
 -0.250000  0.250000  0.250000      2.000000
 -0.250000 -0.250000  0.250000      2.000000
  0.250000 -0.250000  0.250000      2.000000
 
 Following cartesian coordinates:
            Coordinates               Weight
  0.025879  0.025879  0.025879      2.000000
 -0.025879  0.025879  0.025879      2.000000
 -0.025879 -0.025879  0.025879      2.000000
  0.025879 -0.025879  0.025879      2.000000
 


--------------------------------------------------------------------------------------------------------




 Dimension of arrays:
   k-points           NKPTS =      4   k-points in BZ     NKDIM =      4   number of bands    NBANDS=    176
   number of dos      NEDOS =    301   number of ions     NIONS =     52
   non local maximal  LDIM  =      6   non local SUM 2l+1 LMDIM =     18
   total plane-waves  NPLWV = 373248
   max r-space proj   IRMAX =   5777   max aug-charges    IRDMAX=  17672
   dimension x,y,z NGX =    72 NGY =   72 NGZ =   72
   dimension x,y,z NGXF=   144 NGYF=  144 NGZF=  144
   support grid    NGXF=   144 NGYF=  144 NGZF=  144
   ions per type =              24   4  20   4
   NGX,Y,Z   is equivalent  to a cutoff of  12.39, 12.39, 12.39 a.u.
   NGXF,Y,Z  is equivalent  to a cutoff of  24.78, 24.78, 24.78 a.u.

 SYSTEM =  unknown system                          
 POSCAR =  Li24 P4 S20 Cl4                         

 Startparameter for this run:
   NWRITE =      2    write-flag & timer
   PREC   = accu      normal or accurate (medium, high low for compatibility)
   ISTART =      0    job   : 0-new  1-cont  2-samecut
   ICHARG =      2    charge: 1-file 2-atom 10-const
   ISPIN  =      2    spin polarized calculation?
   LNONCOLLINEAR =      F non collinear calculations
   LSORBIT =      F    spin-orbit coupling
   INIWAV =      1    electr: 0-lowe 1-rand  2-diag
   LASPH  =      T    aspherical Exc in radial PAW
 Electronic Relaxation 1
   ENCUT  =  520.0 eV  38.22 Ry    6.18 a.u.  17.96 17.96 17.96*2*pi/ulx,y,z
   ENINI  =  520.0     initial cutoff
   ENAUG  = 1041.7 eV  augmentation charge cutoff
   NELM   =    100;   NELMIN=  2; NELMDL=-10     # of ELM steps 
   EDIFF  = 0.1E-05   stopping-criterion for ELM
   LREAL  =      T    real-space projection
   NLSPLINE    = F    spline interpolate recip. space projectors
   LCOMPAT=      F    compatible to vasp.4.4
   GGA_COMPAT  = T    GGA compatible to vasp.4.4-vasp.4.6
   LMAXPAW     = -100 max onsite density
   LMAXMIX     =    4 max onsite mixed and CHGCAR
   VOSKOWN=      0    Vosko Wilk Nusair interpolation
   ROPT   =   -0.00025  -0.00025  -0.00025  -0.00025
 Ionic relaxation
   EDIFFG = -.1E-02   stopping-criterion for IOM
   NSW    =   1000    number of steps for IOM
   NBLOCK =      1;   KBLOCK =   1000    inner block; outer block 
   IBRION =      2    ionic relax: 0-MD 1-quasi-New 2-CG
   NFREE  =      1    steps in history (QN), initial steepest desc. (CG)
   ISIF   =      2    stress and relaxation
   IWAVPR =     11    prediction:  0-non 1-charg 2-wave 3-comb
   ISYM   =      2    0-nonsym 1-usesym 2-fastsym
   LCORR  =      T    Harris-Foulkes like correction to forces

   POTIM  = 0.2000    time-step for ionic-motion
   TEIN   =    0.0    initial temperature
   TEBEG  =    0.0;   TEEND  =   0.0 temperature during run
   SMASS  =  -3.00    Nose mass-parameter (am)
   estimated Nose-frequenzy (Omega)   =  0.10E-29 period in steps = 0.31E+47 mass=  -0.213E-26a.u.
   SCALEE = 1.0000    scale energy and forces
   NPACO  =    256;   APACO  = 10.0  distance and # of slots for P.C.
   PSTRESS=    0.0 pullay stress

  Mass of Ions in am
   POMASS =   7.01 30.97 32.07 35.45
  Ionic Valenz
   ZVAL   =   3.00  5.00  6.00  7.00
  Atomic Wigner-Seitz radii
   RWIGS  =  -1.00 -1.00 -1.00 -1.00
  virtual crystal weights 
   VCA    =   1.00  1.00  1.00  1.00
   NELECT =     240.0000    total number of electrons
   NUPDOWN=      -1.0000    fix difference up-down

 DOS related values:
   EMIN   =  10.00;   EMAX   =-10.00  energy-range for DOS
   EFERMI =   0.00;   METHOD = LEGACY      
   ISMEAR =     0;   SIGMA  =   0.03  broadening in eV -4-tet -1-fermi 0-gaus

 Electronic relaxation 2 (details)
   IALGO  =     68    algorithm
   LDIAG  =      T    sub-space diagonalisation (order eigenvalues)
   LSUBROT=      F    optimize rotation matrix (better conditioning)
   TURBO    =      0    0=normal 1=particle mesh
   IRESTART =      0    0=no restart 2=restart with 2 vectors
   NREBOOT  =      0    no. of reboots
   NMIN     =      0    reboot dimension
   EREF     =   0.00    reference energy to select bands
   IMIX   =      4    mixing-type and parameters
     AMIX     =   0.40;   BMIX     =  1.00
     AMIX_MAG =   1.60;   BMIX_MAG =  1.00
     AMIN     =   0.10
     WC   =   100.;   INIMIX=   1;  MIXPRE=   1;  MAXMIX= -45

 Intra band minimization:
   WEIMIN = 0.0010     energy-eigenvalue tresh-hold
   EBREAK =  0.14E-08  absolut break condition
   DEPER  =   0.30     relativ break condition  

   TIME   =   0.40     timestep for ELM

  volume/ion in A,a.u.               =      17.34       116.99
  Fermi-wavevector in a.u.,A,eV,Ry     =   1.053157  1.990179 15.090768  1.109140
  Thomas-Fermi vector in A             =   2.188268
 
 Write flags
   LWAVE        =      F    write WAVECAR
   LDOWNSAMPLE  =      F    k-point downsampling of WAVECAR
   LCHARG       =      F    write CHGCAR
   LVTOT        =      F    write LOCPOT, total local potential
   LVHAR        =      F    write LOCPOT, Hartree potential only
   LELF         =      F    write electronic localiz. function (ELF)
   LORBIT       =      0    0 simple, 1 ext, 2 COOP (PROOUT), +10 PAW based schemes


 Dipole corrections
   LMONO  =      F    monopole corrections only (constant potential shift)
   LDIPOL =      F    correct potential (dipole corrections)
   IDIPOL =      0    1-x, 2-y, 3-z, 4-all directions 
   EPSILON=  1.0000000 bulk dielectric constant

 Exchange correlation treatment:
   GGA     =    PE    GGA type
   LEXCH   =     8    internal setting for exchange type
   LIBXC   =     F    Libxc                    
   VOSKOWN =     0    Vosko Wilk Nusair interpolation
   LHFCALC =     F    Hartree Fock is set to
   LHFONE  =     F    Hartree Fock one center treatment
   AEXX    =    0.0000 exact exchange contribution

 Linear response parameters
   LEPSILON=     F    determine dielectric tensor
   LRPA    =     F    only Hartree local field effects (RPA)
   LNABLA  =     F    use nabla operator in PAW spheres
   LVEL    =     F    velocity operator in full k-point grid
   CSHIFT  =0.1000    complex shift for real part using Kramers Kronig
   OMEGAMAX=  -1.0    maximum frequency
   DEG_THRESHOLD= 0.2000000E-02 threshold for treating states as degnerate
   RTIME   =   -0.100 relaxation time in fs
  (WPLASMAI=    0.000 imaginary part of plasma frequency in eV, 0.658/RTIME)
   DFIELD  = 0.0000000 0.0000000 0.0000000 field for delta impulse in time
 
  Optional k-point grid parameters
   LKPOINTS_OPT  =     F    use optional k-point grid
   KPOINTS_OPT_MODE=     1    mode for optional k-point grid
 
 Orbital magnetization related:
   ORBITALMAG=     F  switch on orbital magnetization
   LCHIMAG   =     F  perturbation theory with respect to B field
   DQ        =  0.001000  dq finite difference perturbation B field
   LLRAUG    =     F  two centre corrections for induced B field
   LBONE     =     F  B-component reconstruction in AE one-centre
   LVGVCALC  =     T  calculate vGv susceptibility
   LVGVAPPL  =     F  apply vGv susceptibility instead of pGv for G=0

 Random number generation:
   RANDOM_GENERATOR = DEFAULT
   PCG_SEED         = not used


--------------------------------------------------------------------------------------------------------


 conjugate gradient relaxation of ions
 charge density and potential will be updated during run
 spin polarized calculation
 RMM-DIIS sequential band-by-band and
  variant of blocked Davidson during initial phase
 perform sub-space diagonalisation
    before iterative eigenvector-optimisation
 modified Broyden-mixing scheme, WC =      100.0
 initial mixing is a Kerker type mixing with AMIX =  0.4000 and BMIX =      1.0000
 Hartree-type preconditioning will be used
 using additional bands           56
 real space projection scheme for non local part
 use partial core corrections
 calculate Harris-corrections to forces 
   (improved forces if not selfconsistent)
 use gradient corrections 
 use of overlap-Matrix (Vanderbilt PP)
 Gauss-broadening in eV      SIGMA  =   0.03


--------------------------------------------------------------------------------------------------------


  energy-cutoff  :      520.00
  volume of cell :      901.48
      direct lattice vectors                 reciprocal lattice vectors
     9.660183097  0.000000000  0.000000000     0.103517707  0.000000000  0.000000000
     0.000000000  9.660183097  0.000000000     0.000000000  0.103517707  0.000000000
     0.000000000  0.000000000  9.660183097     0.000000000  0.000000000  0.103517707

  length of vectors
     9.660183097  9.660183097  9.660183097     0.103517707  0.103517707  0.103517707


 
 k-points in units of 2pi/SCALE and weight: Automatic mesh                          
   0.02587943  0.02587943  0.02587943       0.250
  -0.02587943  0.02587943  0.02587943       0.250
  -0.02587943 -0.02587943  0.02587943       0.250
   0.02587943 -0.02587943  0.02587943       0.250
 
 k-points in reciprocal lattice and weights: Automatic mesh                          
   0.25000000  0.25000000  0.25000000       0.250
  -0.25000000  0.25000000  0.25000000       0.250
  -0.25000000 -0.25000000  0.25000000       0.250
   0.25000000 -0.25000000  0.25000000       0.250
 
 position of ions in fractional coordinates (direct lattice) 
   0.95580413  0.16171576  0.18565726
   0.98551612  0.79630258  0.78667267
   0.03154107  0.16323737  0.82298345
   0.01277307  0.79468511  0.20552523
   0.27165999  0.29604901  0.98220665
   0.20837605  0.82974408  0.01609821
   0.70647020  0.32750909  0.02706929
   0.79020097  0.83721567  0.97396808
   0.30669454  0.97180836  0.32812087
   0.31612229  0.01026018  0.70163420
   0.66050052  0.97059460  0.68628073
   0.66809942  0.05172755  0.33968968
   0.19172364  0.67054099  0.45947356
   0.31346299  0.21791842  0.52181583
   0.80556713  0.72324888  0.52190756
   0.82990404  0.29663092  0.48419113
   0.17152958  0.45797806  0.68961643
   0.27897639  0.53229252  0.17215506
   0.80937020  0.49371560  0.29752034
   0.80439818  0.52477930  0.70683641
   0.47469852  0.31205970  0.79462006
   0.47905628  0.72251470  0.20315741
   0.51288922  0.30181277  0.22458199
   0.53678864  0.66509944  0.82675482
   0.49725414  0.51309634  0.50325916
   0.50337288  0.01172539  0.00869516
   0.99549310  0.50171466  0.99882633
   0.00117748  0.00533971  0.50171442
   0.12971270  0.87120069  0.60547527
   0.11717462  0.13748948  0.38397147
   0.87052080  0.90036818  0.37032272
   0.87504656  0.10949693  0.63707264
   0.85909813  0.62825616  0.10202967
   0.88977086  0.36972170  0.87025180
   0.13353370  0.61704029  0.88560460
   0.09753842  0.37691772  0.13735672
   0.62564302  0.13330779  0.88567237
   0.62665660  0.90177123  0.14167882
   0.36597084  0.12179148  0.12744914
   0.40346162  0.87217437  0.88180405
   0.61933465  0.63794683  0.38306045
   0.62192690  0.38047646  0.61353953
   0.37288757  0.62016699  0.63736757
   0.35868654  0.40804902  0.37880878
   0.75144377  0.75320623  0.75228034
   0.74660062  0.26506716  0.25709764
   0.24539299  0.75647657  0.24105804
   0.25016791  0.23844859  0.75266577
   0.00294478  0.97289312  0.99597793
   0.97022852  0.51904026  0.50909455
   0.48006035  0.02521648  0.50603824
   0.48178721  0.47215950  0.01093884
 
 position of ions in cartesian coordinates  (Angst):
   9.23324291  1.56220388  1.79348313
   9.52026613  7.69242874  7.59940199
   0.30469249  1.57690288  7.95017083
   0.12339017  7.67680368  1.98541134
   2.62428522  2.85988768  9.48829612
   2.01295081  8.01547974  0.15551165
   6.82463146  3.16379780  0.26149430
   7.63348605  8.08765662  9.40870995
   2.96272542  9.38784665  3.16970767
   3.05379921  0.09911519  6.77791488
   6.38055595  9.37612152  6.62959751
   6.45396270  0.49969762  3.28146453
   1.85208548  6.47754874  4.43859872
   3.02810989  2.10513184  5.04083643
   7.78192601  6.98671664  5.04172256
   8.01702496  2.86550896  4.67737499
   1.65700718  4.42415189  6.66182097
   2.69496303  5.14204317  1.66304944
   7.81866436  4.76938310  2.87410097
   7.77063366  5.06946417  6.82816917
   4.58567466  3.01455386  7.67617531
   4.62777140  6.97962432  1.96253781
   4.95460377  2.91556658  2.16950315
   5.18547656  6.42498232  7.98660291
   4.80356602  4.95660457  4.86157565
   4.86267417  0.11326944  0.08399683
   9.61664559  4.84665547  9.64884524
   0.01137466  0.05158253  4.84665318
   1.25304847  8.41595815  5.84900198
   1.13192833  1.32817356  3.70923470
   8.40939031  8.69772151  3.57738532
   8.45310997  1.05776040  6.15423839
   8.29904522  6.06906958  0.98562530
   8.59534941  3.57157933  8.40679175
   1.28995998  5.96072216  8.55510254
   0.94223902  3.64109421  1.32689110
   6.04382610  1.28777765  8.55575731
   6.05361754  8.71127519  1.36864332
   3.53534534  1.17652801  1.23118207
   3.89751312  8.42536411  8.51838854
   5.98288607  6.16268318  3.70043409
   6.00792775  3.67547231  5.92690420
   3.60216218  5.99092667  6.15708738
   3.46497766  3.94182827  3.65936222
   7.25908437  7.27611011  7.26716583
   7.21229870  2.56059729  2.48361031
   2.37054125  7.30770217  2.32866480
   2.41666786  2.30345701  7.27088910
   0.02844709  9.39832567  9.62132920
   9.37258517  5.01402398  4.91794661
   4.63747092  0.24359582  4.88842207
   4.65415265  4.56114726  0.10567119
 


--------------------------------------------------------------------------------------------------------


 k-point   1 :   0.2500 0.2500 0.2500  plane waves:   24252
 k-point   2 :  -0.2500 0.2500 0.2500  plane waves:   24252
 k-point   3 :  -0.2500-0.2500 0.2500  plane waves:   24252
 k-point   4 :   0.2500-0.2500 0.2500  plane waves:   24252

 maximum and minimum number of plane-waves per node :       778      744

 maximum number of plane-waves:     24252
 maximum index in each direction: 
   IXMAX=   18   IYMAX=   18   IZMAX=   17
   IXMIN=  -18   IYMIN=  -18   IZMIN=  -18


 real space projection operators:
  total allocation   :      28347.42 KBytes
  max/ min on nodes  :       1194.27        719.06


 parallel 3D FFT for wavefunctions:
    minimum data exchange during FFTs selected (reduces bandwidth)
 parallel 3D FFT for charge:
    minimum data exchange during FFTs selected (reduces bandwidth)


 total amount of memory used by VASP MPI-rank0    48237. kBytes
=======================================================================

   base      :      30000. kBytes
   nonlr-proj:       6577. kBytes
   fftplans  :       1747. kBytes
   grid      :       5278. kBytes
   one-center:         62. kBytes
   wavefun   :       4573. kBytes
 
     INWAV:  cpu time      0.0000: real time      0.0000
 Broyden mixing: mesh for mixing (old mesh)
   NGX = 35   NGY = 35   NGZ = 35
  (NGX  =144   NGY  =144   NGZ  =144)
  gives a total of  42875 points

 initial charge density was supplied:
 charge density of overlapping atoms calculated
 number of electron     240.0000000 magnetization      52.0000000
 keeping initial charge density in first step


--------------------------------------------------------------------------------------------------------


 Maximum index for non-local projection operator          564
 Maximum index for augmentation-charges         1107 (set IRDMAX)


--------------------------------------------------------------------------------------------------------


 First call to EWALD:  gamma=   0.183
 Maximum number of real-space cells 3x 3x 3
 Maximum number of reciprocal cells 3x 3x 3

    FEWALD:  cpu time      0.0028: real time      0.0036


--------------------------------------- Ionic step        1  -------------------------------------------




--------------------------------------- Iteration      1(   1)  ---------------------------------------


    POTLOK:  cpu time      0.0583: real time      0.0672
    SETDIJ:  cpu time      0.4066: real time      0.4228
     EDDAV:  cpu time      2.2642: real time      2.3400
       DOS:  cpu time      0.0014: real time      0.0026
    --------------------------------------------
      LOOP:  cpu time      2.7305: real time      2.8326

 eigenvalue-minimisations  :  3096
 total energy-change (2. order) : 0.1592305E+04  (-0.1137416E+05)
 number of electron     240.0000000 magnetization      52.0000000
 augmentation part      240.0000000 magnetization      52.0000000

 Free energy of the ion-electron system (eV)
  ---------------------------------------------------
  alpha Z        PSCENC =       301.12428165
  Ewald energy   TEWEN  =     -8821.09671074
  -Hartree energ DENC   =     -2107.39594974
  -exchange      EXHF   =         0.00000000
  -V(xc)+E(xc)   XCENC  =       534.25881247
  PAW double counting   =      8141.38806575    -8271.61346273
  entropy T*S    EENTRO =        -0.00830166
  eigenvalues    EBANDS =      -887.49218331
  atomic energy  EATOM  =     12703.13999606
  Solvation  Ediel_sol  =         0.00000000
  ---------------------------------------------------
  free energy    TOTEN  =      1592.30454775 eV

  energy without entropy =     1592.31284941  energy(sigma->0) =     1592.30869858


--------------------------------------------------------------------------------------------------------




--------------------------------------- Iteration      1(   2)  ---------------------------------------


     EDDAV:  cpu time      2.6441: real time      2.6719
       DOS:  cpu time      0.0004: real time      0.0004
    --------------------------------------------
      LOOP:  cpu time      2.6445: real time      2.6723

 eigenvalue-minimisations  :  3880
 total energy-change (2. order) :-0.1648970E+04  (-0.1552341E+04)
 number of electron     240.0000000 magnetization      52.0000000
 augmentation part      240.0000000 magnetization      52.0000000

 Free energy of the ion-electron system (eV)
  ---------------------------------------------------
  alpha Z        PSCENC =       301.12428165
  Ewald energy   TEWEN  =     -8821.09671074
  -Hartree energ DENC   =     -2107.39594974
  -exchange      EXHF   =         0.00000000
  -V(xc)+E(xc)   XCENC  =       534.25881247
  PAW double counting   =      8141.38806575    -8271.61346273
  entropy T*S    EENTRO =        -0.00000000
  eigenvalues    EBANDS =     -2536.47015562
  atomic energy  EATOM  =     12703.13999606
  Solvation  Ediel_sol  =         0.00000000
  ---------------------------------------------------
  free energy    TOTEN  =       -56.66512290 eV

  energy without entropy =      -56.66512290  energy(sigma->0) =      -56.66512290


--------------------------------------------------------------------------------------------------------




--------------------------------------- Iteration      1(   3)  ---------------------------------------


     EDDAV:  cpu time      2.7428: real time      2.7701
       DOS:  cpu time      0.0004: real time      0.0004
    --------------------------------------------
      LOOP:  cpu time      2.7432: real time      2.7705

 eigenvalue-minimisations  :  3752
 total energy-change (2. order) :-0.1716352E+03  (-0.1695884E+03)
 number of electron     240.0000000 magnetization      52.0000000
 augmentation part      240.0000000 magnetization      52.0000000

 Free energy of the ion-electron system (eV)
  ---------------------------------------------------
  alpha Z        PSCENC =       301.12428165
  Ewald energy   TEWEN  =     -8821.09671074
  -Hartree energ DENC   =     -2107.39594974
  -exchange      EXHF   =         0.00000000
  -V(xc)+E(xc)   XCENC  =       534.25881247
  PAW double counting   =      8141.38806575    -8271.61346273
  entropy T*S    EENTRO =        -0.00000000
  eigenvalues    EBANDS =     -2708.10536492
  atomic energy  EATOM  =     12703.13999606
  Solvation  Ediel_sol  =         0.00000000
  ---------------------------------------------------
  free energy    TOTEN  =      -228.30033220 eV

  energy without entropy =     -228.30033220  energy(sigma->0) =     -228.30033220


--------------------------------------------------------------------------------------------------------




--------------------------------------- Iteration      1(   4)  ---------------------------------------


     EDDAV:  cpu time      3.1596: real time      3.1845
       DOS:  cpu time      0.0004: real time      0.0004
    --------------------------------------------
      LOOP:  cpu time      3.1600: real time      3.1850

 eigenvalue-minimisations  :  4768
 total energy-change (2. order) :-0.1357490E+02  (-0.1355179E+02)
 number of electron     240.0000000 magnetization      52.0000000
 augmentation part      240.0000000 magnetization      52.0000000

 Free energy of the ion-electron system (eV)
  ---------------------------------------------------
  alpha Z        PSCENC =       301.12428165
  Ewald energy   TEWEN  =     -8821.09671074
  -Hartree energ DENC   =     -2107.39594974
  -exchange      EXHF   =         0.00000000
  -V(xc)+E(xc)   XCENC  =       534.25881247
  PAW double counting   =      8141.38806575    -8271.61346273
  entropy T*S    EENTRO =        -0.00000000
  eigenvalues    EBANDS =     -2721.68026581
  atomic energy  EATOM  =     12703.13999606
  Solvation  Ediel_sol  =         0.00000000
  ---------------------------------------------------
  free energy    TOTEN  =      -241.87523309 eV

  energy without entropy =     -241.87523309  energy(sigma->0) =     -241.87523309


--------------------------------------------------------------------------------------------------------




--------------------------------------- Iteration      1(   5)  ---------------------------------------


     EDDAV:  cpu time      2.9280: real time      2.9515
       DOS:  cpu time      0.0004: real time      0.0004
    --------------------------------------------
      LOOP:  cpu time      2.9284: real time      2.9519

 eigenvalue-minimisations  :  4424
 total energy-change (2. order) :-0.2225076E+00  (-0.2224082E+00)
 number of electron     240.0000000 magnetization      52.0000000
 augmentation part      240.0000000 magnetization      52.0000000

 Free energy of the ion-electron system (eV)
  ---------------------------------------------------
  alpha Z        PSCENC =       301.12428165
  Ewald energy   TEWEN  =     -8821.09671074
  -Hartree energ DENC   =     -2107.39594974
  -exchange      EXHF   =         0.00000000
  -V(xc)+E(xc)   XCENC  =       534.25881247
  PAW double counting   =      8141.38806575    -8271.61346273
  entropy T*S    EENTRO =        -0.00000000
  eigenvalues    EBANDS =     -2721.90277338
  atomic energy  EATOM  =     12703.13999606
  Solvation  Ediel_sol  =         0.00000000
  ---------------------------------------------------
  free energy    TOTEN  =      -242.09774065 eV

  energy without entropy =     -242.09774065  energy(sigma->0) =     -242.09774065


--------------------------------------------------------------------------------------------------------




--------------------------------------- Iteration      1(   6)  ---------------------------------------


     EDDAV:  cpu time      3.1355: real time      3.1719
       DOS:  cpu time      0.0004: real time      0.0004
    --------------------------------------------
      LOOP:  cpu time      3.1359: real time      3.1723

 eigenvalue-minimisations  :  4648
 total energy-change (2. order) :-0.1206435E-01  (-0.1206308E-01)
 number of electron     240.0000000 magnetization      52.0000000
 augmentation part      240.0000000 magnetization      52.0000000

 Free energy of the ion-electron system (eV)
  ---------------------------------------------------
  alpha Z        PSCENC =       301.12428165
  Ewald energy   TEWEN  =     -8821.09671074
  -Hartree energ DENC   =     -2107.39594974
  -exchange      EXHF   =         0.00000000
  -V(xc)+E(xc)   XCENC  =       534.25881247
  PAW double counting   =      8141.38806575    -8271.61346273
  entropy T*S    EENTRO =        -0.00000000
  eigenvalues    EBANDS =     -2721.91483772
  atomic energy  EATOM  =     12703.13999606
  Solvation  Ediel_sol  =         0.00000000
  ---------------------------------------------------
  free energy    TOTEN  =      -242.10980500 eV

  energy without entropy =     -242.10980500  energy(sigma->0) =     -242.10980500


--------------------------------------------------------------------------------------------------------




--------------------------------------- Iteration      1(   7)  ---------------------------------------


     EDDAV:  cpu time      2.9874: real time      3.0112
       DOS:  cpu time      0.0004: real time      0.0004
    --------------------------------------------
      LOOP:  cpu time      2.9878: real time      3.0116

 eigenvalue-minimisations  :  4528
 total energy-change (2. order) :-0.3785239E-03  (-0.3785001E-03)
 number of electron     240.0000000 magnetization      52.0000000
 augmentation part      240.0000000 magnetization      52.0000000

 Free energy of the ion-electron system (eV)
  ---------------------------------------------------
  alpha Z        PSCENC =       301.12428165
  Ewald energy   TEWEN  =     -8821.09671074
  -Hartree energ DENC   =     -2107.39594974
  -exchange      EXHF   =         0.00000000
  -V(xc)+E(xc)   XCENC  =       534.25881247
  PAW double counting   =      8141.38806575    -8271.61346273
  entropy T*S    EENTRO =        -0.00000000
  eigenvalues    EBANDS =     -2721.91521625
  atomic energy  EATOM  =     12703.13999606
  Solvation  Ediel_sol  =         0.00000000
  ---------------------------------------------------
  free energy    TOTEN  =      -242.11018352 eV

  energy without entropy =     -242.11018352  energy(sigma->0) =     -242.11018352


--------------------------------------------------------------------------------------------------------




--------------------------------------- Iteration      1(   8)  ---------------------------------------


     EDDAV:  cpu time      3.0193: real time      3.0523
       DOS:  cpu time      0.0004: real time      0.0004
    --------------------------------------------
      LOOP:  cpu time      3.0197: real time      3.0527

 eigenvalue-minimisations  :  4584
 total energy-change (2. order) :-0.2189006E-04  (-0.2188908E-04)
 number of electron     240.0000000 magnetization      52.0000000
 augmentation part      240.0000000 magnetization      52.0000000

 Free energy of the ion-electron system (eV)
  ---------------------------------------------------
  alpha Z        PSCENC =       301.12428165
  Ewald energy   TEWEN  =     -8821.09671074
  -Hartree energ DENC   =     -2107.39594974
  -exchange      EXHF   =         0.00000000
  -V(xc)+E(xc)   XCENC  =       534.25881247
  PAW double counting   =      8141.38806575    -8271.61346273
  entropy T*S    EENTRO =        -0.00000000
  eigenvalues    EBANDS =     -2721.91523814
  atomic energy  EATOM  =     12703.13999606
  Solvation  Ediel_sol  =         0.00000000
  ---------------------------------------------------
  free energy    TOTEN  =      -242.11020541 eV

  energy without entropy =     -242.11020541  energy(sigma->0) =     -242.11020541


--------------------------------------------------------------------------------------------------------




--------------------------------------- Iteration      1(   9)  ---------------------------------------


     EDDAV:  cpu time      2.9552: real time      2.9784
       DOS:  cpu time      0.0004: real time      0.0004
    --------------------------------------------
      LOOP:  cpu time      2.9556: real time      2.9788

 eigenvalue-minimisations  :  4480
 total energy-change (2. order) :-0.1403878E-05  (-0.1403980E-05)
 number of electron     240.0000000 magnetization      52.0000000
 augmentation part      240.0000000 magnetization      52.0000000

 Free energy of the ion-electron system (eV)
  ---------------------------------------------------
  alpha Z        PSCENC =       301.12428165
  Ewald energy   TEWEN  =     -8821.09671074
  -Hartree energ DENC   =     -2107.39594974
  -exchange      EXHF   =         0.00000000
  -V(xc)+E(xc)   XCENC  =       534.25881247
  PAW double counting   =      8141.38806575    -8271.61346273
  entropy T*S    EENTRO =        -0.00000000
  eigenvalues    EBANDS =     -2721.91523954
  atomic energy  EATOM  =     12703.13999606
  Solvation  Ediel_sol  =         0.00000000
  ---------------------------------------------------
  free energy    TOTEN  =      -242.11020682 eV

  energy without entropy =     -242.11020682  energy(sigma->0) =     -242.11020682


--------------------------------------------------------------------------------------------------------




--------------------------------------- Iteration      1(  10)  ---------------------------------------


     EDDAV:  cpu time      1.9787: real time      1.9955
       DOS:  cpu time      0.0005: real time      0.0005
    CHARGE:  cpu time      0.0677: real time      0.0737
    MIXING:  cpu time      0.0020: real time      0.0037
    --------------------------------------------
      LOOP:  cpu time      2.0488: real time      2.0733

 eigenvalue-minimisations  :  2656
 total energy-change (2. order) :-0.5968286E-07  (-0.5978025E-07)
 number of electron     240.0000009 magnetization      27.2660782
 augmentation part        1.4923181 magnetization      27.7081976

 Broyden mixing:
  rms(total) = 0.64350E+01    rms(broyden)= 0.64345E+01
  rms(prec ) = 0.66771E+01
  weight for this iteration     100.00

 Free energy of the ion-electron system (eV)
  ---------------------------------------------------
  alpha Z        PSCENC =       301.12428165
  Ewald energy   TEWEN  =     -8821.09671074
  -Hartree energ DENC   =     -2107.39594974
  -exchange      EXHF   =         0.00000000
  -V(xc)+E(xc)   XCENC  =       534.25881247
  PAW double counting   =      8141.38806575    -8271.61346273
  entropy T*S    EENTRO =        -0.00000000
  eigenvalues    EBANDS =     -2721.91523960
  atomic energy  EATOM  =     12703.13999606
  Solvation  Ediel_sol  =         0.00000000
  ---------------------------------------------------
  free energy    TOTEN  =      -242.11020688 eV

  energy without entropy =     -242.11020688  energy(sigma->0) =     -242.11020688


--------------------------------------------------------------------------------------------------------




--------------------------------------- Iteration      1(  11)  ---------------------------------------


    POTLOK:  cpu time      0.0546: real time      0.0554
    SETDIJ:  cpu time      0.3971: real time      0.3990
    EDDIAG:  cpu time      0.3650: real time      0.3681
  RMM-DIIS:  cpu time      1.1544: real time      1.1637
    ORTHCH:  cpu time      0.0664: real time      0.0683
       DOS:  cpu time      0.0005: real time      0.0005
    CHARGE:  cpu time      0.0653: real time      0.0680
    MIXING:  cpu time      0.0012: real time      0.0030
    --------------------------------------------
      LOOP:  cpu time      2.1044: real time      2.1260

 eigenvalue-minimisations  :  2816
 total energy-change (2. order) : 0.5785731E+01  (-0.4695357E+01)
 number of electron     240.0000009 magnetization      16.3189617
 augmentation part        1.7030540 magnetization      16.5029433

 Broyden mixing:
  rms(total) = 0.33121E+01    rms(broyden)= 0.33119E+01
  rms(prec ) = 0.34282E+01
  weight for this iteration     100.00

 eigenvalues of (default mixing * dielectric matrix)
  average eigenvalue GAMMA=   0.7256
  0.7256

 Free energy of the ion-electron system (eV)
  ---------------------------------------------------
  alpha Z        PSCENC =       301.12428165
  Ewald energy   TEWEN  =     -8821.09671074
  -Hartree energ DENC   =     -2155.67300584
  -exchange      EXHF   =         0.00000000
  -V(xc)+E(xc)   XCENC  =       542.52019377
  PAW double counting   =      8929.28126681    -9065.58080131
  entropy T*S    EENTRO =        -0.00000000
  eigenvalues    EBANDS =     -2670.03969628
  atomic energy  EATOM  =     12703.13999606
  Solvation  Ediel_sol  =         0.00000000
  ---------------------------------------------------
  free energy    TOTEN  =      -236.32447588 eV

  energy without entropy =     -236.32447588  energy(sigma->0) =     -236.32447588


--------------------------------------------------------------------------------------------------------




--------------------------------------- Iteration      1(  12)  ---------------------------------------


    POTLOK:  cpu time      0.0540: real time      0.0549
    SETDIJ:  cpu time      0.4031: real time      0.4052
    EDDIAG:  cpu time      0.3552: real time      0.3582
  RMM-DIIS:  cpu time      1.2082: real time      1.2186
    ORTHCH:  cpu time      0.0659: real time      0.0670
       DOS:  cpu time      0.0005: real time      0.0006
    CHARGE:  cpu time      0.0647: real time      0.0672
    MIXING:  cpu time      0.0011: real time      0.0011
    --------------------------------------------
      LOOP:  cpu time      2.1527: real time      2.1727

 eigenvalue-minimisations  :  2953
 total energy-change (2. order) :-0.1967440E+02  (-0.2135429E+01)
 number of electron     240.0000009 magnetization       0.5263974
 augmentation part        1.8026641 magnetization       0.8676396

 Broyden mixing:
  rms(total) = 0.20278E+01    rms(broyden)= 0.20278E+01
  rms(prec ) = 0.20891E+01
  weight for this iteration     100.00

 eigenvalues of (default mixing * dielectric matrix)
  average eigenvalue GAMMA=   1.1578
  1.6445  0.6710

 Free energy of the ion-electron system (eV)
  ---------------------------------------------------
  alpha Z        PSCENC =       301.12428165
  Ewald energy   TEWEN  =     -8821.09671074
  -Hartree energ DENC   =     -2179.92894827
  -exchange      EXHF   =         0.00000000
  -V(xc)+E(xc)   XCENC  =       536.19309109
  PAW double counting   =      9283.83602391    -9423.73341660
  entropy T*S    EENTRO =        -0.00000000
  eigenvalues    EBANDS =     -2655.53319021
  atomic energy  EATOM  =     12703.13999606
  Solvation  Ediel_sol  =         0.00000000
  ---------------------------------------------------
  free energy    TOTEN  =      -255.99887310 eV

  energy without entropy =     -255.99887310  energy(sigma->0) =     -255.99887310


--------------------------------------------------------------------------------------------------------




--------------------------------------- Iteration      1(  13)  ---------------------------------------


    POTLOK:  cpu time      0.0533: real time      0.0542
    SETDIJ:  cpu time      0.4030: real time      0.4051
    EDDIAG:  cpu time      0.3539: real time      0.3564
  RMM-DIIS:  cpu time      1.1899: real time      1.1995
    ORTHCH:  cpu time      0.0653: real time      0.0668
       DOS:  cpu time      0.0005: real time      0.0005
    CHARGE:  cpu time      0.0649: real time      0.0671
    MIXING:  cpu time      0.0010: real time      0.0010
    --------------------------------------------
      LOOP:  cpu time      2.1318: real time      2.1506

 eigenvalue-minimisations  :  2902
 total energy-change (2. order) :-0.2481631E+01  (-0.8999920E+00)
 number of electron     240.0000009 magnetization      -1.8340648
 augmentation part        1.9026544 magnetization      -1.7301175

 Broyden mixing:
  rms(total) = 0.66753E+00    rms(broyden)= 0.66753E+00
  rms(prec ) = 0.70013E+00
  weight for this iteration     100.00

 eigenvalues of (default mixing * dielectric matrix)
  average eigenvalue GAMMA=   1.3018
  2.5030  0.7489  0.6534

 Free energy of the ion-electron system (eV)
  ---------------------------------------------------
  alpha Z        PSCENC =       301.12428165
  Ewald energy   TEWEN  =     -8821.09671074
  -Hartree energ DENC   =     -2207.71187994
  -exchange      EXHF   =         0.00000000
  -V(xc)+E(xc)   XCENC  =       537.74795358
  PAW double counting   =      9786.16893970    -9930.01854530
  entropy T*S    EENTRO =        -0.00000000
  eigenvalues    EBANDS =     -2627.83453907
  atomic energy  EATOM  =     12703.13999606
  Solvation  Ediel_sol  =         0.00000000
  ---------------------------------------------------
  free energy    TOTEN  =      -258.48050406 eV

  energy without entropy =     -258.48050406  energy(sigma->0) =     -258.48050406


--------------------------------------------------------------------------------------------------------




--------------------------------------- Iteration      1(  14)  ---------------------------------------


    POTLOK:  cpu time      0.0525: real time      0.0534
    SETDIJ:  cpu time      0.4032: real time      0.4049
    EDDIAG:  cpu time      0.3551: real time      0.3578
  RMM-DIIS:  cpu time      1.5491: real time      1.5620
    ORTHCH:  cpu time      0.0661: real time      0.0669
       DOS:  cpu time      0.0005: real time      0.0006
    CHARGE:  cpu time      0.0647: real time      0.0661
    MIXING:  cpu time      0.0011: real time      0.0011
    --------------------------------------------
      LOOP:  cpu time      2.4924: real time      2.5127

 eigenvalue-minimisations  :  3768
 total energy-change (2. order) :-0.2001154E+00  (-0.1984222E+00)
 number of electron     240.0000009 magnetization      -0.8453485
 augmentation part        1.8729746 magnetization      -0.8179170

 Broyden mixing:
  rms(total) = 0.32315E+00    rms(broyden)= 0.32315E+00
  rms(prec ) = 0.35800E+00
  weight for this iteration     100.00

 eigenvalues of (default mixing * dielectric matrix)
  average eigenvalue GAMMA=   1.2667
  2.6110  1.1742  0.6899  0.5915

 Free energy of the ion-electron system (eV)
  ---------------------------------------------------
  alpha Z        PSCENC =       301.12428165
  Ewald energy   TEWEN  =     -8821.09671074
  -Hartree energ DENC   =     -2209.16398310
  -exchange      EXHF   =         0.00000000
  -V(xc)+E(xc)   XCENC  =       538.19350438
  PAW double counting   =      9862.14317925   -10006.78299099
  entropy T*S    EENTRO =        -0.00000000
  eigenvalues    EBANDS =     -2626.23789600
  atomic energy  EATOM  =     12703.13999606
  Solvation  Ediel_sol  =         0.00000000
  ---------------------------------------------------
  free energy    TOTEN  =      -258.68061947 eV

  energy without entropy =     -258.68061947  energy(sigma->0) =     -258.68061947


--------------------------------------------------------------------------------------------------------




--------------------------------------- Iteration      1(  15)  ---------------------------------------


    POTLOK:  cpu time      0.0526: real time      0.0535
    SETDIJ:  cpu time      0.4025: real time      0.4040
    EDDIAG:  cpu time      0.3538: real time      0.3562
  RMM-DIIS:  cpu time      1.2653: real time      1.2757
    ORTHCH:  cpu time      0.0655: real time      0.0658
       DOS:  cpu time      0.0005: real time      0.0005
    CHARGE:  cpu time      0.0657: real time      0.0670
    MIXING:  cpu time      0.0012: real time      0.0012
    --------------------------------------------
      LOOP:  cpu time      2.2070: real time      2.2238

 eigenvalue-minimisations  :  3057
 total energy-change (2. order) : 0.2752561E-01  (-0.3287109E-01)
 number of electron     240.0000009 magnetization      -0.2262753
 augmentation part        1.8250504 magnetization      -0.1995451

 Broyden mixing:
  rms(total) = 0.69033E-01    rms(broyden)= 0.69030E-01
  rms(prec ) = 0.81868E-01
  weight for this iteration     100.00

 eigenvalues of (default mixing * dielectric matrix)
  average eigenvalue GAMMA=   1.2710
  2.5378  1.5832  0.9480  0.6850  0.6009

 Free energy of the ion-electron system (eV)
  ---------------------------------------------------
  alpha Z        PSCENC =       301.12428165
  Ewald energy   TEWEN  =     -8821.09671074
  -Hartree energ DENC   =     -2204.73391022
  -exchange      EXHF   =         0.00000000
  -V(xc)+E(xc)   XCENC  =       537.85090001
  PAW double counting   =      9834.04882901    -9978.50459242
  entropy T*S    EENTRO =        -0.00000000
  eigenvalues    EBANDS =     -2630.48188722
  atomic energy  EATOM  =     12703.13999606
  Solvation  Ediel_sol  =         0.00000000
  ---------------------------------------------------
  free energy    TOTEN  =      -258.65309386 eV

  energy without entropy =     -258.65309386  energy(sigma->0) =     -258.65309386


--------------------------------------------------------------------------------------------------------




--------------------------------------- Iteration      1(  16)  ---------------------------------------


    POTLOK:  cpu time      0.0521: real time      0.0530
    SETDIJ:  cpu time      0.4030: real time      0.4042
    EDDIAG:  cpu time      0.3543: real time      0.3566
  RMM-DIIS:  cpu time      1.2638: real time      1.2738
    ORTHCH:  cpu time      0.0659: real time      0.0664
       DOS:  cpu time      0.0005: real time      0.0005
    CHARGE:  cpu time      0.0645: real time      0.0656
    MIXING:  cpu time      0.0012: real time      0.0012
    --------------------------------------------
      LOOP:  cpu time      2.2053: real time      2.2212

 eigenvalue-minimisations  :  3075
 total energy-change (2. order) :-0.1939802E-01  (-0.1054549E-01)
 number of electron     240.0000009 magnetization      -0.1058215
 augmentation part        1.8028821 magnetization      -0.0912701

 Broyden mixing:
  rms(total) = 0.30803E-01    rms(broyden)= 0.30801E-01
  rms(prec ) = 0.37243E-01
  weight for this iteration     100.00

 eigenvalues of (default mixing * dielectric matrix)
  average eigenvalue GAMMA=   1.2497
  2.4557  1.9441  1.0356  0.6204  0.6990  0.7433

 Free energy of the ion-electron system (eV)
  ---------------------------------------------------
  alpha Z        PSCENC =       301.12428165
  Ewald energy   TEWEN  =     -8821.09671074
  -Hartree energ DENC   =     -2204.14909447
  -exchange      EXHF   =         0.00000000
  -V(xc)+E(xc)   XCENC  =       537.76818605
  PAW double counting   =      9822.47170684    -9966.70100830
  entropy T*S    EENTRO =        -0.00000000
  eigenvalues    EBANDS =     -2631.22984896
  atomic energy  EATOM  =     12703.13999606
[...]
  0.005  -0.004  -0.000   0.000   0.003  -0.000   0.000   0.000  -0.000  -0.000  -0.000   0.000   0.000   0.000
 -0.002   0.002   0.000  -0.001  -0.000   0.005  -0.000  -0.000   0.000   0.000  -0.000   0.000   0.000  -0.000
 -0.012   0.012   0.000   0.001  -0.003   0.007   0.000  -0.000   0.000   0.000  -0.000   0.000   0.000  -0.000
  0.005  -0.005  -0.000  -0.001  -0.001  -0.003  -0.000  -0.000  -0.000  -0.000   0.000   0.000  -0.000  -0.000
 -0.008   0.008   0.000  -0.004   0.002   0.004  -0.000   0.000   0.000   0.000   0.000   0.000   0.000  -0.000
 -0.002   0.002   0.000  -0.003   0.003   0.007  -0.000   0.000   0.000   0.000  -0.000   0.000   0.000   0.000
  0.013  -0.013  -0.000   0.000   0.004  -0.004   0.000   0.000  -0.000  -0.000  -0.000  -0.000   0.000   0.000
 total augmentation occupancy for first ion, spin component:           2
  0.000   0.000   0.000   0.000  -0.000  -0.000  -0.000   0.000  -0.000   0.000   0.000  -0.000  -0.000  -0.000
  0.000  -0.000  -0.000  -0.000   0.000   0.000   0.000   0.000   0.000  -0.000  -0.000   0.000   0.000   0.000
  0.000  -0.000  -0.000  -0.000   0.000  -0.000  -0.000   0.000  -0.000  -0.000   0.000   0.000  -0.000   0.000
  0.000  -0.000  -0.000  -0.000  -0.000   0.000  -0.000  -0.000   0.000  -0.000  -0.000   0.000   0.000  -0.000
 -0.000   0.000   0.000  -0.000  -0.000  -0.000  -0.000  -0.000  -0.000   0.000   0.000  -0.000  -0.000   0.000
 -0.000   0.000  -0.000   0.000  -0.000  -0.000   0.000  -0.000  -0.000   0.000   0.000   0.000  -0.000   0.000
 -0.000   0.000  -0.000  -0.000  -0.000   0.000  -0.000  -0.000   0.000   0.000   0.000   0.000  -0.000  -0.000
  0.000   0.000   0.000  -0.000  -0.000  -0.000  -0.000  -0.000  -0.000   0.000   0.000   0.000  -0.000  -0.000
 -0.000   0.000  -0.000   0.000  -0.000  -0.000   0.000  -0.000  -0.000   0.000   0.000  -0.000  -0.000   0.000
  0.000  -0.000  -0.000  -0.000   0.000   0.000   0.000   0.000   0.000   0.000  -0.000   0.000   0.000  -0.000
  0.000  -0.000   0.000  -0.000   0.000   0.000   0.000   0.000   0.000  -0.000   0.000   0.000   0.000   0.000
 -0.000   0.000   0.000   0.000  -0.000   0.000   0.000   0.000  -0.000   0.000   0.000  -0.000   0.000  -0.000
 -0.000   0.000  -0.000   0.000  -0.000  -0.000  -0.000  -0.000  -0.000   0.000   0.000   0.000  -0.000   0.000
 -0.000   0.000   0.000  -0.000   0.000   0.000  -0.000  -0.000   0.000  -0.000   0.000  -0.000   0.000  -0.000


------------------------ aborting loop because EDIFF is reached ----------------------------------------


    CHARGE:  cpu time      0.0646: real time      0.0651
    FORLOC:  cpu time      0.0038: real time      0.0038
    FORNL :  cpu time      0.3993: real time      0.4031
    STRESS:  cpu time      1.1739: real time      1.1806
    FORCOR:  cpu time      0.0502: real time      0.0505
    FORHAR:  cpu time      0.0083: real time      0.0084
    MIXING:  cpu time      0.0007: real time      0.0007
    OFIELD:  cpu time      0.0000: real time      0.0000

 ---------------------------------------------------------------------------------------------

         DFTD3 V3.0 Rev 1        
 Edisp (eV)  -13.57496

 E6    (eV) :    -8.3651
 E8    (eV) :    -5.2099
 % E8        : 38.38
    FORVDW:  cpu time      0.2899: real time      0.2930

  FORCE on cell =-STRESS in cart. coord.  units (eV):
  Direction    XX          YY          ZZ          XY          YZ          ZX
  --------------------------------------------------------------------------------------
  Alpha Z   301.12428   301.12428   301.12428
  Ewald   -2907.69459 -3029.99562 -2883.90222    -4.85336   -51.09297   -23.56010
  Hartree   746.79447   692.72225   766.82771    -0.51503   -17.83692    -1.12898
  E(xc)    -947.61548  -947.96529  -947.69915    -0.03351    -0.11846    -0.10675
  Local   -1543.21994 -1377.95090 -1587.94343     4.46103    64.70334    20.13709
  n-local  1481.08031  1481.59324  1481.68288    -0.05870    -0.82951    -0.43303
  augment  -356.42490  -357.32873  -356.89066    -0.13194    -0.07816    -0.20846
  Kinetic  3238.30069  3252.07108  3242.98947     2.33407     3.34720     4.26416
  Fock        0.00000     0.00000     0.00000     0.00000     0.00000     0.00000
  vdW       -14.36325   -14.37655   -14.31458    -0.00438    -0.00756    -0.01195
  -------------------------------------------------------------------------------------
  Total      -2.01841    -0.10625     1.87431     1.19816    -1.91305    -1.04802
  in kB      -3.58726    -0.18883     3.33116     2.12947    -3.40001    -1.86261
  external pressure =       -0.15 kB  Pullay stress =        0.00 kB


 VOLUME and BASIS-vectors are now :
 -----------------------------------------------------------------------------
  energy-cutoff  :      520.00
  volume of cell :      901.48
      direct lattice vectors                 reciprocal lattice vectors
     9.660183097  0.000000000  0.000000000     0.103517707  0.000000000  0.000000000
     0.000000000  9.660183097  0.000000000     0.000000000  0.103517707  0.000000000
     0.000000000  0.000000000  9.660183097     0.000000000  0.000000000  0.103517707

  length of vectors
     9.660183097  9.660183097  9.660183097     0.103517707  0.103517707  0.103517707


 FORCES acting on ions
    electron-ion (+dipol)            ewald-force                    non-local-force                 convergence-correction
 -----------------------------------------------------------------------------------------------
   -.232E+01 0.945E+01 0.150E+02   0.131E+01 -.787E+01 -.135E+02   0.102E+01 -.158E+01 -.144E+01   0.114E-03 0.236E-04 0.738E-04
   -.574E+01 -.458E+01 0.138E+01   0.488E+01 0.370E+01 -.254E+01   0.855E+00 0.884E+00 0.117E+01   -.374E-04 -.649E-04 0.199E-04
   0.510E+00 0.597E+01 -.102E+02   0.181E+00 -.492E+01 0.873E+01   -.688E+00 -.104E+01 0.147E+01   0.289E-04 0.148E-04 -.384E-04
   0.190E+01 0.379E+00 -.662E+01   -.126E+01 -.977E+00 0.756E+01   -.632E+00 0.600E+00 -.942E+00   -.465E-05 -.101E-03 -.130E-03
   0.567E+01 0.848E+00 0.396E+00   -.641E+01 -.208E+01 -.114E+01   0.732E+00 0.124E+01 0.742E+00   0.129E-03 -.205E-04 0.663E-04
   -.247E+01 -.689E+01 0.690E+01   0.367E+01 0.611E+01 -.594E+01   -.120E+01 0.774E+00 -.950E+00   -.653E-04 0.106E-03 -.291E-04
   -.391E+00 -.775E+01 0.336E+01   0.156E+01 0.648E+01 -.264E+01   -.117E+01 0.127E+01 -.715E+00   -.257E-04 0.459E-04 -.670E-05
   0.663E+01 -.567E+01 -.573E+00   -.742E+01 0.471E+01 -.189E-01   0.795E+00 0.963E+00 0.589E+00   0.410E-04 -.205E-04 0.405E-04
   -.626E+01 0.535E+01 -.396E+01   0.542E+01 -.622E+01 0.291E+01   0.840E+00 0.869E+00 0.105E+01   -.706E-04 0.147E-03 0.266E-04
   -.120E+01 0.103E+02 -.190E+01   0.579E+00 -.969E+01 0.284E+01   0.626E+00 -.612E+00 -.947E+00   -.127E-04 0.142E-03 0.283E-05
   0.945E+01 0.134E+01 0.111E+02   -.813E+01 -.227E+01 -.102E+02   -.133E+01 0.920E+00 -.927E+00   0.314E-04 0.477E-04 0.414E-04
   0.702E+01 0.171E+01 -.119E+02   -.606E+01 -.859E+00 0.105E+02   -.962E+00 -.847E+00 0.135E+01   -.800E-04 0.379E-04 -.155E-04
   0.589E+01 0.939E+01 0.108E+00   -.490E+01 -.778E+01 -.109E+01   -.976E+00 -.161E+01 0.983E+00   0.386E-04 -.217E-05 -.201E-05
   0.866E+00 -.471E+01 0.395E+01   -.174E+01 0.551E+01 -.322E+01   0.872E+00 -.807E+00 -.727E+00   -.240E-04 0.312E-05 -.995E-04
   0.191E+01 -.508E+01 0.398E+01   -.292E+01 0.604E+01 -.328E+01   0.101E+01 -.963E+00 -.700E+00   0.172E-04 0.864E-05 0.154E-04
   -.105E+02 0.122E+01 -.322E+01   0.937E+01 -.228E+01 0.253E+01   0.117E+01 0.106E+01 0.685E+00   -.753E-05 -.815E-04 0.775E-04
   0.926E+01 0.135E+01 0.153E+02   -.778E+01 -.247E+01 -.139E+02   -.149E+01 0.112E+01 -.144E+01   -.125E-04 -.341E-04 0.283E-04
   -.462E+01 -.222E+01 0.157E+01   0.328E+01 0.316E+01 -.274E+00   0.134E+01 -.937E+00 -.129E+01   -.121E-03 -.253E-03 0.591E-04
   -.844E+01 -.398E+01 0.750E-01   0.718E+01 0.307E+01 -.131E+01   0.126E+01 0.907E+00 0.124E+01   -.204E-04 0.594E-04 0.824E-05
   0.212E+01 0.361E+01 -.652E+01   -.274E+01 -.298E+01 0.748E+01   0.625E+00 -.624E+00 -.963E+00   -.299E-04 0.300E-04 -.182E-04
   -.419E+01 -.843E+01 0.136E+01   0.351E+01 0.714E+01 -.247E+01   0.678E+00 0.130E+01 0.112E+01   -.509E-04 -.315E-04 0.116E-03
   -.598E+01 0.101E+02 0.904E+01   0.554E+01 -.850E+01 -.760E+01   0.438E+00 -.159E+01 -.144E+01   0.896E-04 0.118E-03 0.205E-03
   -.106E+01 0.270E+00 -.448E+01   0.182E+01 -.820E+00 0.549E+01   -.758E+00 0.552E+00 -.101E+01   -.148E-03 -.552E-04 -.426E-04
   -.812E+00 0.994E+01 -.122E+02   0.149E+01 -.832E+01 0.108E+02   -.677E+00 -.161E+01 0.140E+01   0.868E-04 0.215E-04 -.402E-04
   -.470E+00 -.917E+01 -.872E+00   0.407E+00 0.958E+01 0.111E+01   0.541E-01 -.401E+00 -.235E+00   0.772E-04 -.192E-04 -.424E-04
   0.239E+01 0.257E+00 0.264E+01   -.204E+01 -.177E+00 -.250E+01   -.347E+00 -.878E-01 -.147E+00   -.168E-03 0.321E-03 0.184E-03
   0.353E+01 -.431E+00 -.213E+01   -.350E+01 0.170E+00 0.212E+01   -.253E-01 0.253E+00 0.693E-02   -.193E-03 -.294E-04 -.117E-03
   -.355E+01 -.382E+01 -.389E+01   0.357E+01 0.409E+01 0.377E+01   -.206E-01 -.272E+00 0.120E+00   0.208E-03 -.514E-05 0.186E-04
   -.488E+02 0.434E+02 -.294E+02   0.524E+02 -.469E+02 0.316E+02   -.360E+01 0.350E+01 -.219E+01   -.156E-03 0.790E-04 -.839E-04
   -.265E+02 -.615E+02 0.386E+02   0.286E+02 0.653E+02 -.416E+02   -.210E+01 -.377E+01 0.300E+01   0.404E-03 0.119E-03 -.255E-03
   0.432E+02 0.282E+02 0.420E+02   -.466E+02 -.301E+02 -.452E+02   0.343E+01 0.196E+01 0.321E+01   -.166E-04 -.105E-03 0.299E-04
   0.425E+02 -.338E+02 -.466E+02   -.456E+02 0.362E+02 0.501E+02   0.310E+01 -.237E+01 -.355E+01   -.236E-03 0.194E-03 0.160E-03
   0.625E+02 -.272E+02 -.283E+02   -.669E+02 0.299E+02 0.306E+02   0.438E+01 -.268E+01 -.230E+01   0.524E-04 0.191E-03 0.569E-04
   0.309E+02 0.503E+02 0.412E+02   -.331E+02 -.537E+02 -.443E+02   0.227E+01 0.338E+01 0.303E+01   -.348E-04 0.124E-03 0.140E-03
   -.593E+02 -.291E+02 0.398E+02   0.635E+02 0.310E+02 -.426E+02   -.421E+01 -.192E+01 0.284E+01   -.173E-03 0.124E-03 -.256E-03
   -.137E+02 0.463E+02 -.659E+02   0.153E+02 -.491E+02 0.701E+02   -.160E+01 0.277E+01 -.424E+01   0.296E-03 -.310E-03 0.189E-03
   -.568E+02 -.266E+02 0.413E+02   0.607E+02 0.290E+02 -.443E+02   -.384E+01 -.237E+01 0.302E+01   -.109E-03 0.285E-03 -.149E-03
   -.401E+02 0.358E+02 -.437E+02   0.432E+02 -.381E+02 0.470E+02   -.310E+01 0.228E+01 -.329E+01   0.396E-04 0.832E-05 0.218E-03
   0.581E+02 -.190E+02 -.371E+02   -.622E+02 0.212E+02 0.402E+02   0.412E+01 -.214E+01 -.308E+01   0.152E-03 0.202E-03 -.701E-04
   0.248E+02 0.509E+02 0.451E+02   -.269E+02 -.545E+02 -.486E+02   0.212E+01 0.359E+01 0.343E+01   -.137E-03 0.986E-04 -.105E-03
   -.187E+02 -.555E+02 0.347E+02   0.214E+02 0.594E+02 -.379E+02   -.264E+01 -.387E+01 0.316E+01   0.365E-04 0.148E-03 -.301E-04
   -.302E+02 0.536E+02 -.300E+02   0.328E+02 -.577E+02 0.328E+02   -.261E+01 0.412E+01 -.278E+01   0.130E-03 -.123E-03 0.128E-03
   0.298E+02 -.543E+02 -.415E+02   -.324E+02 0.572E+02 0.448E+02   0.267E+01 -.290E+01 -.326E+01   -.363E-04 0.487E-04 -.780E-04
   0.583E+02 0.253E+02 0.265E+02   -.625E+02 -.276E+02 -.286E+02   0.423E+01 0.232E+01 0.218E+01   0.857E-05 -.434E-03 -.245E-03
   0.242E+02 -.435E+01 -.180E+01   -.247E+02 0.456E+01 0.185E+01   0.426E+00 -.206E+00 -.504E-01   0.161E-03 0.285E-04 -.390E-04
   -.601E+01 0.879E+01 0.967E+00   0.618E+01 -.901E+01 -.102E+01   -.158E+00 0.227E+00 0.547E-01   -.895E-04 -.223E-05 -.790E-04
   -.381E+01 -.208E+01 -.171E+02   0.381E+01 0.226E+01 0.175E+02   0.683E-02 -.188E+00 -.408E+00   0.156E-06 0.209E-03 0.206E-03
   0.166E+02 0.176E+01 0.345E+01   -.169E+02 -.183E+01 -.352E+01   0.344E+00 0.712E-01 0.667E-01   0.195E-03 0.255E-04 0.594E-04
   -.165E+01 -.418E+02 -.319E+01   0.167E+01 0.425E+02 0.330E+01   -.130E-01 -.679E+00 -.115E+00   0.489E-04 -.209E-03 0.916E-04
   -.445E+02 0.160E+02 0.175E+02   0.452E+02 -.163E+02 -.179E+02   -.750E+00 0.216E+00 0.385E+00   -.991E-04 0.223E-03 0.443E-04
   -.245E+02 0.274E+02 -.551E+00   0.249E+02 -.279E+02 0.493E+00   -.373E+00 0.446E+00 0.610E-01   -.143E-03 0.933E-04 -.109E-03
   -.193E+02 -.418E+02 0.911E+01   0.196E+02 0.425E+02 -.920E+01   -.290E+00 -.635E+00 0.910E-01   -.198E-04 -.107E-02 -.133E-03
 -----------------------------------------------------------------------------------------------
   -.385E+01 -.854E+00 0.267E+01   0.995E-13 -.568E-13 -.533E-14   0.384E+01 0.865E+00 -.268E+01   0.653E-04 0.357E-03 0.940E-04
 
 
 POSITION                                       TOTAL-FORCE (eV/Angst)
 -----------------------------------------------------------------------------------
      9.23325      1.56203      1.79347        -0.000153     -0.000454     -0.000036
      9.52030      7.69246      7.59945         0.000112      0.000043      0.000019
      0.30464      1.57686      7.95021        -0.000053     -0.000110      0.000016
      0.12344      7.67670      1.98542         0.000082     -0.000353      0.000005
      2.62425      2.85990      9.48833        -0.000233      0.000015      0.000034
      2.01291      8.01560      0.15547        -0.000001      0.000278      0.000010
      6.82462      3.16391      0.26147         0.000050      0.000255      0.000050
      7.63352      8.08778      9.40872        -0.000044      0.000334      0.000007
      2.96279      9.38788      3.16975         0.000157     -0.000048      0.000133
      3.05379      0.09909      6.77785        -0.000034     -0.000070     -0.000092
      6.38043      9.37615      6.62963        -0.000307     -0.000058      0.000123
      6.45394      0.49966      3.28159         0.000023      0.000020      0.000260
      1.85219      6.47740      4.43860         0.000341     -0.000399     -0.000139
      3.02822      2.10514      5.04080         0.000318      0.000117      0.000000
      7.78201      6.98674      5.04168         0.000234      0.000165     -0.000060
      8.01727      2.86555      4.67736         0.000681     -0.000019     -0.000111
      1.65689      4.42421      6.66178        -0.000230      0.000037     -0.000071
      2.69499      5.14205      1.66289        -0.000217      0.000108     -0.000480
      7.81865      4.76944      2.87419        -0.000039      0.000057      0.000117
      7.77062      5.06942      6.82808        -0.000121     -0.000119     -0.000224
      4.58568      3.01470      7.67622        -0.000004      0.000298     -0.000023
      4.62781      6.97935      1.96228         0.000132     -0.000635     -0.000724
      4.95457      2.91558      2.16951        -0.000079      0.000042      0.000127
      5.18546      6.42492      7.98671         0.000069     -0.000076      0.000278
      4.80360      4.95663      4.86158         0.000246     -0.000078     -0.000246
      4.86259      0.11330      0.08418        -0.000330      0.000071      0.000895
      9.61653      4.84657      9.64888        -0.000423     -0.000231      0.000865
      0.01145      0.05151      4.84660         0.000283     -0.000339     -0.000226
      1.25331      8.41568      5.84907        -0.000129      0.000077     -0.000307
      1.13211      1.32849      3.70911         0.000199      0.000449      0.000031
      8.40927      8.69765      3.57711         0.000470      0.000306      0.000075
      8.45290      1.05778      6.15445        -0.000029     -0.000267      0.000029
      8.29872      6.06918      0.98567        -0.000201     -0.000194     -0.000471
      8.59517      3.57127      8.40646         0.000027     -0.000049     -0.000419
      1.29030      5.96087      8.55504         0.000061     -0.000213      0.000271
      0.94213      3.64092      1.32711        -0.000372      0.000157     -0.000174
      6.04404      1.28798      8.55567        -0.000169      0.000060      0.000299
      6.05372      8.71119      1.36887        -0.000180      0.000049      0.000039
      3.53502      1.17667      1.23142        -0.000157      0.000043     -0.000051
      3.89744      8.42520      8.51821         0.000107      0.000173      0.000026
      5.98305      6.16295      3.70031        -0.000119      0.000150      0.000207
      6.00811      3.67515      5.92689        -0.000184     -0.000190     -0.000430
      3.60206      5.99108      6.15743         0.000209     -0.000212      0.000313
      3.46467      3.94184      3.65918        -0.000177      0.000518      0.000125
      7.25905      7.27608      7.26717         0.000034     -0.000068     -0.000011
      7.21230      2.56059      2.48361        -0.000039      0.000009      0.000013
      2.37060      7.30777      2.32869         0.000131      0.000001     -0.000133
      2.41661      2.30344      7.27087        -0.000026      0.000058     -0.000019
      0.02843      9.39843      9.62132         0.000012      0.000019     -0.000058
      9.37268      5.01398      4.91790         0.000065     -0.000019      0.000014
      4.63752      0.24356      4.88844        -0.000007      0.000010      0.000040
      4.65417      4.56136      0.10573         0.000015      0.000280      0.000086
 -----------------------------------------------------------------------------------
    total drift:                               -0.005495      0.011328     -0.006986


--------------------------------------------------------------------------------------------------------



  FREE ENERGIE OF THE ION-ELECTRON SYSTEM (eV)
  ---------------------------------------------------
  free  energy   TOTEN  =      -272.25532565 eV

  energy  without entropy=     -272.25532565  energy(sigma->0) =     -272.25532565
 
 d Force = 0.1155859E-05[ 0.640E-06, 0.167E-05]  d Energy = 0.1923550E-05-0.768E-06
 d Force =-0.2481535E-02[-0.248E-02,-0.248E-02]  d Ewald  =-0.2481535E-02-0.909E-11


--------------------------------------------------------------------------------------------------------


    POTLOK:  cpu time      0.4528: real time      0.4543


--------------------------------------------------------------------------------------------------------


 stress matrix after NEB project (eV)
     -2.01841      1.19816     -1.04802
      1.19816     -0.10625     -1.91304
     -1.04802     -1.91305      1.87431
  FORCES: max atom, RMS     0.000990    0.000405
  FORCE total and by dimension    0.002922    0.000895
  Stress total and by dimension    4.470528    2.018406
 Conjugate gradient step on ions:
 trial-energy change:   -0.000002  1 .order   -0.000001   -0.000002   -0.000001
  (g-gl).g = 0.832E-06      g.g   = 0.104E-05  gl.gl    = 0.198E-05
 g(Force)  = 0.104E-05   g(Stress)= 0.000E+00 ortho     = 0.176E-06
 gamma     =   0.41954
 trial     =   1.50733
 opt step  =   2.44122  (harmonic =   2.44122) maximal distance =0.00010784
 next E    =  -272.255325   (d E  =  -0.00000)


--------------------------------------------------------------------------------------------------------


  
 reached required accuracy - stopping structural energy minimisation
     LOOP+:  cpu time      7.4921: real time      7.5691
    4ORBIT:  cpu time      0.0000: real time      0.0000

 total amount of memory used by VASP MPI-rank0    48237. kBytes
=======================================================================

   base      :      30000. kBytes
   nonlr-proj:       6577. kBytes
   fftplans  :       1747. kBytes
   grid      :       5278. kBytes
   one-center:         62. kBytes
   wavefun   :       4573. kBytes
 
  
  
 General timing and accounting informations for this job:
 ========================================================
  
                  Total CPU time used (sec):      138.017
                            User time (sec):      136.710
                          System time (sec):        1.307
                         Elapsed time (sec):      141.899
  
                   Maximum memory used (kb):      387988.
                   Average memory used (kb):          N/A
  
                          Minor page faults:        69363
                          Major page faults:          140
                 Voluntary context switches:         4660
