<?xml version="1.0" encoding="ISO-8859-1"?>
<modeling>
 <generator>
  <i name="program" type="string">vasp </i>
  <i name="version" type="string">6.4.1  </i>
  <i name="subversion" type="string">05Apr23 (build Jun 07 2023 15:38:11) complex                          parallel </i>
  <i name="platform" type="string">LinuxIFC </i>
  <i name="date" type="string">2023 10 16 </i>
  <i name="time" type="string">22:20:26 </i>
 </generator>
 <incar>
  <i type="string" name="PREC">Accu</i>
  <i type="string" name="ALGO">F</i>
  <i type="logical" name="LDIAG"> T  </i>
  <i type="int" name="ISPIN">     2</i>
  <i type="int" name="NELM">   100</i>
  <i type="int" name="NELMDL">   -10</i>
  <i type="int" name="IBRION">     2</i>
  <i name="EDIFF">      0.00000100</i>
  <i name="EDIFFG">     -0.00100000</i>
  <i type="int" name="NSW">  1000</i>
  <i type="int" name="ISIF">     2</i>
  <i name="ENCUT">    520.00000000</i>
  <i name="POTIM">      0.20000000</i>
  <i type="string" name="LREAL">Auto</i>
  <i type="logical" name="LPLANE"> T  </i>
  <i type="int" name="ISMEAR">     0</i>
  <i name="SIGMA">      0.03000000</i>
  <i type="int" name="LMAXMIX">     4</i>
  <i type="logical" name="LWAVE"> F  </i>
  <i type="logical" name="LCHARG"> F  </i>
  <i type="logical" name="LASPH"> T  </i>
  <i type="string" name="GGA">PE</i>
  <i type="int" name="IVDW">    12</i>
 </incar>
 <primitive_cell>
  <structure name="primitive_cell" >
   <crystal>
    <varray name="basis" >
     <v>       9.66018310       0.00000000       0.00000000 </v>
     <v>       0.00000000       9.66018310       0.00000000 </v>
     <v>       0.00000000       0.00000000       9.66018310 </v>
    </varray>
    <i name="volume">    901.47995435 </i>
    <varray name="rec_basis" >
     <v>       0.10351771       0.00000000       0.00000000 </v>
     <v>       0.00000000       0.10351771       0.00000000 </v>
     <v>       0.00000000       0.00000000       0.10351771 </v>
    </varray>
   </crystal>
   <varray name="positions" >
    <v>       0.95580413       0.16171576       0.18565726 </v>
    <v>       0.98551612       0.79630258       0.78667267 </v>
    <v>       0.03154107       0.16323737       0.82298345 </v>
    <v>       0.01277307       0.79468511       0.20552523 </v>
    <v>       0.27165999       0.29604901       0.98220665 </v>
    <v>       0.20837605       0.82974408       0.01609821 </v>
    <v>       0.70647020       0.32750909       0.02706929 </v>
    <v>       0.79020097       0.83721567       0.97396808 </v>
    <v>       0.30669454       0.97180836       0.32812087 </v>
    <v>       0.31612229       0.01026018       0.70163420 </v>
    <v>       0.66050052       0.97059460       0.68628073 </v>
    <v>       0.66809942       0.05172755       0.33968968 </v>
    <v>       0.19172364       0.67054099       0.45947356 </v>
    <v>       0.31346299       0.21791842       0.52181583 </v>
    <v>       0.80556713       0.72324888       0.52190756 </v>
    <v>       0.82990404       0.29663092       0.48419113 </v>
    <v>       0.17152958       0.45797806       0.68961643 </v>
    <v>       0.27897639       0.53229252       0.17215506 </v>
    <v>       0.80937020       0.49371560       0.29752034 </v>
    <v>       0.80439818       0.52477930       0.70683641 </v>
    <v>       0.47469852       0.31205970       0.79462006 </v>
    <v>       0.47905628       0.72251470       0.20315741 </v>
    <v>       0.51288922       0.30181277       0.22458199 </v>
    <v>       0.53678864       0.66509944       0.82675482 </v>
    <v>       0.49725414       0.51309634       0.50325916 </v>
    <v>       0.50337288       0.01172539       0.00869516 </v>
    <v>       0.99549310       0.50171466       0.99882633 </v>
    <v>       0.00117748       0.00533971       0.50171442 </v>
    <v>       0.12971270       0.87120069       0.60547527 </v>
    <v>       0.11717462       0.13748948       0.38397147 </v>
    <v>       0.87052080       0.90036818       0.37032272 </v>
    <v>       0.87504656       0.10949693       0.63707264 </v>
    <v>       0.85909813       0.62825616       0.10202967 </v>
    <v>       0.88977086       0.36972170       0.87025180 </v>
    <v>       0.13353370       0.61704029       0.88560460 </v>
    <v>       0.09753842       0.37691772       0.13735672 </v>
    <v>       0.62564302       0.13330779       0.88567237 </v>
    <v>       0.62665660       0.90177123       0.14167882 </v>
    <v>       0.36597084       0.12179148       0.12744914 </v>
    <v>       0.40346162       0.87217437       0.88180405 </v>
    <v>       0.61933465       0.63794683       0.38306045 </v>
    <v>       0.62192690       0.38047646       0.61353953 </v>
    <v>       0.37288757       0.62016699       0.63736757 </v>
    <v>       0.35868654       0.40804902       0.37880878 </v>
    <v>       0.75144377       0.75320623       0.75228034 </v>
    <v>       0.74660062       0.26506716       0.25709764 </v>
    <v>       0.24539299       0.75647657       0.24105804 </v>
    <v>       0.25016791       0.23844859       0.75266577 </v>
    <v>       0.00294478       0.97289312       0.99597793 </v>
    <v>       0.97022852       0.51904026       0.50909455 </v>
    <v>       0.48006035       0.02521648       0.50603824 </v>
    <v>       0.48178721       0.47215950       0.01093884 </v>
   </varray>
  </structure>
  <varray name="primitive_index" >
   <v type="int" >        1 </v>
   <v type="int" >        2 </v>
   <v type="int" >        3 </v>
   <v type="int" >        4 </v>
   <v type="int" >        5 </v>
   <v type="int" >        6 </v>
   <v type="int" >        7 </v>
   <v type="int" >        8 </v>
   <v type="int" >        9 </v>
   <v type="int" >       10 </v>
   <v type="int" >       11 </v>
   <v type="int" >       12 </v>
   <v type="int" >       13 </v>
   <v type="int" >       14 </v>
   <v type="int" >       15 </v>
   <v type="int" >       16 </v>
   <v type="int" >       17 </v>
   <v type="int" >       18 </v>
   <v type="int" >       19 </v>
   <v type="int" >       20 </v>
   <v type="int" >       21 </v>
   <v type="int" >       22 </v>
   <v type="int" >       23 </v>
   <v type="int" >       24 </v>
   <v type="int" >       25 </v>
   <v type="int" >       26 </v>
   <v type="int" >       27 </v>
   <v type="int" >       28 </v>
   <v type="int" >       29 </v>
   <v type="int" >       30 </v>
   <v type="int" >       31 </v>
   <v type="int" >       32 </v>
   <v type="int" >       33 </v>
   <v type="int" >       34 </v>
   <v type="int" >       35 </v>
   <v type="int" >       36 </v>
   <v type="int" >       37 </v>
   <v type="int" >       38 </v>
   <v type="int" >       39 </v>
   <v type="int" >       40 </v>
   <v type="int" >       41 </v>
   <v type="int" >       42 </v>
   <v type="int" >       43 </v>
   <v type="int" >       44 </v>
   <v type="int" >       45 </v>
   <v type="int" >       46 </v>
   <v type="int" >       47 </v>
   <v type="int" >       48 </v>
   <v type="int" >       49 </v>
   <v type="int" >       50 </v>
   <v type="int" >       51 </v>
   <v type="int" >       52 </v>
  </varray>
 </primitive_cell>
 <kpoints>
  <generation param="Monkhorst-Pack">
   <v type="int" name="divisions">       2        2        2 </v>
   <v name="usershift">      0.00000000       0.00000000       0.00000000 </v>
   <v name="genvec1">      0.50000000       0.00000000       0.00000000 </v>
   <v name="genvec2">      0.00000000       0.50000000       0.00000000 </v>
   <v name="genvec3">      0.00000000       0.00000000       0.50000000 </v>
   <v name="shift">      0.50000000       0.50000000       0.50000000 </v>
  </generation>
  <varray name="kpointlist" >
   <v>       0.25000000       0.25000000       0.25000000 </v>
   <v>      -0.25000000       0.25000000       0.25000000 </v>
   <v>      -0.25000000      -0.25000000       0.25000000 </v>
   <v>       0.25000000      -0.25000000       0.25000000 </v>
  </varray>
  <varray name="weights" >
   <v>       0.25000000 </v>
   <v>       0.25000000 </v>
   <v>       0.25000000 </v>
   <v>       0.25000000 </v>
  </varray>
 </kpoints>
 <parameters>
  <separator name="general" >
   <i type="string" name="SYSTEM">unknown system</i>
   <i type="logical" name="LCOMPAT"> F  </i>
  </separator>
  <separator name="electronic" >
   <i type="string" name="PREC">accu</i>
   <i name="ENMAX">    520.00000000</i>
   <i name="ENAUG">   1041.69900000</i>
   <i name="EDIFF">      0.00000100</i>
   <i type="int" name="IALGO">    68</i>
   <i type="int" name="IWAVPR">    11</i>
   <i type="int" name="NBANDS">   176</i>
   <i type="int" name="NBANDSLOW">    -1</i>
   <i type="int" name="NBANDSHIGH">    -1</i>
   <i name="NELECT">    240.00000000</i>
   <i type="int" name="TURBO">     0</i>
   <i type="int" name="IRESTART">     0</i>
   <i type="int" name="NREBOOT">     0</i>
   <i type="int" name="NMIN">     0</i>
   <i name="EREF">      0.00000000</i>
   <separator name="electronic smearing" >
    <i type="int" name="ISMEAR">     0</i>
    <i name="SIGMA">      0.03000000</i>
    <i name="KSPACING">      0.50000000</i>
    <i type="logical" name="KGAMMA"> T  </i>
    <i type="logical" name="KBLOWUP"> T  </i>
   </separator>
   <separator name="electronic projectors" >
    <i type="logical" name="LREAL"> T  </i>
    <v name="ROPT">     -0.00025000     -0.00025000     -0.00025000     -0.00025000</v>
    <i type="int" name="LMAXPAW">  -100</i>
    <i type="int" name="LMAXMIX">     4</i>
    <i type="logical" name="NLSPLINE"> F  </i>
   </separator>
   <separator name="electronic startup" >
    <i type="int" name="ISTART">     0</i>
    <i type="int" name="ICHARG">     2</i>
    <i type="int" name="INIWAV">     1</i>
   </separator>
   <separator name="electronic spin" >
    <i type="int" name="ISPIN">     2</i>
    <i type="logical" name="LNONCOLLINEAR"> F  </i>
    <v name="MAGMOM">      1.00000000      1.00000000      1.00000000      1.00000000      1.00000000      1.00000000      1.00000000      1.00000000      1.00000000      1.00000000      1.00000000      1.00000000      1.00000000      1.00000000      1.00000000      1.00000000      1.00000000      1.00000000      1.00000000      1.00000000
      1.00000000      1.00000000      1.00000000      1.00000000      1.00000000      1.00000000      1.00000000      1.00000000      1.00000000      1.00000000      1.00000000      1.00000000      1.00000000      1.00000000      1.00000000      1.00000000      1.00000000      1.00000000      1.00000000      1.00000000
      1.00000000      1.00000000      1.00000000      1.00000000      1.00000000      1.00000000      1.00000000      1.00000000      1.00000000      1.00000000      1.00000000      1.00000000</v>
    <i name="NUPDOWN">     -1.00000000</i>
    <i type="logical" name="LSORBIT"> F  </i>
    <v name="SAXIS">      0.00000000      0.00000000      1.00000000</v>
    <i type="logical" name="LSPIRAL"> F  </i>
    <v name="QSPIRAL">      0.00000000      0.00000000      0.00000000</v>
    <i type="logical" name="LZEROZ"> F  </i>
   </separator>
   <separator name="electronic exchange-correlation" >
    <i type="logical" name="LASPH"> T  </i>
    <i type="logical" name="LMETAGGA"> F  </i>
   </separator>
   <separator name="electronic convergence" >
    <i type="int" name="NELM">   100</i>
    <i type="int" name="NELMDL">   -10</i>
    <i type="int" name="NELMIN">     2</i>
    <i name="ENINI">    520.00000000</i>
    <separator name="electronic convergence detail" >
     <i type="logical" name="LDIAG"> T  </i>
     <i type="logical" name="LSUBROT"> F  </i>
     <i name="WEIMIN">      0.00100000</i>
     <i name="EBREAK">      0.00000000</i>
     <i name="DEPER">      0.30000000</i>
     <i type="int" name="NRMM">     4</i>
     <i name="TIME">      0.40000000</i>
    </separator>
   </separator>
   <separator name="electronic mixer" >
    <i name="AMIX">      0.40000000</i>
    <i name="BMIX">      1.00000000</i>
    <i name="AMIN">      0.10000000</i>
    <i name="AMIX_MAG">      1.60000000</i>
    <i name="BMIX_MAG">      1.00000000</i>
    <separator name="electronic mixer details" >
     <i type="int" name="IMIX">     4</i>
     <i type="logical" name="MIXFIRST"> F  </i>
     <i type="int" name="MAXMIX">   -45</i>
     <i name="WC">    100.00000000</i>
     <i type="int" name="INIMIX">     1</i>
     <i type="int" name="MIXPRE">     1</i>
     <i type="int" name="MREMOVE">     5</i>
    </separator>
   </separator>
   <separator name="electronic dipolcorrection" >
    <i type="logical" name="LDIPOL"> F  </i>
    <i type="logical" name="LMONO"> F  </i>
    <i type="int" name="IDIPOL">     0</i>
    <i name="EPSILON">      1.00000000</i>
    <v name="DIPOL">   -100.00000000   -100.00000000   -100.00000000</v>
    <i name="EFIELD">      0.00000000</i>
   </separator>
  </separator>
  <separator name="grids" >
   <i type="int" name="NGX">    72</i>
   <i type="int" name="NGY">    72</i>
   <i type="int" name="NGZ">    72</i>
   <i type="int" name="NGXF">   144</i>
   <i type="int" name="NGYF">   144</i>
   <i type="int" name="NGZF">   144</i>
   <i type="logical" name="ADDGRID"> F  </i>
  </separator>
  <separator name="ionic" >
   <i type="int" name="NSW">  1000</i>
   <i type="int" name="IBRION">     2</i>
   <i type="int" name="MDALGO">     0</i>
   <i type="int" name="ISIF">     2</i>
   <i name="PSTRESS">      0.00000000</i>
   <i name="EDIFFG">     -0.00100000</i>
   <i type="int" name="NFREE">     1</i>
   <i name="POTIM">      0.20000000</i>
   <i name="SMASS">     -3.00000000</i>
   <i name="SCALEE">      1.00000000</i>
  </separator>
  <separator name="ionic md" >
   <i name="TEBEG">      0.00010000</i>
   <i name="TEEND">      0.00010000</i>
   <i type="int" name="NBLOCK">     1</i>
   <i type="int" name="KBLOCK">  1000</i>
   <i type="int" name="NPACO">   256</i>
   <i name="APACO">     10.00000000</i>
  </separator>
  <separator name="symmetry" >
   <i type="int" name="ISYM">     2</i>
   <i name="SYMPREC">      0.00001000</i>
  </separator>
  <separator name="dos" >
   <i type="int" name="LORBIT">     0</i>
   <v name="RWIGS">     -1.00000000     -1.00000000     -1.00000000     -1.00000000</v>
   <i type="int" name="NEDOS">   301</i>
   <i name="EMIN">     10.00000000</i>
   <i name="EMAX">    -10.00000000</i>
   <i name="EFERMI">      0.00000000</i>
  </separator>
  <separator name="writing" >
   <i type="int" name="NWRITE">     2</i>
   <i type="logical" name="LWAVE"> F  </i>
   <i type="logical" name="LDOWNSAMPLE"> F  </i>
   <i type="logical" name="LCHARG"> F  </i>
   <i type="logical" name="LPARD"> F  </i>
   <i type="logical" name="LVTOT"> F  </i>
   <i type="logical" name="LVHAR"> F  </i>
   <i type="logical" name="LELF"> F  </i>
   <i type="logical" name="LOPTICS"> F  </i>
   <v name="STM">      0.00000000      0.00000000      0.00000000      0.00000000      0.00000000      0.00000000      0.00000000</v>
  </separator>
  <separator name="performance" >
   <i type="int" name="NPAR">     4</i>
   <i type="int" name="NSIM">     4</i>
   <i type="int" name="NBLK">    -1</i>
   <i type="logical" name="LPLANE"> T  </i>
   <i type="logical" name="LSCALAPACK"> T  </i>
   <i type="logical" name="LSCAAWARE"> F  </i>
   <i type="logical" name="LSCALU"> F  </i>
   <i type="logical" name="LASYNC"> F  </i>
   <i type="logical" name="LORBITALREAL"> F  </i>
  </separator>
  <separator name="miscellaneous" >
   <i type="int" name="IDIOT">     3</i>
   <i type="int" name="PHON_NSTRUCT">    -1</i>
   <i type="logical" name="LMUSIC"> F  </i>
   <v name="POMASS">      7.01000000     30.97400000     32.06600000     35.45300000</v>
   <v name="DARWINR">      0.00000000      0.00000000      0.00000000      0.00000000</v>
   <v name="DARWINV">      1.00000000      1.00000000      1.00000000      1.00000000</v>
   <i type="logical" name="LCORR"> T  </i>
  </separator>
  <i type="logical" name="GGA_COMPAT"> T  </i>
  <i type="logical" name="LBERRY"> F  </i>
  <i type="int" name="ICORELEVEL">     0</i>
  <i type="logical" name="LDAU"> F  </i>
  <i type="int" name="I_CONSTRAINED_M">     0</i>
  <separator name="electronic exchange-correlation" >
   <i type="string" name="GGA">PE</i>
   <i type="int" name="VOSKOWN">     0</i>
   <i type="logical" name="LHFCALC"> F  </i>
   <i type="string" name="PRECFOCK"></i>
   <i type="logical" name="LSYMGRAD"> F  </i>
   <i type="logical" name="LHFONE"> F  </i>
   <i type="logical" name="LRHFCALC"> F  </i>
   <i type="logical" name="LTHOMAS"> F  </i>
   <i type="logical" name="LMODELHF"> F  </i>
   <i type="logical" name="LFOCKACE"> F  </i>
   <i name="ENCUT4O">     -1.00000000</i>
   <i type="int" name="EXXOEP">     0</i>
   <i type="int" name="FOURORBIT">     0</i>
   <i name="AEXX">      0.00000000</i>
   <i name="HFALPHA">      0.00000000</i>
   <i name="MCALPHA">      0.00000000</i>
   <i name="ALDAX">      1.00000000</i>
   <i name="AGGAX">      1.00000000</i>
   <i name="ALDAC">      1.00000000</i>
   <i name="AGGAC">      1.00000000</i>
   <i type="int" name="NKREDX">     1</i>
   <i type="int" name="NKREDY">     1</i>
   <i type="int" name="NKREDZ">     1</i>
   <i type="logical" name="SHIFTRED"> F  </i>
   <i type="logical" name="ODDONLY"> F  </i>
   <i type="logical" name="EVENONLY"> F  </i>
   <i type="int" name="LMAXFOCK">     0</i>
   <i type="int" name="NMAXFOCKAE">     0</i>
   <i type="logical" name="LFOCKAEDFT"> F  </i>
   <i name="HFSCREEN">      0.00000000</i>
   <i name="HFSCREENC">      0.00000000</i>
   <i type="int" name="NBANDSGWLOW">     0</i>
  </separator>
  <separator name="vdW DFT" >
   <i type="logical" name="LUSE_VDW"> F  </i>
   <i type="int" name="IVDW_NL">     1</i>
   <i type="logical" name="LSPIN_VDW"> F  </i>
   <i name="Zab_VDW">     -0.84910000</i>
   <i name="PARAM1">      0.12340000</i>
   <i name="PARAM2">      1.00000000</i>
   <i name="PARAM3">      0.00000000</i>
  </separator>
  <separator name="model GW" >
   <i type="int" name="MODEL_GW">     0</i>
   <i name="MODEL_EPS0">     10.40169178</i>
   <i name="MODEL_ALPHA">      1.00000000</i>
  </separator>
  <separator name="linear response parameters" >
   <i type="logical" name="LEPSILON"> F  </i>
   <i type="logical" name="LRPA"> F  </i>
   <i type="logical" name="LNABLA"> F  </i>
   <i type="logical" name="LVEL"> F  </i>
   <i name="CSHIFT">      0.10000000</i>
   <i name="OMEGAMAX">     -1.00000000</i>
   <i name="DEG_THRESHOLD">      0.00200000</i>
   <i name="RTIME">     -0.10000000</i>
   <i name="WPLASMAI">      0.00000000</i>
   <v name="DFIELD">      0.00000000      0.00000000      0.00000000</v>
   <v name="WPLASMA">      0.00000000      0.00000000      0.00000000      0.00000000      0.00000000      0.00000000      0.00000000      0.00000000      0.00000000</v>
  </separator>
  <separator name="orbital magnetization" >
   <i type="logical" name="NUCIND"> F  </i>
   <v name="MAGPOS">      0.00000000      0.00000000      0.00000000</v>
   <i type="logical" name="LNICSALL"> T  </i>
   <i type="logical" name="ORBITALMAG"> F  </i>
   <i type="logical" name="LMAGBLOCH"> F  </i>
   <i type="logical" name="LCHIMAG"> F  </i>
   <i type="logical" name="LGAUGE"> T  </i>
   <i type="int" name="MAGATOM">     0</i>
   <v name="MAGDIPOL">      0.00000000      0.00000000      0.00000000</v>
   <v name="AVECCONST">      0.00000000      0.00000000      0.00000000</v>
  </separator>
  <separator name="response functions" >
   <i type="logical" name="LALL_IN_ONE"> F  </i>
   <i type="int" name="IALL_IN_ONE">    -1</i>
   <i type="int" name="NBANDS_WAVE">    -1</i>
   <i type="logical" name="LFINITE_TEMPERATURE"> F  </i>
   <i type="logical" name="LADDER"> F  </i>
   <i type="logical" name="LRPAFORCE"> F  </i>
   <i type="logical" name="LFXC"> F  </i>
   <i type="logical" name="LHARTREE"> T  </i>
   <i type="int" name="IBSE">     0</i>
   <v type="int" name="KPOINT">    -1     0     0     0</v>
   <i type="logical" name="LTCTC"> F  </i>
   <i type="logical" name="LTCTE"> F  </i>
   <i type="logical" name="LTETE"> F  </i>
   <i type="logical" name="LTRIPLET"> F  </i>
   <i type="logical" name="LFXCEPS"> F  </i>
   <i type="logical" name="LFXHEG"> F  </i>
   <i type="int" name="NATURALO">     2</i>
   <i type="logical" name="LHOLEGF"> F  </i>
   <i type="logical" name="L2ORDER"> F  </i>
   <i type="logical" name="LDMP1"> F  </i>
   <i type="logical" name="LMP2LT"> F  </i>
   <i type="logical" name="LSMP2LT"> F  </i>
   <i type="logical" name="LGWLF"> F  </i>
   <i name="ENCUTGW">     -1.60000002</i>
   <i name="ENCUTGWSOFT">     -1.60000002</i>
   <i name="ENCUTLF">     -1.00000000</i>
   <i type="logical" name="LESF_SPLINES"> F  </i>
   <i type="int" name="LMAXMP2">    -1</i>
   <i name="SCISSOR">      0.00000000</i>
   <i type="int" name="NOMEGA">     0</i>
   <i type="int" name="NOMEGAR">     0</i>
   <i type="int" name="NBANDSGW">    -1</i>
   <i type="int" name="NBANDSO">    -1</i>
   <i type="int" name="NBANDSV">    -1</i>
   <i type="int" name="NELMGW">     1</i>
   <i type="int" name="NELMHF">     1</i>
   <i type="int" name="DIM">     3</i>
   <i type="int" name="IESPILON">     4</i>
   <i type="int" name="ANTIRES">     0</i>
   <i name="OMEGAMAX">    -30.00000000</i>
   <i name="OMEGAMIN">    -30.00000000</i>
   <i name="OMEGATL">   -200.00000000</i>
   <i type="int" name="OMEGAGRID">     0</i>
   <i name="CSHIFT">     -0.10000000</i>
   <i type="logical" name="LSELFENERGY"> F  </i>
   <i type="logical" name="LSPECTRAL"> F  </i>
   <i type="logical" name="LSPECTRALGW"> F  </i>
   <i type="logical" name="LSINGLES"> F  </i>
   <i type="logical" name="LFERMIGW"> F  </i>
   <i type="logical" name="ODDONLYGW"> F  </i>
   <i type="logical" name="EVENONLYGW"> F  </i>
   <i type="int" name="NKREDLFX">     1</i>
   <i type="int" name="NKREDLFY">     1</i>
   <i type="int" name="NKREDLFZ">     1</i>
   <i type="int" name="MAXMEM">  2800</i>
   <i type="int" name="TELESCOPE">     0</i>
   <i type="int" name="NTAUPAR">    -1</i>
   <i type="int" name="NOMEGAPAR">    -1</i>
   <i name="DAMP_NEWTON">      0.80000001</i>
   <i name="LAMBDA">      1.00000000</i>
  </separator>
  <separator name="External order field" >
   <i name="OFIELD_KAPPA">      0.00000000</i>
   <v name="OFIELD_K">      0.00000000      0.00000000      0.00000000</v>
   <i name="OFIELD_Q6_NEAR">      0.00000000</i>
   <i name="OFIELD_Q6_FAR">      0.00000000</i>
   <i name="OFIELD_A">      0.00000000</i>
  </separator>
  <separator name="optional k-points parameters" >
   <i type="int" name="KPOINTS_OPT_MODE">     1</i>
   <i type="logical" name="LKPOINTS_OPT"> F  </i>
  </separator>
 </parameters>
 <atominfo>
  <atoms>      52 </atoms>
  <types>       4 </types>
  <array name="atoms" >
   <dimension dim="1">ion</dimension>
   <field type="string">element</field>
   <field type="int">atomtype</field>
   <set>
    <rc><c>Li</c><c>   1</c></rc>
    <rc><c>Li</c><c>   1</c></rc>
    <rc><c>Li</c><c>   1</c></rc>
    <rc><c>Li</c><c>   1</c></rc>
    <rc><c>Li</c><c>   1</c></rc>
    <rc><c>Li</c><c>   1</c></rc>
    <rc><c>Li</c><c>   1</c></rc>
    <rc><c>Li</c><c>   1</c></rc>
    <rc><c>Li</c><c>   1</c></rc>
    <rc><c>Li</c><c>   1</c></rc>
    <rc><c>Li</c><c>   1</c></rc>
    <rc><c>Li</c><c>   1</c></rc>
    <rc><c>Li</c><c>   1</c></rc>
    <rc><c>Li</c><c>   1</c></rc>
    <rc><c>Li</c><c>   1</c></rc>
    <rc><c>Li</c><c>   1</c></rc>
    <rc><c>Li</c><c>   1</c></rc>
    <rc><c>Li</c><c>   1</c></rc>
    <rc><c>Li</c><c>   1</c></rc>
    <rc><c>Li</c><c>   1</c></rc>
    <rc><c>Li</c><c>   1</c></rc>
    <rc><c>Li</c><c>   1</c></rc>
    <rc><c>Li</c><c>   1</c></rc>
    <rc><c>Li</c><c>   1</c></rc>
    <rc><c>P </c><c>   2</c></rc>
    <rc><c>P </c><c>   2</c></rc>
    <rc><c>P </c><c>   2</c></rc>
    <rc><c>P </c><c>   2</c></rc>
    <rc><c>S </c><c>   3</c></rc>
    <rc><c>S </c><c>   3</c></rc>
    <rc><c>S </c><c>   3</c></rc>
    <rc><c>S </c><c>   3</c></rc>
    <rc><c>S </c><c>   3</c></rc>
    <rc><c>S </c><c>   3</c></rc>
    <rc><c>S </c><c>   3</c></rc>
    <rc><c>S </c><c>   3</c></rc>
    <rc><c>S </c><c>   3</c></rc>
    <rc><c>S </c><c>   3</c></rc>
    <rc><c>S </c><c>   3</c></rc>
    <rc><c>S </c><c>   3</c></rc>
    <rc><c>S </c><c>   3</c></rc>
    <rc><c>S </c><c>   3</c></rc>
    <rc><c>S </c><c>   3</c></rc>
    <rc><c>S </c><c>   3</c></rc>
    <rc><c>S </c><c>   3</c></rc>
    <rc><c>S </c><c>   3</c></rc>
    <rc><c>S </c><c>   3</c></rc>
    <rc><c>S </c><c>   3</c></rc>
    <rc><c>Cl</c><c>   4</c></rc>
    <rc><c>Cl</c><c>   4</c></rc>
    <rc><c>Cl</c><c>   4</c></rc>
    <rc><c>Cl</c><c>   4</c></rc>
   </set>
  </array>
  <array name="atomtypes" >
   <dimension dim="1">type</dimension>
   <field type="int">atomspertype</field>
   <field type="string">element</field>
   <field>mass</field>
   <field>valence</field>
   <field type="string">pseudopotential</field>
   <set>
    <rc><c>  24</c><c>Li</c><c>      7.01000000</c><c>      3.00000000</c><c>  PAW_PBE Li_sv_GW 25Mar2010            </c></rc>
    <rc><c>   4</c><c>P </c><c>     30.97400000</c><c>      5.00000000</c><c>  PAW_PBE P_GW 19Mar2012                </c></rc>
    <rc><c>  20</c><c>S </c><c>     32.06600000</c><c>      6.00000000</c><c>  PAW_PBE S_GW 19Mar2012                </c></rc>
    <rc><c>   4</c><c>Cl</c><c>     35.45300000</c><c>      7.00000000</c><c>  PAW_PBE Cl_GW 19Mar2012               </c></rc>
   </set>
  </array>
 </atominfo>
 <structure name="initialpos" >
  <crystal>
   <varray name="basis" >
    <v>       9.66018310       0.00000000       0.00000000 </v>
    <v>       0.00000000       9.66018310       0.00000000 </v>
    <v>       0.00000000       0.00000000       9.66018310 </v>
   </varray>
   <i name="volume">    901.47995435 </i>
   <varray name="rec_basis" >
    <v>       0.10351771       0.00000000       0.00000000 </v>
    <v>       0.00000000       0.10351771       0.00000000 </v>
    <v>       0.00000000       0.00000000       0.10351771 </v>
   </varray>
  </crystal>
  <varray name="positions" >
   <v>       0.95580413       0.16171576       0.18565726 </v>
   <v>       0.98551612       0.79630258       0.78667267 </v>
   <v>       0.03154107       0.16323737       0.82298345 </v>
   <v>       0.01277307       0.79468511       0.20552523 </v>
   <v>       0.27165999       0.29604901       0.98220665 </v>
   <v>       0.20837605       0.82974408       0.01609821 </v>
   <v>       0.70647020       0.32750909       0.02706929 </v>
   <v>       0.79020097       0.83721567       0.97396808 </v>
   <v>       0.30669454       0.97180836       0.32812087 </v>
   <v>       0.31612229       0.01026018       0.70163420 </v>
   <v>       0.66050052       0.97059460       0.68628073 </v>
   <v>       0.66809942       0.05172755       0.33968968 </v>
   <v>       0.19172364       0.67054099       0.45947356 </v>
   <v>       0.31346299       0.21791842       0.52181583 </v>
   <v>       0.80556713       0.72324888       0.52190756 </v>
   <v>       0.82990404       0.29663092       0.48419113 </v>
   <v>       0.17152958       0.45797806       0.68961643 </v>
   <v>       0.27897639       0.53229252       0.17215506 </v>
   <v>       0.80937020       0.49371560       0.29752034 </v>
   <v>       0.80439818       0.52477930       0.70683641 </v>
   <v>       0.47469852       0.31205970       0.79462006 </v>
   <v>       0.47905628       0.72251470       0.20315741 </v>
   <v>       0.51288922       0.30181277       0.22458199 </v>
   <v>       0.53678864       0.66509944       0.82675482 </v>
   <v>       0.49725414       0.51309634       0.50325916 </v>
   <v>       0.50337288       0.01172539       0.00869516 </v>
   <v>       0.99549310       0.50171466       0.99882633 </v>
   <v>       0.00117748       0.00533971       0.50171442 </v>
   <v>       0.12971270       0.87120069       0.60547527 </v>
   <v>       0.11717462       0.13748948       0.38397147 </v>
   <v>       0.87052080       0.90036818       0.37032272 </v>
   <v>       0.87504656       0.10949693       0.63707264 </v>
   <v>       0.85909813       0.62825616       0.10202967 </v>
   <v>       0.88977086       0.36972170       0.87025180 </v>
   <v>       0.13353370       0.61704029       0.88560460 </v>
   <v>       0.09753842       0.37691772       0.13735672 </v>
   <v>       0.62564302       0.13330779       0.88567237 </v>
   <v>       0.62665660       0.90177123       0.14167882 </v>
   <v>       0.36597084       0.12179148       0.12744914 </v>
   <v>       0.40346162       0.87217437       0.88180405 </v>
   <v>       0.61933465       0.63794683       0.38306045 </v>
   <v>       0.62192690       0.38047646       0.61353953 </v>
   <v>       0.37288757       0.62016699       0.63736757 </v>
   <v>       0.35868654       0.40804902       0.37880878 </v>
   <v>       0.75144377       0.75320623       0.75228034 </v>
   <v>       0.74660062       0.26506716       0.25709764 </v>
   <v>       0.24539299       0.75647657       0.24105804 </v>
   <v>       0.25016791       0.23844859       0.75266577 </v>
   <v>       0.00294478       0.97289312       0.99597793 </v>
   <v>       0.97022852       0.51904026       0.50909455 </v>
   <v>       0.48006035       0.02521648       0.50603824 </v>
   <v>       0.48178721       0.47215950       0.01093884 </v>
  </varray>
 </structure>
 <calculation>
  <scstep>
   <time name="dav">    2.26    2.34</time>
   <time name="total">    2.73    2.83</time>
   <energy>
    <i name="alphaZ">    301.12428165 </i>
    <i name="ewald">  -8821.09671074 </i>
    <i name="hartreedc">  -2107.39594974 </i>
    <i name="XCdc">    534.25881247 </i>
    <i name="pawpsdc">   8141.38806575 </i>
    <i name="pawaedc">  -8271.61346273 </i>
    <i name="eentropy">     -0.00830166 </i>
    <i name="bandstr">   -887.49218331 </i>
    <i name="atom">  12703.13999606 </i>
    <i name="e_fr_energy">   1592.30454775 </i>
    <i name="e_wo_entrp">   1592.31284941 </i>
    <i name="e_0_energy">   1592.30869858 </i>
   </energy>
  </scstep>
  <scstep>
   <time name="dav">    2.64    2.67</time>
   <time name="total">    2.64    2.67</time>
   <energy>
    <i name="e_fr_energy">    -56.66512290 </i>
    <i name="e_wo_entrp">    -56.66512290 </i>
    <i name="e_0_energy">    -56.66512290 </i>
   </energy>
  </scstep>
  <scstep>
   <time name="dav">    2.74    2.77</time>
   <time name="total">    2.74    2.77</time>
   <energy>
    <i name="e_fr_energy">   -228.30033220 </i>
    <i name="e_wo_entrp">   -228.30033220 </i>
    <i name="e_0_energy">   -228.30033220 </i>
   </energy>
  </scstep>
  <scstep>
   <time name="dav">    3.16    3.18</time>
   <time name="total">    3.16    3.18</time>
   <energy>
    <i name="e_fr_energy">   -241.87523309 </i>
    <i name="e_wo_entrp">   -241.87523309 </i>
    <i name="e_0_energy">   -241.87523309 </i>
   </energy>
  </scstep>
  <scstep>
   <time name="dav">    2.93    2.95</time>
   <time name="total">    2.93    2.95</time>
   <energy>
    <i name="e_fr_energy">   -242.09774065 </i>
    <i name="e_wo_entrp">   -242.09774065 </i>
    <i name="e_0_energy">   -242.09774065 </i>
   </energy>
  </scstep>
  <scstep>
   <time name="dav">    3.14    3.17</time>
   <time name="total">    3.14    3.17</time>
   <energy>
    <i name="e_fr_energy">   -242.10980500 </i>
    <i name="e_wo_entrp">   -242.10980500 </i>
    <i name="e_0_energy">   -242.10980500 </i>
   </energy>
  </scstep>
  <scstep>
   <time name="dav">    2.99    3.01</time>
   <time name="total">    2.99    3.01</time>
   <energy>
    <i name="e_fr_energy">   -242.11018352 </i>
    <i name="e_wo_entrp">   -242.11018352 </i>
    <i name="e_0_energy">   -242.11018352 </i>
   </energy>
  </scstep>
  <scstep>
   <time name="dav">    3.02    3.05</time>
   <time name="total">    3.02    3.05</time>
   <energy>
    <i name="e_fr_energy">   -242.11020541 </i>
    <i name="e_wo_entrp">   -242.11020541 </i>
    <i name="e_0_energy">   -242.11020541 </i>
   </energy>
  </scstep>
  <scstep>
   <time name="dav">    2.96    2.98</time>
   <time name="total">    2.96    2.98</time>
   <energy>
    <i name="e_fr_energy">   -242.11020682 </i>
    <i name="e_wo_entrp">   -242.11020682 </i>
    <i name="e_0_energy">   -242.11020682 </i>
   </energy>
  </scstep>
  <scstep>
   <time name="dav">    1.98    2.00</time>
   <time name="total">    2.05    2.07</time>
   <energy>
    <i name="e_fr_energy">   -242.11020688 </i>
    <i name="e_wo_entrp">   -242.11020688 </i>
    <i name="e_0_energy">   -242.11020688 </i>
   </energy>
  </scstep>
  <scstep>
   <time name="diag">    0.37    0.37</time>
   <time name="diis">    1.15    1.16</time>
   <time name="orth">    0.07    0.07</time>
   <time name="total">    2.10    2.13</time>
   <energy>
    <i name="e_fr_energy">   -236.32447588 </i>
    <i name="e_wo_entrp">   -236.32447588 </i>
    <i name="e_0_energy">   -236.32447588 </i>
   </energy>
  </scstep>
  <scstep>
   <time name="diag">    0.36    0.36</time>
   <time name="diis">    1.21    1.22</time>
   <time name="orth">    0.07    0.07</time>
   <time name="total">    2.15    2.17</time>
   <energy>
    <i name="e_fr_energy">   -255.99887310 </i>
    <i name="e_wo_entrp">   -255.99887310 </i>
    <i name="e_0_energy">   -255.99887310 </i>
   </energy>
  </scstep>
  <scstep>
   <time name="diag">    0.35    0.36</time>
   <time name="diis">    1.19    1.20</time>
   <time name="orth">    0.07    0.07</time>
   <time name="total">    2.13    2.15</time>
   <energy>
    <i name="e_fr_energy">   -258.48050406 </i>
    <i name="e_wo_entrp">   -258.48050406 </i>
    <i name="e_0_energy">   -258.48050406 </i>
   </energy>
  </scstep>
  <scstep>
   <time name="diag">    0.36    0.36</time>
   <time name="diis">    1.55    1.56</time>
   <time name="orth">    0.07    0.07</time>
   <time name="total">    2.49    2.51</time>
   <energy>
    <i name="e_fr_energy">   -258.68061947 </i>
    <i name="e_wo_entrp">   -258.68061947 </i>
    <i name="e_0_energy">   -258.68061947 </i>
   </energy>
  </scstep>
  <scstep>
   <time name="diag">    0.35    0.36</time>
   <time name="diis">    1.27    1.28</time>
   <time name="orth">    0.07    0.07</time>
   <time name="total">    2.21    2.22</time>
   <energy>
    <i name="e_fr_energy">   -258.65309386 </i>
    <i name="e_wo_entrp">   -258.65309386 </i>
    <i name="e_0_energy">   -258.65309386 </i>
   </energy>
  </scstep>
  <scstep>
   <time name="diag">    0.35    0.36</time>
   <time name="diis">    1.26    1.27</time>
   <time name="orth">    0.07    0.07</time>
   <time name="total">    2.21    2.22</time>
   <energy>
    <i name="e_fr_energy">   -258.67249188 </i>
    <i name="e_wo_entrp">   -258.67249188 </i>
    <i name="e_0_energy">   -258.67249188 </i>
   </energy>
  </scstep>
  <scstep>
   <time name="diag">    0.35    0.36</time>
   <time name="diis">    1.44    1.45</time>
   <time name="orth">    0.07    0.07</time>
   <time name="total">    2.38    2.40</time>
   <energy>
    <i name="e_fr_energy">   -258.67861545 </i>
    <i name="e_wo_entrp">   -258.67861545 </i>
    <i name="e_0_energy">   -258.67861545 </i>
   </energy>
  </scstep>
  <scstep>
   <time name="diag">    0.36    0.36</time>
   <time name="diis">    1.40    1.41</time>
   <time name="orth">    0.07    0.07</time>
   <time name="total">    2.34    2.36</time>
   <energy>
    <i name="e_fr_energy">   -258.67977477 </i>
    <i name="e_wo_entrp">   -258.67977477 </i>
    <i name="e_0_energy">   -258.67977477 </i>
   </energy>
  </scstep>
  <scstep>
   <time name="diag">    0.36    0.36</time>
   <time name="diis">    5.38    5.43</time>
   <time name="orth">    0.07    0.08</time>
   <time name="total">    6.33    6.40</time>
   <energy>
    <i name="e_fr_energy">   -258.68025167 </i>
    <i name="e_wo_entrp">   -258.68025167 </i>
    <i name="e_0_energy">   -258.68025167 </i>
   </energy>
  </scstep>
  <scstep>
   <time name="diag">    0.35    0.36</time>
   <time name="diis">    1.58    1.60</time>
   <time name="orth">    0.07    0.07</time>
   <time name="total">    2.53    2.55</time>
   <energy>
    <i name="e_fr_energy">   -258.68034447 </i>
    <i name="e_wo_entrp">   -258.68034447 </i>
    <i name="e_0_energy">   -258.68034447 </i>
   </energy>
  </scstep>
  <scstep>
   <time name="diag">    0.36    0.36</time>
   <time name="diis">    1.45    1.47</time>
   <time name="orth">    0.07    0.07</time>
   <time name="total">    2.40    2.42</time>
   <energy>
    <i name="e_fr_energy">   -258.68036124 </i>
    <i name="e_wo_entrp">   -258.68036124 </i>
    <i name="e_0_energy">   -258.68036124 </i>
   </energy>
  </scstep>
  <scstep>
   <time name="diag">    0.36    0.36</time>
   <time name="diis">    1.56    1.57</time>
   <time name="orth">    0.07    0.07</time>
   <time name="total">    2.50    2.52</time>
   <energy>
    <i name="e_fr_energy">   -258.68036719 </i>
    <i name="e_wo_entrp">   -258.68036719 </i>
    <i name="e_0_energy">   -258.68036719 </i>
   </energy>
  </scstep>
  <scstep>
   <time name="diag">    0.36    0.36</time>
   <time name="diis">    1.25    1.26</time>
   <time name="orth">    0.07    0.07</time>
   <time name="total">    2.19    2.21</time>
   <energy>
    <i name="e_fr_energy">   -258.68036706 </i>
    <i name="e_wo_entrp">   -258.68036706 </i>
    <i name="e_0_energy">   -258.68036706 </i>
   </energy>
  </scstep>
  <scstep>
   <time name="diag">    0.36    0.36</time>
   <time name="diis">    0.94    0.94</time>
   <time name="orth">    0.07    0.07</time>
   <time name="total">    1.82    1.84</time>
   <energy>
    <i name="alphaZ">    301.12428165 </i>
    <i name="ewald">  -8821.09671074 </i>
    <i name="hartreedc">  -2206.73460954 </i>
    <i name="XCdc">    537.86538164 </i>
    <i name="pawpsdc">   9820.11644510 </i>
    <i name="pawaedc">  -9964.10871798 </i>
    <i name="eentropy">     -0.00000000 </i>
    <i name="bandstr">  -2628.98643261 </i>
    <i name="atom">  12703.13999606 </i>
    <i name="e_fr_energy">   -258.68036642 </i>
    <i name="e_wo_entrp">   -258.68036642 </i>
    <i name="e_0_energy">   -258.68036642 </i>
   </energy>
  </scstep>
  <structure>
   <crystal>
    <varray name="basis" >
     <v>       9.66018310       0.00000000       0.00000000 </v>
     <v>       0.00000000       9.66018310       0.00000000 </v>
     <v>       0.00000000       0.00000000       9.66018310 </v>
    </varray>
    <i name="volume">    901.47995435 </i>
    <varray name="rec_basis" >
     <v>       0.10351771       0.00000000       0.00000000 </v>
     <v>       0.00000000       0.10351771       0.00000000 </v>
     <v>       0.00000000       0.00000000       0.10351771 </v>
    </varray>
   </crystal>
   <varray name="positions" >
    <v>       0.95580413       0.16171576       0.18565726 </v>
    <v>       0.98551612       0.79630258       0.78667267 </v>
    <v>       0.03154107       0.16323737       0.82298345 </v>
    <v>       0.01277307       0.79468511       0.20552523 </v>
    <v>       0.27165999       0.29604901       0.98220665 </v>
    <v>       0.20837605       0.82974408       0.01609821 </v>
    <v>       0.70647020       0.32750909       0.02706929 </v>
    <v>       0.79020097       0.83721567       0.97396808 </v>
    <v>       0.30669454       0.97180836       0.32812087 </v>
    <v>       0.31612229       0.01026018       0.70163420 </v>
    <v>       0.66050052       0.97059460       0.68628073 </v>
    <v>       0.66809942       0.05172755       0.33968968 </v>
    <v>       0.19172364       0.67054099       0.45947356 </v>
    <v>       0.31346299       0.21791842       0.52181583 </v>
    <v>       0.80556713       0.72324888       0.52190756 </v>
    <v>       0.82990404       0.29663092       0.48419113 </v>
    <v>       0.17152958       0.45797806       0.68961643 </v>
    <v>       0.27897639       0.53229252       0.17215506 </v>
    <v>       0.80937020       0.49371560       0.29752034 </v>
    <v>       0.80439818       0.52477930       0.70683641 </v>
    <v>       0.47469852       0.31205970       0.79462006 </v>
    <v>       0.47905628       0.72251470       0.20315741 </v>
    <v>       0.51288922       0.30181277       0.22458199 </v>
    <v>       0.53678864       0.66509944       0.82675482 </v>
    <v>       0.49725414       0.51309634       0.50325916 </v>
    <v>       0.50337288       0.01172539       0.00869516 </v>
    <v>       0.99549310       0.50171466       0.99882633 </v>
    <v>       0.00117748       0.00533971       0.50171442 </v>
    <v>       0.12971270       0.87120069       0.60547527 </v>
    <v>       0.11717462       0.13748948       0.38397147 </v>
    <v>       0.87052080       0.90036818       0.37032272 </v>
    <v>       0.87504656       0.10949693       0.63707264 </v>
    <v>       0.85909813       0.62825616       0.10202967 </v>
    <v>       0.88977086       0.36972170       0.87025180 </v>
    <v>       0.13353370       0.61704029       0.88560460 </v>
    <v>       0.09753842       0.37691772       0.13735672 </v>
    <v>       0.62564302       0.13330779       0.88567237 </v>
    <v>       0.62665660       0.90177123       0.14167882 </v>
    <v>       0.36597084       0.12179148       0.12744914 </v>
    <v>       0.40346162       0.87217437       0.88180405 </v>
    <v>       0.61933465       0.63794683       0.38306045 </v>
    <v>       0.62192690       0.38047646       0.61353953 </v>
    <v>       0.37288757       0.62016699       0.63736757 </v>
    <v>       0.35868654       0.40804902       0.37880878 </v>
    <v>       0.75144377       0.75320623       0.75228034 </v>
    <v>       0.74660062       0.26506716       0.25709764 </v>
    <v>       0.24539299       0.75647657       0.24105804 </v>
    <v>       0.25016791       0.23844859       0.75266577 </v>
    <v>       0.00294478       0.97289312       0.99597793 </v>
    <v>       0.97022852       0.51904026       0.50909455 </v>
    <v>       0.48006035       0.02521648       0.50603824 </v>
    <v>       0.48178721       0.47215950       0.01093884 </v>
   </varray>
  </structure>
  <varray name="forces" >
   <v>       0.00018246      -0.00129615      -0.00005973 </v>
   <v>       0.00023085       0.00029685       0.00036558 </v>
   <v>      -0.00044269      -0.00026285       0.00029650 </v>
   <v>       0.00023196      -0.00076522       0.00019953 </v>
   <v>      -0.00017366      -0.00004019       0.00046271 </v>
   <v>      -0.00034945       0.00097427      -0.00030257 </v>
   <v>      -0.00017600       0.00086373      -0.00014486 </v>
   <v>       0.00029743       0.00080953       0.00029862 </v>
   <v>       0.00046865       0.00022450       0.00017859 </v>
   <v>      -0.00021313      -0.00032986      -0.00051418 </v>
   <v>      -0.00098743       0.00022703       0.00018020 </v>
   <v>      -0.00015506      -0.00055586       0.00083910 </v>
   <v>       0.00073060      -0.00113565       0.00002839 </v>
   <v>       0.00074379       0.00006899      -0.00040293 </v>
   <v>       0.00055571       0.00015288      -0.00053409 </v>
   <v>       0.00177281       0.00043238      -0.00016370 </v>
   <v>      -0.00091095       0.00050870      -0.00040280 </v>
   <v>       0.00031434      -0.00011595      -0.00107342 </v>
   <v>      -0.00012317       0.00054969       0.00066214 </v>
   <v>      -0.00017268      -0.00048627      -0.00066790 </v>
   <v>       0.00010749       0.00116225       0.00034145 </v>
   <v>       0.00038886      -0.00212274      -0.00185611 </v>
   <v>      -0.00040205       0.00002563      -0.00001742 </v>
   <v>      -0.00024451      -0.00045564       0.00076508 </v>
   <v>       0.00100078      -0.00014901      -0.00085793 </v>
   <v>      -0.00138938       0.00012700       0.00434053 </v>
   <v>      -0.00176109      -0.00160070       0.00434008 </v>
   <v>       0.00090562      -0.00197527      -0.00148745 </v>
   <v>       0.00404350      -0.00423453       0.00230581 </v>
   <v>       0.00359669       0.00516665      -0.00318240 </v>
   <v>      -0.00267627      -0.00185362      -0.00376097 </v>
   <v>      -0.00423262       0.00246980       0.00475239 </v>
   <v>      -0.00406952       0.00243207       0.00143540 </v>
   <v>      -0.00386247      -0.00543794      -0.00568369 </v>
   <v>       0.00639014       0.00416164      -0.00350863 </v>
   <v>      -0.00014840      -0.00250807       0.00284631 </v>
   <v>       0.00464057       0.00437498      -0.00367868 </v>
   <v>       0.00230517      -0.00188850       0.00311758 </v>
   <v>      -0.00418943       0.00239823       0.00307390 </v>
   <v>      -0.00226976      -0.00380977      -0.00383128 </v>
   <v>       0.00304909       0.00410754      -0.00266596 </v>
   <v>       0.00350388      -0.00470750       0.00171797 </v>
   <v>      -0.00320168       0.00362466       0.00560013 </v>
   <v>      -0.00461510      -0.00166779      -0.00350811 </v>
   <v>      -0.00060064      -0.00017339       0.00012570 </v>
   <v>       0.00012632      -0.00022446       0.00003015 </v>
   <v>       0.00042834       0.00061524       0.00030289 </v>
   <v>      -0.00075225      -0.00025963      -0.00022464 </v>
   <v>      -0.00023553       0.00132595      -0.00007322 </v>
   <v>       0.00128954      -0.00061679      -0.00046836 </v>
   <v>       0.00077126      -0.00059143       0.00022320 </v>
   <v>       0.00027905       0.00216458       0.00024108 </v>
  </varray>
  <varray name="stress" >
   <v>      -3.46884205       2.13751025      -1.87459978 </v>
   <v>       2.13751012      -0.07371796      -3.39877436 </v>
   <v>      -1.87460098      -3.39877521       3.44413415 </v>
  </varray>
  <energy>
   <i name="e_fr_energy">   -272.25530450 </i>
   <i name="e_wo_entrp">   -272.25530450 </i>
   <i name="e_0_energy">   -272.25530450 </i>
  </energy>
  <time name="totalsc">   67.20   67.90</time>
 </calculation>
 <calculation>
  <scstep>
   <time name="dav">    2.22    2.24</time>
   <time name="total">    2.74    2.76</time>
   <energy>
    <i name="alphaZ">    301.12428165 </i>
    <i name="ewald">  -8821.25228339 </i>
    <i name="hartreedc">  -2206.61672950 </i>
    <i name="XCdc">    537.86193358 </i>
    <i name="pawpsdc">   9820.10717246 </i>
    <i name="pawaedc">  -9964.09935174 </i>
    <i name="eentropy">     -0.00000000 </i>
    <i name="bandstr">  -2628.94538521 </i>
    <i name="atom">  12703.13999606 </i>
    <i name="e_fr_energy">   -258.68036609 </i>
    <i name="e_wo_entrp">   -258.68036609 </i>
    <i name="e_0_energy">   -258.68036609 </i>
   </energy>
  </scstep>
  <scstep>
   <time name="diag">    0.56    0.58</time>
   <time name="diis">    1.13    1.14</time>
   <time name="orth">    0.07    0.07</time>
   <time name="total">    2.27    2.31</time>
   <energy>
    <i name="e_fr_energy">   -258.68036676 </i>
    <i name="e_wo_entrp">   -258.68036676 </i>
    <i name="e_0_energy">   -258.68036676 </i>
   </energy>
  </scstep>
  <scstep>
   <time name="diag">    0.36    0.36</time>
   <time name="diis">    1.09    1.10</time>
   <time name="orth">    0.07    0.07</time>
   <time name="total">    1.97    1.98</time>
   <energy>
    <i name="alphaZ">    301.12428165 </i>
    <i name="ewald">  -8821.25228339 </i>
    <i name="hartreedc">  -2206.60468377 </i>
    <i name="XCdc">    537.86097425 </i>
    <i name="pawpsdc">   9819.86647653 </i>
    <i name="pawaedc">  -9963.85736464 </i>
    <i name="eentropy">     -0.00000000 </i>
    <i name="bandstr">  -2628.95776380 </i>
    <i name="atom">  12703.13999606 </i>
    <i name="e_fr_energy">   -258.68036711 </i>
    <i name="e_wo_entrp">   -258.68036711 </i>
    <i name="e_0_energy">   -258.68036711 </i>
   </energy>
  </scstep>
  <structure>
   <crystal>
    <varray name="basis" >
     <v>       9.66018310       0.00000000       0.00000000 </v>
     <v>       0.00000000       9.66018310       0.00000000 </v>
     <v>       0.00000000       0.00000000       9.66018310 </v>
    </varray>
    <i name="volume">    901.47995435 </i>
    <varray name="rec_basis" >
     <v>       0.10351771       0.00000000       0.00000000 </v>
     <v>       0.00000000       0.10351771       0.00000000 </v>
     <v>       0.00000000       0.00000000       0.10351771 </v>
    </varray>
   </crystal>
   <varray name="positions" >
    <v>       0.95580450       0.16171317       0.18565714 </v>
    <v>       0.98551658       0.79630317       0.78667340 </v>
    <v>       0.03154018       0.16323685       0.82298404 </v>
    <v>       0.01277353       0.79468358       0.20552563 </v>
    <v>       0.27165964       0.29604893       0.98220758 </v>
    <v>       0.20837535       0.82974603       0.01609761 </v>
    <v>       0.70646985       0.32751082       0.02706900 </v>
    <v>       0.79020156       0.83721728       0.97396867 </v>
    <v>       0.30669548       0.97180880       0.32812123 </v>
    <v>       0.31612186       0.01025952       0.70163318 </v>
    <v>       0.66049855       0.97059505       0.68628109 </v>
    <v>       0.66809911       0.05172644       0.33969136 </v>
    <v>       0.19172510       0.67053872       0.45947362 </v>
    <v>       0.31346448       0.21791856       0.52181502 </v>
    <v>       0.80556824       0.72324919       0.52190649 </v>
    <v>       0.82990758       0.29663178       0.48419081 </v>
    <v>       0.17152776       0.45797907       0.68961562 </v>
    <v>       0.27897702       0.53229228       0.17215292 </v>
    <v>       0.80936996       0.49371670       0.29752166 </v>
    <v>       0.80439783       0.52477833       0.70683508 </v>
    <v>       0.47469874       0.31206202       0.79462075 </v>
    <v>       0.47905706       0.72251046       0.20315371 </v>
    <v>       0.51288842       0.30181282       0.22458196 </v>
    <v>       0.53678815       0.66509853       0.82675635 </v>
    <v>       0.49725614       0.51309604       0.50325745 </v>
    <v>       0.50337010       0.01172565       0.00870383 </v>
    <v>       0.99548958       0.50171146       0.99883500 </v>
    <v>       0.00117929       0.00533576       0.50171145 </v>
    <v>       0.12972078       0.87119223       0.60547988 </v>
    <v>       0.11718181       0.13749980       0.38396511 </v>
    <v>       0.87051545       0.90036448       0.37031521 </v>
    <v>       0.87503810       0.10950186       0.63708214 </v>
    <v>       0.85909000       0.62826102       0.10203254 </v>
    <v>       0.88976314       0.36971084       0.87024045 </v>
    <v>       0.13354646       0.61704860       0.88559759 </v>
    <v>       0.09753813       0.37691271       0.13736241 </v>
    <v>       0.62565229       0.13331653       0.88566503 </v>
    <v>       0.62666121       0.90176746       0.14168505 </v>
    <v>       0.36596247       0.12179627       0.12745528 </v>
    <v>       0.40345709       0.87216676       0.88179639 </v>
    <v>       0.61934074       0.63795504       0.38305512 </v>
    <v>       0.62193390       0.38046706       0.61354296 </v>
    <v>       0.37288117       0.62017423       0.63737875 </v>
    <v>       0.35867732       0.40804569       0.37880178 </v>
    <v>       0.75144257       0.75320589       0.75228059 </v>
    <v>       0.74660087       0.26506671       0.25709770 </v>
    <v>       0.24539385       0.75647780       0.24105864 </v>
    <v>       0.25016641       0.23844807       0.75266532 </v>
    <v>       0.00294431       0.97289577       0.99597779 </v>
    <v>       0.97023110       0.51903903       0.50909362 </v>
    <v>       0.48006190       0.02521530       0.50603869 </v>
    <v>       0.48178777       0.47216383       0.01093932 </v>
   </varray>
  </structure>
  <varray name="forces" >
   <v>       0.00004602      -0.00086027      -0.00010495 </v>
   <v>       0.00022884       0.00011813       0.00024097 </v>
   <v>      -0.00028141      -0.00014177       0.00014633 </v>
   <v>       0.00025686      -0.00042891       0.00003552 </v>
   <v>      -0.00009854       0.00008283       0.00004962 </v>
   <v>      -0.00020420       0.00060784      -0.00024643 </v>
   <v>      -0.00006669       0.00050864      -0.00021573 </v>
   <v>       0.00022983       0.00066662      -0.00000307 </v>
   <v>       0.00034072       0.00015866       0.00023271 </v>
   <v>      -0.00002062      -0.00013533      -0.00028668 </v>
   <v>      -0.00062216       0.00014543       0.00015121 </v>
   <v>      -0.00010243      -0.00018980       0.00064145 </v>
   <v>       0.00051985      -0.00075127       0.00000644 </v>
   <v>       0.00053463       0.00003803      -0.00017213 </v>
   <v>       0.00042459       0.00008951      -0.00019315 </v>
   <v>       0.00123223       0.00023024      -0.00008128 </v>
   <v>      -0.00056054       0.00033264      -0.00021157 </v>
   <v>       0.00024113       0.00009172      -0.00096376 </v>
   <v>      -0.00004023       0.00032507       0.00048661 </v>
   <v>      -0.00002537      -0.00027438      -0.00037960 </v>
   <v>       0.00005182       0.00072707       0.00021819 </v>
   <v>       0.00025432      -0.00170449      -0.00159820 </v>
   <v>      -0.00014422       0.00008792      -0.00000122 </v>
   <v>      -0.00010739      -0.00025687       0.00048930 </v>
   <v>       0.00034000       0.00014948      -0.00005310 </v>
   <v>      -0.00041114       0.00048342       0.00139881 </v>
   <v>      -0.00089164      -0.00076197       0.00058528 </v>
   <v>       0.00068310      -0.00055569      -0.00053197 </v>
   <v>       0.00231315      -0.00242944       0.00100953 </v>
   <v>       0.00186718       0.00278918      -0.00144409 </v>
   <v>      -0.00125229      -0.00093623      -0.00225124 </v>
   <v>      -0.00193409       0.00066962       0.00205637 </v>
   <v>      -0.00269254       0.00133227       0.00082592 </v>
   <v>      -0.00174953      -0.00265408      -0.00286847 </v>
   <v>       0.00293447       0.00155382      -0.00093672 </v>
   <v>      -0.00028007      -0.00160830       0.00195671 </v>
   <v>       0.00196926       0.00190949      -0.00114892 </v>
   <v>       0.00115385      -0.00100689       0.00191589 </v>
   <v>      -0.00274784       0.00146129       0.00213334 </v>
   <v>      -0.00089524      -0.00155645      -0.00161132 </v>
   <v>       0.00171034       0.00232713      -0.00137390 </v>
   <v>       0.00175761      -0.00269848       0.00044087 </v>
   <v>      -0.00126797       0.00150413       0.00299219 </v>
   <v>      -0.00256479      -0.00047791      -0.00173687 </v>
   <v>      -0.00015360      -0.00025076       0.00003354 </v>
   <v>      -0.00006132       0.00002945       0.00004707 </v>
   <v>       0.00035394       0.00044095       0.00008696 </v>
   <v>      -0.00032290      -0.00013779      -0.00014455 </v>
   <v>      -0.00001794       0.00011043      -0.00012873 </v>
   <v>       0.00006465      -0.00006881      -0.00000525 </v>
   <v>       0.00000996       0.00006572       0.00013721 </v>
   <v>      -0.00000165       0.00084916       0.00037488 </v>
  </varray>
  <varray name="stress" >
   <v>      -3.51472307       2.13133226      -1.86888241 </v>
   <v>       2.13133219      -0.11887550      -3.40020616 </v>
   <v>      -1.86888376      -3.40020702       3.39882792 </v>
  </varray>
  <energy>
   <i name="e_fr_energy">   -272.25531529 </i>
   <i name="e_wo_entrp">   -272.25531529 </i>
   <i name="e_0_energy">   -272.25531529 </i>
  </energy>
  <time name="totalsc">   10.02   10.14</time>
 </calculation>
 <calculation>
  <scstep>
   <time name="dav">    2.48    2.50</time>
   <time name="total">    3.00    3.02</time>
   <energy>
    <i name="alphaZ">    301.12428165 </i>
    <i name="ewald">  -8821.39933421 </i>
    <i name="hartreedc">  -2206.49060204 </i>
    <i name="XCdc">    537.85766855 </i>
    <i name="pawpsdc">   9819.85006923 </i>
    <i name="pawaedc">  -9963.84076578 </i>
    <i name="eentropy">     -0.00000000 </i>
    <i name="bandstr">  -2628.92167509 </i>
    <i name="atom">  12703.13999606 </i>
    <i name="e_fr_energy">   -258.68036163 </i>
    <i name="e_wo_entrp">   -258.68036163 </i>
    <i name="e_0_energy">   -258.68036163 </i>
   </energy>
  </scstep>
  <scstep>
   <time name="diag">    0.46    0.46</time>
   <time name="diis">    1.13    1.14</time>
   <time name="orth">    0.07    0.07</time>
   <time name="total">    2.17    2.19</time>
   <energy>
    <i name="e_fr_energy">   -258.68036215 </i>
    <i name="e_wo_entrp">   -258.68036215 </i>
    <i name="e_0_energy">   -258.68036215 </i>
   </energy>
  </scstep>
  <scstep>
   <time name="diag">    0.35    0.36</time>
   <time name="diis">    1.08    1.09</time>
   <time name="orth">    0.07    0.07</time>
   <time name="total">    1.96    1.98</time>
   <energy>
    <i name="alphaZ">    301.12428165 </i>
    <i name="ewald">  -8821.39933421 </i>
    <i name="hartreedc">  -2206.47605391 </i>
    <i name="XCdc">    537.85682802 </i>
    <i name="pawpsdc">   9819.60227024 </i>
    <i name="pawaedc">  -9963.59191460 </i>
    <i name="eentropy">     -0.00000000 </i>
    <i name="bandstr">  -2628.93643568 </i>
    <i name="atom">  12703.13999606 </i>
    <i name="e_fr_energy">   -258.68036242 </i>
    <i name="e_wo_entrp">   -258.68036242 </i>
    <i name="e_0_energy">   -258.68036242 </i>
   </energy>
  </scstep>
  <structure>
   <crystal>
    <varray name="basis" >
     <v>       9.66018310       0.00000000       0.00000000 </v>
     <v>       0.00000000       9.66018310       0.00000000 </v>
     <v>       0.00000000       0.00000000       9.66018310 </v>
    </varray>
    <i name="volume">    901.47995435 </i>
    <varray name="rec_basis" >
     <v>       0.10351771       0.00000000       0.00000000 </v>
     <v>       0.00000000       0.10351771       0.00000000 </v>
     <v>       0.00000000       0.00000000       0.10351771 </v>
    </varray>
   </crystal>
   <varray name="positions" >
    <v>       0.95580484       0.16171073       0.18565703 </v>
    <v>       0.98551701       0.79630374       0.78667409 </v>
    <v>       0.03153935       0.16323635       0.82298460 </v>
    <v>       0.01277397       0.79468214       0.20552600 </v>
    <v>       0.27165931       0.29604886       0.98220845 </v>
    <v>       0.20837469       0.82974787       0.01609703 </v>
    <v>       0.70646951       0.32751245       0.02706873 </v>
    <v>       0.79020213       0.83721881       0.97396924 </v>
    <v>       0.30669636       0.97180923       0.32812156 </v>
    <v>       0.31612146       0.01025890       0.70163221 </v>
    <v>       0.66049668       0.97059548       0.68628143 </v>
    <v>       0.66809881       0.05172539       0.33969294 </v>
    <v>       0.19172648       0.67053658       0.45947367 </v>
    <v>       0.31346588       0.21791869       0.52181426 </v>
    <v>       0.80556929       0.72324948       0.52190548 </v>
    <v>       0.82991093       0.29663260       0.48419050 </v>
    <v>       0.17152604       0.45798003       0.68961486 </v>
    <v>       0.27897761       0.53229207       0.17215089 </v>
    <v>       0.80936973       0.49371774       0.29752291 </v>
    <v>       0.80439750       0.52477741       0.70683382 </v>
    <v>       0.47469894       0.31206422       0.79462139 </v>
    <v>       0.47905779       0.72250645       0.20315020 </v>
    <v>       0.51288766       0.30181287       0.22458192 </v>
    <v>       0.53678769       0.66509766       0.82675779 </v>
    <v>       0.49725803       0.51309576       0.50325583 </v>
    <v>       0.50336748       0.01172589       0.00871203 </v>
    <v>       0.99548625       0.50170844       0.99884320 </v>
    <v>       0.00118100       0.00533203       0.50170864 </v>
    <v>       0.12972842       0.87118423       0.60548423 </v>
    <v>       0.11718860       0.13750956       0.38395910 </v>
    <v>       0.87051040       0.90036098       0.37030811 </v>
    <v>       0.87503011       0.10950653       0.63709112 </v>
    <v>       0.85908231       0.62826562       0.10203525 </v>
    <v>       0.88975585       0.36970057       0.87022971 </v>
    <v>       0.13355853       0.61705646       0.88559096 </v>
    <v>       0.09753785       0.37690797       0.13736779 </v>
    <v>       0.62566105       0.13332479       0.88565808 </v>
    <v>       0.62666556       0.90176389       0.14169093 </v>
    <v>       0.36595456       0.12180080       0.12746109 </v>
    <v>       0.40345280       0.87215956       0.88178916 </v>
    <v>       0.61934650       0.63796279       0.38305009 </v>
    <v>       0.62194052       0.38045817       0.61354621 </v>
    <v>       0.37287512       0.62018108       0.63738933 </v>
    <v>       0.35866860       0.40804254       0.37879515 </v>
    <v>       0.75144143       0.75320556       0.75228083 </v>
    <v>       0.74660111       0.26506629       0.25709776 </v>
    <v>       0.24539466       0.75647896       0.24105922 </v>
    <v>       0.25016499       0.23844758       0.75266489 </v>
    <v>       0.00294386       0.97289827       0.99597765 </v>
    <v>       0.97023353       0.51903787       0.50909273 </v>
    <v>       0.48006335       0.02521418       0.50603911 </v>
    <v>       0.48178829       0.47216792       0.01093978 </v>
   </varray>
  </structure>
  <varray name="forces" >
   <v>      -0.00003417      -0.00088620      -0.00015203 </v>
   <v>       0.00025580       0.00008837       0.00029473 </v>
   <v>      -0.00028990      -0.00017966       0.00014787 </v>
   <v>       0.00035778      -0.00046227      -0.00003306 </v>
   <v>      -0.00014320       0.00015943      -0.00012399 </v>
   <v>      -0.00019266       0.00053487      -0.00029379 </v>
   <v>      -0.00005110       0.00048633      -0.00030390 </v>
   <v>       0.00022905       0.00078350      -0.00017604 </v>
   <v>       0.00035174       0.00015143       0.00032526 </v>
   <v>       0.00004569      -0.00006908      -0.00027523 </v>
   <v>      -0.00060579       0.00014769       0.00019611 </v>
   <v>      -0.00010897      -0.00004765       0.00069841 </v>
   <v>       0.00053918      -0.00076363       0.00001176 </v>
   <v>       0.00061243       0.00002370      -0.00009538 </v>
   <v>       0.00049563       0.00008606      -0.00007121 </v>
   <v>       0.00138888       0.00018317      -0.00005233 </v>
   <v>      -0.00054487       0.00032196      -0.00014657 </v>
   <v>       0.00018980       0.00022880      -0.00102323 </v>
   <v>      -0.00002737       0.00027602       0.00053976 </v>
   <v>       0.00000335      -0.00022948      -0.00039945 </v>
   <v>       0.00001675       0.00066751       0.00020428 </v>
   <v>       0.00014740      -0.00160355      -0.00158884 </v>
   <v>      -0.00007884       0.00012371       0.00000010 </v>
   <v>      -0.00006321      -0.00028004       0.00053476 </v>
   <v>      -0.00031388       0.00046333       0.00072949 </v>
   <v>      -0.00011467       0.00022009      -0.00068274 </v>
   <v>      -0.00018073      -0.00006047      -0.00280005 </v>
   <v>       0.00041959       0.00074020       0.00037021 </v>
   <v>       0.00109085      -0.00116107      -0.00011861 </v>
   <v>       0.00045736       0.00114002      -0.00014651 </v>
   <v>      -0.00024733      -0.00015504      -0.00131050 </v>
   <v>      -0.00017603      -0.00086692      -0.00002105 </v>
   <v>      -0.00193176       0.00046357       0.00032697 </v>
   <v>      -0.00013130      -0.00070559      -0.00076089 </v>
   <v>       0.00041667      -0.00050764       0.00117459 </v>
   <v>      -0.00066717      -0.00112188       0.00154632 </v>
   <v>      -0.00002838      -0.00007410       0.00093844 </v>
   <v>       0.00031029      -0.00032475       0.00118668 </v>
   <v>      -0.00189128       0.00069410       0.00155602 </v>
   <v>       0.00027750       0.00006096       0.00000177 </v>
   <v>       0.00059261       0.00113710      -0.00035053 </v>
   <v>       0.00045472      -0.00133348      -0.00070662 </v>
   <v>       0.00037245      -0.00012888       0.00096225 </v>
   <v>      -0.00127486       0.00061588      -0.00047485 </v>
   <v>      -0.00012882      -0.00026477       0.00000718 </v>
   <v>      -0.00004490       0.00003928       0.00003064 </v>
   <v>       0.00037123       0.00039946       0.00009008 </v>
   <v>      -0.00028956      -0.00011536      -0.00012555 </v>
   <v>      -0.00003472       0.00020280      -0.00006298 </v>
   <v>       0.00013586      -0.00007132      -0.00010398 </v>
   <v>       0.00003031       0.00002091       0.00008380 </v>
   <v>       0.00003253       0.00095262       0.00044242 </v>
  </varray>
  <varray name="stress" >
   <v>      -3.55292260       2.12417543      -1.86222830 </v>
   <v>       2.12417516      -0.15633845      -3.40078618 </v>
   <v>      -1.86222974      -3.40078687       3.36130713 </v>
  </varray>
  <energy>
   <i name="e_fr_energy">   -272.25532014 </i>
   <i name="e_wo_entrp">   -272.25532014 </i>
   <i name="e_0_energy">   -272.25532014 </i>
  </energy>
  <time name="totalsc">   10.17   10.28</time>
 </calculation>
 <calculation>
  <scstep>
   <time name="dav">    3.12    3.15</time>
   <time name="total">    3.63    3.67</time>
   <energy>
    <i name="alphaZ">    301.12428165 </i>
    <i name="ewald">  -8821.44755735 </i>
    <i name="hartreedc">  -2206.43960259 </i>
    <i name="XCdc">    537.85575606 </i>
    <i name="pawpsdc">   9819.58018269 </i>
    <i name="pawaedc">  -9963.56949643 </i>
    <i name="eentropy">     -0.00000000 </i>
    <i name="bandstr">  -2628.92392012 </i>
    <i name="atom">  12703.13999606 </i>
    <i name="e_fr_energy">   -258.68036003 </i>
    <i name="e_wo_entrp">   -258.68036003 </i>
    <i name="e_0_energy">   -258.68036003 </i>
   </energy>
  </scstep>
  <scstep>
   <time name="diag">    0.37    0.38</time>
   <time name="diis">    0.94    0.95</time>
   <time name="orth">    0.06    0.06</time>
   <time name="total">    1.84    1.86</time>
   <energy>
    <i name="alphaZ">    301.12428165 </i>
    <i name="ewald">  -8821.44755735 </i>
    <i name="hartreedc">  -2206.43599935 </i>
    <i name="XCdc">    537.85559705 </i>
    <i name="pawpsdc">   9819.52538263 </i>
    <i name="pawaedc">  -9963.51449636 </i>
    <i name="eentropy">     -0.00000000 </i>
    <i name="bandstr">  -2628.92756431 </i>
    <i name="atom">  12703.13999606 </i>
    <i name="e_fr_energy">   -258.68035998 </i>
    <i name="e_wo_entrp">   -258.68035998 </i>
    <i name="e_0_energy">   -258.68035998 </i>
   </energy>
  </scstep>
  <structure>
   <crystal>
    <varray name="basis" >
     <v>       9.66018310       0.00000000       0.00000000 </v>
     <v>       0.00000000       9.66018310       0.00000000 </v>
     <v>       0.00000000       0.00000000       9.66018310 </v>
    </varray>
    <i name="volume">    901.47995435 </i>
    <varray name="rec_basis" >
     <v>       0.10351771       0.00000000       0.00000000 </v>
     <v>       0.00000000       0.10351771       0.00000000 </v>
     <v>       0.00000000       0.00000000       0.10351771 </v>
    </varray>
   </crystal>
   <varray name="positions" >
    <v>       0.95580495       0.16170992       0.18565699 </v>
    <v>       0.98551716       0.79630392       0.78667431 </v>
    <v>       0.03153907       0.16323619       0.82298479 </v>
    <v>       0.01277411       0.79468166       0.20552613 </v>
    <v>       0.27165920       0.29604883       0.98220874 </v>
    <v>       0.20837448       0.82974847       0.01609685 </v>
    <v>       0.70646940       0.32751298       0.02706864 </v>
    <v>       0.79020231       0.83721931       0.97396942 </v>
    <v>       0.30669665       0.97180937       0.32812167 </v>
    <v>       0.31612133       0.01025869       0.70163189 </v>
    <v>       0.66049607       0.97059562       0.68628154 </v>
    <v>       0.66809872       0.05172505       0.33969346 </v>
    <v>       0.19172693       0.67053587       0.45947369 </v>
    <v>       0.31346634       0.21791873       0.52181401 </v>
    <v>       0.80556964       0.72324957       0.52190515 </v>
    <v>       0.82991203       0.29663286       0.48419039 </v>
    <v>       0.17152548       0.45798035       0.68961461 </v>
    <v>       0.27897781       0.53229199       0.17215023 </v>
    <v>       0.80936965       0.49371808       0.29752332 </v>
    <v>       0.80439740       0.52477711       0.70683340 </v>
    <v>       0.47469901       0.31206494       0.79462160 </v>
    <v>       0.47905803       0.72250514       0.20314905 </v>
    <v>       0.51288741       0.30181288       0.22458191 </v>
    <v>       0.53678754       0.66509738       0.82675826 </v>
    <v>       0.49725865       0.51309567       0.50325530 </v>
    <v>       0.50336662       0.01172597       0.00871472 </v>
    <v>       0.99548516       0.50170745       0.99884589 </v>
    <v>       0.00118156       0.00533080       0.50170772 </v>
    <v>       0.12973093       0.87118161       0.60548566 </v>
    <v>       0.11719083       0.13751276       0.38395713 </v>
    <v>       0.87050874       0.90035983       0.37030578 </v>
    <v>       0.87502749       0.10950806       0.63709406 </v>
    <v>       0.85907979       0.62826712       0.10203614 </v>
    <v>       0.88975345       0.36969720       0.87022619 </v>
    <v>       0.13356249       0.61705904       0.88558878 </v>
    <v>       0.09753775       0.37690642       0.13736955 </v>
    <v>       0.62566393       0.13332750       0.88565580 </v>
    <v>       0.62666699       0.90176272       0.14169287 </v>
    <v>       0.36595196       0.12180229       0.12746300 </v>
    <v>       0.40345139       0.87215720       0.88178678 </v>
    <v>       0.61934839       0.63796534       0.38304844 </v>
    <v>       0.62194269       0.38045525       0.61354727 </v>
    <v>       0.37287314       0.62018332       0.63739280 </v>
    <v>       0.35866574       0.40804151       0.37879298 </v>
    <v>       0.75144106       0.75320545       0.75228091 </v>
    <v>       0.74660119       0.26506615       0.25709778 </v>
    <v>       0.24539492       0.75647934       0.24105940 </v>
    <v>       0.25016452       0.23844742       0.75266475 </v>
    <v>       0.00294372       0.97289910       0.99597760 </v>
    <v>       0.97023433       0.51903748       0.50909244 </v>
    <v>       0.48006383       0.02521382       0.50603925 </v>
    <v>       0.48178847       0.47216926       0.01093993 </v>
   </varray>
  </structure>
  <varray name="forces" >
   <v>      -0.00002266      -0.00113462      -0.00017214 </v>
   <v>       0.00029013       0.00013572       0.00038094 </v>
   <v>      -0.00038633      -0.00025585       0.00021818 </v>
   <v>       0.00041295      -0.00064890      -0.00000428 </v>
   <v>      -0.00020357       0.00016330      -0.00005156 </v>
   <v>      -0.00026180       0.00065692      -0.00039888 </v>
   <v>      -0.00008876       0.00065963      -0.00033358 </v>
   <v>       0.00027511       0.00096056      -0.00013980 </v>
   <v>       0.00044626       0.00019071       0.00039020 </v>
   <v>       0.00000362      -0.00012845      -0.00037271 </v>
   <v>      -0.00077849       0.00021703       0.00025263 </v>
   <v>      -0.00015073      -0.00013044       0.00088132 </v>
   <v>       0.00065703      -0.00097445       0.00005772 </v>
   <v>       0.00078364       0.00002893      -0.00015307 </v>
   <v>       0.00062166       0.00011272      -0.00014080 </v>
   <v>       0.00160201       0.00020519      -0.00002438 </v>
   <v>      -0.00070838       0.00043799      -0.00018433 </v>
   <v>       0.00018554       0.00024052      -0.00107314 </v>
   <v>      -0.00006086       0.00036463       0.00068889 </v>
   <v>      -0.00004284      -0.00031605      -0.00053853 </v>
   <v>       0.00006062       0.00083077       0.00027218 </v>
   <v>       0.00017176      -0.00183766      -0.00179513 </v>
   <v>      -0.00015893       0.00012251       0.00000912 </v>
   <v>      -0.00010674      -0.00039329       0.00071759 </v>
   <v>      -0.00055334       0.00058757       0.00101295 </v>
   <v>       0.00015740       0.00031266      -0.00157875 </v>
   <v>       0.00005598       0.00018791      -0.00390921 </v>
   <v>       0.00032074       0.00116667       0.00069312 </v>
   <v>       0.00088592      -0.00097263      -0.00041417 </v>
   <v>       0.00015358       0.00084882       0.00015487 </v>
   <v>      -0.00004343       0.00001665      -0.00121460 </v>
   <v>       0.00017790      -0.00132580      -0.00049545 </v>
   <v>      -0.00194743       0.00032498       0.00021516 </v>
   <v>       0.00024862      -0.00028361      -0.00033042 </v>
   <v>      -0.00014795      -0.00101446       0.00175674 </v>
   <v>      -0.00084061      -0.00113319       0.00160130 </v>
   <v>      -0.00049946      -0.00049335       0.00147485 </v>
   <v>       0.00014058      -0.00020914       0.00115019 </v>
   <v>      -0.00186009       0.00058315       0.00152750 </v>
   <v>       0.00056796       0.00042576       0.00034802 </v>
   <v>       0.00037497       0.00099334      -0.00013738 </v>
   <v>       0.00020491      -0.00117155      -0.00106330 </v>
   <v>       0.00080944      -0.00051441       0.00057471 </v>
   <v>      -0.00112530       0.00093082      -0.00025094 </v>
   <v>      -0.00012705      -0.00032290       0.00000122 </v>
   <v>      -0.00006254       0.00002401       0.00003491 </v>
   <v>       0.00041130       0.00042148       0.00012304 </v>
   <v>      -0.00028333      -0.00012931      -0.00011313 </v>
   <v>      -0.00008561       0.00035658      -0.00000972 </v>
   <v>       0.00034920      -0.00017724      -0.00025465 </v>
   <v>       0.00012970      -0.00009251       0.00008361 </v>
   <v>       0.00004769       0.00115223       0.00053311 </v>
  </varray>
  <varray name="stress" >
   <v>      -3.56875020       2.12161925      -1.86005736 </v>
   <v>       2.12161919      -0.17208904      -3.40125942 </v>
   <v>      -1.86005893      -3.40126027       3.34567140 </v>
  </varray>
  <energy>
   <i name="e_fr_energy">   -272.25532083 </i>
   <i name="e_wo_entrp">   -272.25532083 </i>
   <i name="e_0_energy">   -272.25532083 </i>
  </energy>
  <time name="totalsc">    8.51    8.61</time>
 </calculation>
 <calculation>
  <scstep>
   <time name="dav">    2.39    2.41</time>
   <time name="total">    2.90    2.93</time>
   <energy>
    <i name="alphaZ">    301.12428165 </i>
    <i name="ewald">  -8821.48304876 </i>
    <i name="hartreedc">  -2206.40704892 </i>
    <i name="XCdc">    537.85472631 </i>
    <i name="pawpsdc">   9819.49164284 </i>
    <i name="pawaedc">  -9963.48055316 </i>
    <i name="eentropy">     -0.00000000 </i>
    <i name="bandstr">  -2628.92035381 </i>
    <i name="atom">  12703.13999606 </i>
    <i name="e_fr_energy">   -258.68035778 </i>
    <i name="e_wo_entrp">   -258.68035778 </i>
    <i name="e_0_energy">   -258.68035778 </i>
   </energy>
  </scstep>
  <scstep>
   <time name="diag">    0.36    0.37</time>
   <time name="diis">    0.75    0.76</time>
   <time name="orth">    0.07    0.07</time>
   <time name="total">    1.63    1.64</time>
   <energy>
    <i name="alphaZ">    301.12428165 </i>
    <i name="ewald">  -8821.48304876 </i>
    <i name="hartreedc">  -2206.40461022 </i>
    <i name="XCdc">    537.85460438 </i>
    <i name="pawpsdc">   9819.44901778 </i>
    <i name="pawaedc">  -9963.43774975 </i>
    <i name="eentropy">     -0.00000000 </i>
    <i name="bandstr">  -2628.92284887 </i>
    <i name="atom">  12703.13999606 </i>
    <i name="e_fr_energy">   -258.68035773 </i>
    <i name="e_wo_entrp">   -258.68035773 </i>
    <i name="e_0_energy">   -258.68035773 </i>
   </energy>
  </scstep>
  <structure>
   <crystal>
    <varray name="basis" >
     <v>       9.66018310       0.00000000       0.00000000 </v>
     <v>       0.00000000       9.66018310       0.00000000 </v>
     <v>       0.00000000       0.00000000       9.66018310 </v>
    </varray>
    <i name="volume">    901.47995435 </i>
    <varray name="rec_basis" >
     <v>       0.10351771       0.00000000       0.00000000 </v>
     <v>       0.00000000       0.10351771       0.00000000 </v>
     <v>       0.00000000       0.00000000       0.10351771 </v>
    </varray>
   </crystal>
   <varray name="positions" >
    <v>       0.95580504       0.16170933       0.18565696 </v>
    <v>       0.98551726       0.79630406       0.78667448 </v>
    <v>       0.03153887       0.16323607       0.82298492 </v>
    <v>       0.01277422       0.79468131       0.20552622 </v>
    <v>       0.27165913       0.29604881       0.98220895 </v>
    <v>       0.20837432       0.82974891       0.01609671 </v>
    <v>       0.70646932       0.32751338       0.02706857 </v>
    <v>       0.79020245       0.83721968       0.97396956 </v>
    <v>       0.30669687       0.97180947       0.32812176 </v>
    <v>       0.31612123       0.01025854       0.70163165 </v>
    <v>       0.66049562       0.97059572       0.68628162 </v>
    <v>       0.66809865       0.05172479       0.33969385 </v>
    <v>       0.19172727       0.67053535       0.45947370 </v>
    <v>       0.31346668       0.21791876       0.52181383 </v>
    <v>       0.80556989       0.72324964       0.52190491 </v>
    <v>       0.82991284       0.29663306       0.48419032 </v>
    <v>       0.17152506       0.45798058       0.68961443 </v>
    <v>       0.27897795       0.53229194       0.17214974 </v>
    <v>       0.80936959       0.49371833       0.29752363 </v>
    <v>       0.80439732       0.52477689       0.70683310 </v>
    <v>       0.47469906       0.31206547       0.79462176 </v>
    <v>       0.47905821       0.72250417       0.20314820 </v>
    <v>       0.51288722       0.30181289       0.22458190 </v>
    <v>       0.53678743       0.66509717       0.82675861 </v>
    <v>       0.49725910       0.51309560       0.50325490 </v>
    <v>       0.50336598       0.01172602       0.00871670 </v>
    <v>       0.99548436       0.50170672       0.99884787 </v>
    <v>       0.00118197       0.00532990       0.50170704 </v>
    <v>       0.12973277       0.87117967       0.60548671 </v>
    <v>       0.11719247       0.13751512       0.38395568 </v>
    <v>       0.87050752       0.90035899       0.37030406 </v>
    <v>       0.87502555       0.10950919       0.63709623 </v>
    <v>       0.85907793       0.62826823       0.10203679 </v>
    <v>       0.88975169       0.36969472       0.87022360 </v>
    <v>       0.13356541       0.61706094       0.88558718 </v>
    <v>       0.09753769       0.37690528       0.13737085 </v>
    <v>       0.62566605       0.13332950       0.88565412 </v>
    <v>       0.62666804       0.90176186       0.14169429 </v>
    <v>       0.36595005       0.12180338       0.12746440 </v>
    <v>       0.40345036       0.87215546       0.88178503 </v>
    <v>       0.61934978       0.63796721       0.38304722 </v>
    <v>       0.62194429       0.38045310       0.61354806 </v>
    <v>       0.37287168       0.62018498       0.63739536 </v>
    <v>       0.35866364       0.40804075       0.37879138 </v>
    <v>       0.75144079       0.75320537       0.75228096 </v>
    <v>       0.74660125       0.26506605       0.25709779 </v>
    <v>       0.24539512       0.75647962       0.24105954 </v>
    <v>       0.25016418       0.23844730       0.75266465 </v>
    <v>       0.00294361       0.97289970       0.99597757 </v>
    <v>       0.97023492       0.51903720       0.50909223 </v>
    <v>       0.48006418       0.02521355       0.50603935 </v>
    <v>       0.48178859       0.47217025       0.01094004 </v>
   </varray>
  </structure>
  <varray name="forces" >
   <v>      -0.00001997      -0.00127271      -0.00018153 </v>
   <v>       0.00028335       0.00016270       0.00040721 </v>
   <v>      -0.00037371      -0.00026221       0.00023277 </v>
   <v>       0.00046047      -0.00067635      -0.00001150 </v>
   <v>      -0.00021900       0.00020308      -0.00006935 </v>
   <v>      -0.00029024       0.00077294      -0.00040981 </v>
   <v>      -0.00008584       0.00072079      -0.00032655 </v>
   <v>       0.00029027       0.00104979      -0.00016277 </v>
[...]
       <r>     7.9557     9.9878   143.8497 </r>
       <r>     8.1485    12.9013   146.3367 </r>
       <r>     8.3413    16.2073   149.4612 </r>
       <r>     8.5341    15.0410   152.3637 </r>
       <r>     8.7268    12.6353   154.7995 </r>
       <r>     8.9196    18.1088   158.2919 </r>
       <r>     9.1124    17.7313   161.7124 </r>
       <r>     9.3052    19.0123   165.3802 </r>
       <r>     9.4979    18.6238   168.9750 </r>
       <r>     9.6907    16.6641   172.1877 </r>
       <r>     9.8835    15.7265   175.2217 </r>
       <r>    10.0762     4.0251   176.0000 </r>
       <r>    10.2690     0.0000   176.0000 </r>
       <r>    10.4618     0.0000   176.0000 </r>
       <r>    10.6546     0.0000   176.0000 </r>
       <r>    10.8473     0.0000   176.0000 </r>
       <r>    11.0401     0.0000   176.0000 </r>
       <r>    11.2329     0.0000   176.0000 </r>
       <r>    11.4257     0.0000   176.0000 </r>
       <r>    11.6184     0.0000   176.0000 </r>
       <r>    11.8112     0.0000   176.0000 </r>
       <r>    12.0040     0.0000   176.0000 </r>
       <r>    12.1968     0.0000   176.0000 </r>
       <r>    12.3895     0.0000   176.0000 </r>
       <r>    12.5823     0.0000   176.0000 </r>
      </set>
      <set comment="spin 2">
       <r>   -45.2498     0.0000     0.0000 </r>
       <r>   -45.0570     0.0000     0.0000 </r>
       <r>   -44.8642     0.0000     0.0000 </r>
       <r>   -44.6715     0.0000     0.0000 </r>
       <r>   -44.4787     0.0000     0.0000 </r>
       <r>   -44.2859     0.0000     0.0000 </r>
       <r>   -44.0931     0.0000     0.0000 </r>
       <r>   -43.9004     0.0000     0.0000 </r>
       <r>   -43.7076     0.0000     0.0000 </r>
       <r>   -43.5148     0.0000     0.0000 </r>
       <r>   -43.3220     0.0000     0.0000 </r>
       <r>   -43.1293     0.0000     0.0000 </r>
       <r>   -42.9365     0.0000     0.0000 </r>
       <r>   -42.7437     0.0000     0.0000 </r>
       <r>   -42.5509    14.6322     2.8207 </r>
       <r>   -42.3582    49.9652    12.4532 </r>
       <r>   -42.1654    59.7341    23.9703 </r>
       <r>   -41.9726     0.1515    24.0000 </r>
       <r>   -41.7799     0.0000    24.0000 </r>
       <r>   -41.5871     0.0000    24.0000 </r>
       <r>   -41.3943     0.0000    24.0000 </r>
       <r>   -41.2015     0.0000    24.0000 </r>
       <r>   -41.0088     0.0000    24.0000 </r>
       <r>   -40.8160     0.0000    24.0000 </r>
       <r>   -40.6232     0.0000    24.0000 </r>
       <r>   -40.4304     0.0000    24.0000 </r>
       <r>   -40.2377     0.0000    24.0000 </r>
       <r>   -40.0449     0.0000    24.0000 </r>
       <r>   -39.8521     0.0000    24.0000 </r>
       <r>   -39.6593     0.0000    24.0000 </r>
       <r>   -39.4666     0.0000    24.0000 </r>
       <r>   -39.2738     0.0000    24.0000 </r>
       <r>   -39.0810     0.0000    24.0000 </r>
       <r>   -38.8883     0.0000    24.0000 </r>
       <r>   -38.6955     0.0000    24.0000 </r>
       <r>   -38.5027     0.0000    24.0000 </r>
       <r>   -38.3099     0.0000    24.0000 </r>
       <r>   -38.1172     0.0000    24.0000 </r>
       <r>   -37.9244     0.0000    24.0000 </r>
       <r>   -37.7316     0.0000    24.0000 </r>
       <r>   -37.5388     0.0000    24.0000 </r>
       <r>   -37.3461     0.0000    24.0000 </r>
       <r>   -37.1533     0.0000    24.0000 </r>
       <r>   -36.9605     0.0000    24.0000 </r>
       <r>   -36.7677     0.0000    24.0000 </r>
       <r>   -36.5750     0.0000    24.0000 </r>
       <r>   -36.3822     0.0000    24.0000 </r>
       <r>   -36.1894     0.0000    24.0000 </r>
       <r>   -35.9966     0.0000    24.0000 </r>
       <r>   -35.8039     0.0000    24.0000 </r>
       <r>   -35.6111     0.0000    24.0000 </r>
       <r>   -35.4183     0.0000    24.0000 </r>
       <r>   -35.2256     0.0000    24.0000 </r>
       <r>   -35.0328     0.0000    24.0000 </r>
       <r>   -34.8400     0.0000    24.0000 </r>
       <r>   -34.6472     0.0000    24.0000 </r>
       <r>   -34.4545     0.0000    24.0000 </r>
       <r>   -34.2617     0.0000    24.0000 </r>
       <r>   -34.0689     0.0000    24.0000 </r>
       <r>   -33.8761     0.0000    24.0000 </r>
       <r>   -33.6834     0.0000    24.0000 </r>
       <r>   -33.4906     0.0000    24.0000 </r>
       <r>   -33.2978     0.0000    24.0000 </r>
       <r>   -33.1050     0.0000    24.0000 </r>
       <r>   -32.9123     0.0000    24.0000 </r>
       <r>   -32.7195     0.0000    24.0000 </r>
       <r>   -32.5267     0.0000    24.0000 </r>
       <r>   -32.3339     0.0000    24.0000 </r>
       <r>   -32.1412     0.0000    24.0000 </r>
       <r>   -31.9484     0.0000    24.0000 </r>
       <r>   -31.7556     0.0000    24.0000 </r>
       <r>   -31.5629     0.0000    24.0000 </r>
       <r>   -31.3701     0.0000    24.0000 </r>
       <r>   -31.1773     0.0000    24.0000 </r>
       <r>   -30.9845     0.0000    24.0000 </r>
       <r>   -30.7918     0.0000    24.0000 </r>
       <r>   -30.5990     0.0000    24.0000 </r>
       <r>   -30.4062     0.0000    24.0000 </r>
       <r>   -30.2134     0.0000    24.0000 </r>
       <r>   -30.0207     0.0000    24.0000 </r>
       <r>   -29.8279     0.0000    24.0000 </r>
       <r>   -29.6351     0.0000    24.0000 </r>
       <r>   -29.4423     0.0000    24.0000 </r>
       <r>   -29.2496     0.0000    24.0000 </r>
       <r>   -29.0568     0.0000    24.0000 </r>
       <r>   -28.8640     0.0000    24.0000 </r>
       <r>   -28.6712     0.0000    24.0000 </r>
       <r>   -28.4785     0.0000    24.0000 </r>
       <r>   -28.2857     0.0000    24.0000 </r>
       <r>   -28.0929     0.0000    24.0000 </r>
       <r>   -27.9002     0.0000    24.0000 </r>
       <r>   -27.7074     0.0000    24.0000 </r>
       <r>   -27.5146     0.0000    24.0000 </r>
       <r>   -27.3218     0.0000    24.0000 </r>
       <r>   -27.1291     0.0000    24.0000 </r>
       <r>   -26.9363     0.0000    24.0000 </r>
       <r>   -26.7435     0.0000    24.0000 </r>
       <r>   -26.5507     0.0000    24.0000 </r>
       <r>   -26.3580     0.0000    24.0000 </r>
       <r>   -26.1652     0.0000    24.0000 </r>
       <r>   -25.9724     0.0000    24.0000 </r>
       <r>   -25.7796     0.0000    24.0000 </r>
       <r>   -25.5869     0.0000    24.0000 </r>
       <r>   -25.3941     0.0000    24.0000 </r>
       <r>   -25.2013     0.0000    24.0000 </r>
       <r>   -25.0086     0.0000    24.0000 </r>
       <r>   -24.8158     0.0000    24.0000 </r>
       <r>   -24.6230     0.0000    24.0000 </r>
       <r>   -24.4302     0.0000    24.0000 </r>
       <r>   -24.2375     0.0000    24.0000 </r>
       <r>   -24.0447     0.0000    24.0000 </r>
       <r>   -23.8519     0.0000    24.0000 </r>
       <r>   -23.6591     0.0000    24.0000 </r>
       <r>   -23.4664     0.0000    24.0000 </r>
       <r>   -23.2736     0.0000    24.0000 </r>
       <r>   -23.0808     0.0000    24.0000 </r>
       <r>   -22.8880     0.0000    24.0000 </r>
       <r>   -22.6953     0.0000    24.0000 </r>
       <r>   -22.5025     0.0000    24.0000 </r>
       <r>   -22.3097     0.0000    24.0000 </r>
       <r>   -22.1169     0.0000    24.0000 </r>
       <r>   -21.9242     0.0000    24.0000 </r>
       <r>   -21.7314     0.0000    24.0000 </r>
       <r>   -21.5386     0.0000    24.0000 </r>
       <r>   -21.3459     0.0000    24.0000 </r>
       <r>   -21.1531     0.0000    24.0000 </r>
       <r>   -20.9603     0.0000    24.0000 </r>
       <r>   -20.7675     0.0000    24.0000 </r>
       <r>   -20.5748     0.0000    24.0000 </r>
       <r>   -20.3820     0.0000    24.0000 </r>
       <r>   -20.1892     0.0000    24.0000 </r>
       <r>   -19.9964     0.0000    24.0000 </r>
       <r>   -19.8037     0.0000    24.0000 </r>
       <r>   -19.6109     0.0000    24.0000 </r>
       <r>   -19.4181     0.0000    24.0000 </r>
       <r>   -19.2253     0.0000    24.0000 </r>
       <r>   -19.0326     0.0000    24.0000 </r>
       <r>   -18.8398     0.0000    24.0000 </r>
       <r>   -18.6470     0.0000    24.0000 </r>
       <r>   -18.4542     0.0000    24.0000 </r>
       <r>   -18.2615     0.0000    24.0000 </r>
       <r>   -18.0687     0.0000    24.0000 </r>
       <r>   -17.8759     0.0000    24.0000 </r>
       <r>   -17.6832     0.0000    24.0000 </r>
       <r>   -17.4904     0.0000    24.0000 </r>
       <r>   -17.2976     0.0000    24.0000 </r>
       <r>   -17.1048     0.0000    24.0000 </r>
       <r>   -16.9121     0.0000    24.0000 </r>
       <r>   -16.7193     0.0000    24.0000 </r>
       <r>   -16.5265     0.0000    24.0000 </r>
       <r>   -16.3337     0.0000    24.0000 </r>
       <r>   -16.1410     0.0000    24.0000 </r>
       <r>   -15.9482     0.0000    24.0000 </r>
       <r>   -15.7554     0.0000    24.0000 </r>
       <r>   -15.5626     0.0000    24.0000 </r>
       <r>   -15.3699     0.0000    24.0000 </r>
       <r>   -15.1771     0.0000    24.0000 </r>
       <r>   -14.9843     0.0000    24.0000 </r>
       <r>   -14.7915     0.0000    24.0000 </r>
       <r>   -14.5988     0.0000    24.0000 </r>
       <r>   -14.4060     0.0000    24.0000 </r>
       <r>   -14.2132     0.0000    24.0000 </r>
       <r>   -14.0205     0.0000    24.0000 </r>
       <r>   -13.8277     0.0000    24.0000 </r>
       <r>   -13.6349     0.0000    24.0000 </r>
       <r>   -13.4421     0.0000    24.0000 </r>
       <r>   -13.2494     0.0000    24.0000 </r>
       <r>   -13.0566     1.1458    24.2209 </r>
       <r>   -12.8638    19.6017    27.9996 </r>
       <r>   -12.6710     5.1840    28.9993 </r>
       <r>   -12.4783    10.3841    31.0011 </r>
       <r>   -12.2855     5.1815    32.0000 </r>
       <r>   -12.0927     0.0000    32.0000 </r>
       <r>   -11.8999     0.0000    32.0000 </r>
       <r>   -11.7072     0.0000    32.0000 </r>
       <r>   -11.5144     0.0000    32.0000 </r>
       <r>   -11.3216     0.0000    32.0000 </r>
       <r>   -11.1289     0.0000    32.0000 </r>
       <r>   -10.9361     0.0000    32.0000 </r>
       <r>   -10.7433     0.0000    32.0000 </r>
       <r>   -10.5505     0.0000    32.0000 </r>
       <r>   -10.3578     0.0005    32.0001 </r>
       <r>   -10.1650    15.5709    35.0018 </r>
       <r>    -9.9722    23.3173    39.4994 </r>
       <r>    -9.7794    23.1987    43.9729 </r>
       <r>    -9.5867     0.1405    44.0000 </r>
       <r>    -9.3939     0.0000    44.0000 </r>
       <r>    -9.2011     0.0000    44.0000 </r>
       <r>    -9.0083     0.0000    44.0000 </r>
       <r>    -8.8156     0.0000    44.0000 </r>
       <r>    -8.6228     0.0000    44.0000 </r>
       <r>    -8.4300     1.2667    44.2442 </r>
       <r>    -8.2372    18.0228    47.7185 </r>
       <r>    -8.0445     1.4341    48.0000 </r>
       <r>    -7.8517     0.0000    48.0000 </r>
       <r>    -7.6589     0.0000    48.0000 </r>
       <r>    -7.4662     0.0000    48.0000 </r>
       <r>    -7.2734     0.0000    48.0000 </r>
       <r>    -7.0806     0.0000    48.0000 </r>
       <r>    -6.8878     0.0000    48.0000 </r>
       <r>    -6.6951     0.0000    48.0000 </r>
       <r>    -6.5023     0.0000    48.0000 </r>
       <r>    -6.3095     0.0000    48.0000 </r>
       <r>    -6.1167     2.2614    48.4359 </r>
       <r>    -5.9240     2.9261    49.0000 </r>
       <r>    -5.7312     0.8961    49.1727 </r>
       <r>    -5.5384    14.6338    51.9938 </r>
       <r>    -5.3456     0.0268    52.0000 </r>
       <r>    -5.1529     0.0000    52.0000 </r>
       <r>    -4.9601     0.0000    52.0000 </r>
       <r>    -4.7673     0.0000    52.0000 </r>
       <r>    -4.5745     0.0000    52.0000 </r>
       <r>    -4.3818     0.0000    52.0000 </r>
       <r>    -4.1890     0.0000    52.0000 </r>
       <r>    -3.9962     0.0000    52.0000 </r>
       <r>    -3.8035     0.0000    52.0000 </r>
       <r>    -3.6107     0.0000    52.0000 </r>
       <r>    -3.4179     0.0000    52.0000 </r>
       <r>    -3.2251     2.3890    52.4605 </r>
       <r>    -3.0324    13.1733    55.0000 </r>
       <r>    -2.8396     2.6878    55.5181 </r>
       <r>    -2.6468    12.1358    57.8576 </r>
       <r>    -2.4540    12.0843    60.1884 </r>
       <r>    -2.2613    17.3777    63.5385 </r>
       <r>    -2.0685     2.3888    64.0000 </r>
       <r>    -1.8757     0.0000    64.0000 </r>
       <r>    -1.6829     0.0000    64.0000 </r>
       <r>    -1.4902    10.7167    66.0659 </r>
       <r>    -1.2974    21.7776    70.2694 </r>
       <r>    -1.1046    22.5167    74.6100 </r>
       <r>    -0.9119     2.0033    75.0000 </r>
       <r>    -0.7191     5.1869    75.9999 </r>
       <r>    -0.5263     7.4704    77.4401 </r>
       <r>    -0.3335    12.3449    79.8199 </r>
       <r>    -0.1408    11.2187    81.9825 </r>
       <r>     0.0520    27.3358    87.2521 </r>
       <r>     0.2448    24.4635    91.9700 </r>
       <r>     0.4376    17.2772    95.3018 </r>
       <r>     0.6303     3.6058    96.0000 </r>
       <r>     0.8231     8.3534    97.6103 </r>
       <r>     1.0159    24.1747   102.2710 </r>
       <r>     1.2087    20.5795   106.2430 </r>
       <r>     1.4014    28.0206   111.6504 </r>
       <r>     1.5942    28.5035   117.1467 </r>
       <r>     1.7870    14.5902   119.9622 </r>
       <r>     1.9798     0.1958   120.0000 </r>
       <r>     2.1725     0.0000   120.0000 </r>
       <r>     2.3653     0.0000   120.0000 </r>
       <r>     2.5581     0.0000   120.0000 </r>
       <r>     2.7508     0.0000   120.0000 </r>
       <r>     2.9436     0.0000   120.0000 </r>
       <r>     3.1364     0.0000   120.0000 </r>
       <r>     3.3292     0.0000   120.0000 </r>
       <r>     3.5219     0.0000   120.0000 </r>
       <r>     3.7147     0.0000   120.0000 </r>
       <r>     3.9075     0.0000   120.0000 </r>
       <r>     4.1003     0.0000   120.0000 </r>
       <r>     4.2930     0.0000   120.0000 </r>
       <r>     4.4858     5.0252   120.9687 </r>
       <r>     4.6786     0.1322   121.0000 </r>
       <r>     4.8714     0.0000   121.0000 </r>
       <r>     5.0641     0.0000   121.0000 </r>
       <r>     5.2569     3.4497   121.6650 </r>
       <r>     5.4497    12.1118   123.9998 </r>
       <r>     5.6425     0.0000   124.0000 </r>
       <r>     5.8352     0.0017   124.0003 </r>
       <r>     6.0280    11.8396   126.2827 </r>
       <r>     6.2208    15.4487   129.2620 </r>
       <r>     6.4135     3.8268   130.0028 </r>
       <r>     6.6063    11.7771   132.2731 </r>
       <r>     6.7991     6.1969   133.4683 </r>
       <r>     6.9919    13.1329   136.0000 </r>
       <r>     7.1846     5.1432   136.9915 </r>
       <r>     7.3774     3.2482   137.6177 </r>
       <r>     7.5702     8.0901   139.1773 </r>
       <r>     7.7630    14.2356   141.9225 </r>
       <r>     7.9557     9.9878   143.8497 </r>
       <r>     8.1485    12.9013   146.3367 </r>
       <r>     8.3413    16.2073   149.4612 </r>
       <r>     8.5341    15.0410   152.3637 </r>
       <r>     8.7268    12.6353   154.7995 </r>
       <r>     8.9196    18.1088   158.2919 </r>
       <r>     9.1124    17.7313   161.7124 </r>
       <r>     9.3052    19.0123   165.3802 </r>
       <r>     9.4979    18.6231   168.9748 </r>
       <r>     9.6907    16.6654   172.1878 </r>
       <r>     9.8835    15.5476   175.1874 </r>
       <r>    10.0762     4.2085   176.0000 </r>
       <r>    10.2690     0.0000   176.0000 </r>
       <r>    10.4618     0.0000   176.0000 </r>
       <r>    10.6546     0.0000   176.0000 </r>
       <r>    10.8473     0.0000   176.0000 </r>
       <r>    11.0401     0.0000   176.0000 </r>
       <r>    11.2329     0.0000   176.0000 </r>
       <r>    11.4257     0.0000   176.0000 </r>
       <r>    11.6184     0.0000   176.0000 </r>
       <r>    11.8112     0.0000   176.0000 </r>
       <r>    12.0040     0.0000   176.0000 </r>
       <r>    12.1968     0.0000   176.0000 </r>
       <r>    12.3895     0.0000   176.0000 </r>
       <r>    12.5823     0.0000   176.0000 </r>
      </set>
     </set>
    </array>
   </total>
  </dos>
 </calculation>
 <structure name="finalpos" >
  <crystal>
   <varray name="basis" >
    <v>       9.66018310       0.00000000       0.00000000 </v>
    <v>       0.00000000       9.66018310       0.00000000 </v>
    <v>       0.00000000       0.00000000       9.66018310 </v>
   </varray>
   <i name="volume">    901.47995435 </i>
   <varray name="rec_basis" >
    <v>       0.10351771       0.00000000       0.00000000 </v>
    <v>       0.00000000       0.10351771       0.00000000 </v>
    <v>       0.00000000       0.00000000       0.10351771 </v>
   </varray>
  </crystal>
  <varray name="positions" >
   <v>       0.95580497       0.16169779       0.18565565 </v>
   <v>       0.98551948       0.79630583       0.78667789 </v>
   <v>       0.03153588       0.16323338       0.82298720 </v>
   <v>       0.01277774       0.79467444       0.20552631 </v>
   <v>       0.27165651       0.29605008       0.98220995 </v>
   <v>       0.20837178       0.82975670       0.01609422 </v>
   <v>       0.70646859       0.32752047       0.02706698 </v>
   <v>       0.79020469       0.83722862       0.97396935 </v>
   <v>       0.30670116       0.97181133       0.32812523 </v>
   <v>       0.31612100       0.01025752       0.70162790 </v>
   <v>       0.66048730       0.97059724       0.68628400 </v>
   <v>       0.66809725       0.05172329       0.33970245 </v>
   <v>       0.19173423       0.67052511       0.45947340 </v>
   <v>       0.31347430       0.21791941       0.52181222 </v>
   <v>       0.80557588       0.72325114       0.52190321 </v>
   <v>       0.82992943       0.29663524       0.48418919 </v>
   <v>       0.17151765       0.45798430       0.68961197 </v>
   <v>       0.27897880       0.53229358       0.17213884 </v>
   <v>       0.80936905       0.49372177       0.29752968 </v>
   <v>       0.80439642       0.52477423       0.70682754 </v>
   <v>       0.47469918       0.31207457       0.79462437 </v>
   <v>       0.47906036       0.72248661       0.20313081 </v>
   <v>       0.51288528       0.30181392       0.22458239 </v>
   <v>       0.53678715       0.66509342       0.82676583 </v>
   <v>       0.49725731       0.51309943       0.50325913 </v>
   <v>       0.50336436       0.01172900       0.00871429 </v>
   <v>       0.99548104       0.50170554       0.99882946 </v>
   <v>       0.00118512       0.00533235       0.50170868 </v>
   <v>       0.12974013       0.87117139       0.60548277 </v>
   <v>       0.11719303       0.13752198       0.38395844 </v>
   <v>       0.87050877       0.90036039       0.37029459 </v>
   <v>       0.87502503       0.10949892       0.63709445 </v>
   <v>       0.85906436       0.62826793       0.10203470 </v>
   <v>       0.88975179       0.36968978       0.87021695 </v>
   <v>       0.13356931       0.61705602       0.88559832 </v>
   <v>       0.09752689       0.37689985       0.13737925 </v>
   <v>       0.62566479       0.13332900       0.88566382 </v>
   <v>       0.62666679       0.90176198       0.14170200 </v>
   <v>       0.36593720       0.12180604       0.12747426 </v>
   <v>       0.40345410       0.87215748       0.88178591 </v>
   <v>       0.61935141       0.63797490       0.38304794 </v>
   <v>       0.62194573       0.38044286       0.61353837 </v>
   <v>       0.37287696       0.62018237       0.63740341 </v>
   <v>       0.35865430       0.40805041       0.37879010 </v>
   <v>       0.75143976       0.75320263       0.75228099 </v>
   <v>       0.74660073       0.26506620       0.25709812 </v>
   <v>       0.24539895       0.75648323       0.24106035 </v>
   <v>       0.25016176       0.23844649       0.75266373 </v>
   <v>       0.00294278       0.97290389       0.99597748 </v>
   <v>       0.97023883       0.51903563       0.50908999 </v>
   <v>       0.48006578       0.02521237       0.50604029 </v>
   <v>       0.48178939       0.47218193       0.01094460 </v>
  </varray>
 </structure>
</modeling>
