unknown system                          
           1
     9.660183    0.000000    0.000000
     0.000000    9.660183    0.000000
     0.000000    0.000000    9.660183
   Li   P    S    Cl
    24     4    20     4
Direct configuration=     1
   0.95580413  0.16171576  0.18565726
   0.98551612  0.79630258  0.78667267
   0.03154107  0.16323737  0.82298345
   0.01277307  0.79468511  0.20552523
   0.27165999  0.29604901  0.98220665
   0.20837605  0.82974408  0.01609821
   0.70647020  0.32750909  0.02706929
   0.79020097  0.83721567  0.97396808
   0.30669454  0.97180836  0.32812087
   0.31612229  0.01026018  0.70163420
   0.66050052  0.97059460  0.68628073
   0.66809942  0.05172755  0.33968968
   0.19172364  0.67054099  0.45947356
   0.31346299  0.21791842  0.52181583
   0.80556713  0.72324888  0.52190756
   0.82990404  0.29663092  0.48419113
   0.17152958  0.45797806  0.68961643
   0.27897639  0.53229252  0.17215506
   0.80937020  0.49371560  0.29752034
   0.80439818  0.52477930  0.70683641
   0.47469852  0.31205970  0.79462006
   0.47905628  0.72251470  0.20315741
   0.51288922  0.30181277  0.22458199
   0.53678864  0.66509944  0.82675482
   0.49725414  0.51309634  0.50325916
   0.50337288  0.01172539  0.00869516
   0.99549310  0.50171466  0.99882633
   0.00117748  0.00533971  0.50171442
   0.12971270  0.87120069  0.60547527
   0.11717462  0.13748948  0.38397147
   0.87052080  0.90036818  0.37032272
   0.87504656  0.10949693  0.63707264
   0.85909813  0.62825616  0.10202967
   0.88977086  0.36972170  0.87025180
   0.13353370  0.61704029  0.88560460
   0.09753842  0.37691772  0.13735672
   0.62564302  0.13330779  0.88567237
   0.62665660  0.90177123  0.14167882
   0.36597084  0.12179148  0.12744914
   0.40346162  0.87217437  0.88180405
   0.61933465  0.63794683  0.38306045
   0.62192690  0.38047646  0.61353953
   0.37288757  0.62016699  0.63736757
   0.35868654  0.40804902  0.37880878
   0.75144377  0.75320623  0.75228034
   0.74660062  0.26506716  0.25709764
   0.24539299  0.75647657  0.24105804
   0.25016791  0.23844859  0.75266577
   0.00294478  0.97289312  0.99597793
   0.97022852  0.51904026  0.50909455
   0.48006035  0.02521648  0.50603824
   0.48178721  0.47215950  0.01093884
Direct configuration=     2
   0.95580450  0.16171317  0.18565714
   0.98551658  0.79630317  0.78667340
   0.03154018  0.16323685  0.82298404
   0.01277353  0.79468358  0.20552563
   0.27165964  0.29604893  0.98220758
   0.20837535  0.82974603  0.01609761
   0.70646985  0.32751082  0.02706900
   0.79020156  0.83721728  0.97396867
   0.30669548  0.97180880  0.32812123
   0.31612186  0.01025952  0.70163318
   0.66049855  0.97059505  0.68628109
   0.66809911  0.05172644  0.33969136
   0.19172510  0.67053872  0.45947362
   0.31346448  0.21791856  0.52181502
   0.80556824  0.72324919  0.52190649
   0.82990758  0.29663178  0.48419081
   0.17152776  0.45797907  0.68961562
   0.27897702  0.53229228  0.17215292
   0.80936996  0.49371670  0.29752166
   0.80439783  0.52477833  0.70683508
   0.47469874  0.31206202  0.79462075
   0.47905706  0.72251046  0.20315371
   0.51288842  0.30181282  0.22458196
   0.53678815  0.66509853  0.82675635
   0.49725614  0.51309604  0.50325745
   0.50337010  0.01172565  0.00870383
   0.99548958  0.50171146  0.99883500
   0.00117929  0.00533576  0.50171145
   0.12972078  0.87119223  0.60547988
   0.11718181  0.13749980  0.38396511
   0.87051545  0.90036448  0.37031521
   0.87503810  0.10950186  0.63708214
   0.85909000  0.62826102  0.10203254
   0.88976314  0.36971084  0.87024045
   0.13354646  0.61704860  0.88559759
   0.09753813  0.37691271  0.13736241
   0.62565229  0.13331653  0.88566503
   0.62666121  0.90176746  0.14168505
   0.36596247  0.12179627  0.12745528
   0.40345709  0.87216676  0.88179639
   0.61934074  0.63795504  0.38305512
   0.62193390  0.38046706  0.61354296
   0.37288117  0.62017423  0.63737875
   0.35867732  0.40804569  0.37880178
   0.75144257  0.75320589  0.75228059
   0.74660087  0.26506671  0.25709770
   0.24539385  0.75647780  0.24105864
   0.25016641  0.23844807  0.75266532
   0.00294431  0.97289577  0.99597779
   0.97023110  0.51903903  0.50909362
   0.48006190  0.02521530  0.50603869
   0.48178777  0.47216383  0.01093932
Direct configuration=     3
   0.95580484  0.16171073  0.18565703
   0.98551701  0.79630374  0.78667409
   0.03153935  0.16323635  0.82298460
   0.01277397  0.79468214  0.20552600
   0.27165931  0.29604886  0.98220845
   0.20837469  0.82974787  0.01609703
   0.70646951  0.32751245  0.02706873
   0.79020213  0.83721881  0.97396924
   0.30669636  0.97180923  0.32812156
   0.31612146  0.01025890  0.70163221
   0.66049668  0.97059548  0.68628143
   0.66809881  0.05172539  0.33969294
   0.19172648  0.67053658  0.45947367
   0.31346588  0.21791869  0.52181426
   0.80556929  0.72324948  0.52190548
   0.82991093  0.29663260  0.48419050
   0.17152604  0.45798003  0.68961486
   0.27897761  0.53229207  0.17215089
   0.80936973  0.49371774  0.29752291
   0.80439750  0.52477741  0.70683382
   0.47469894  0.31206422  0.79462139
   0.47905779  0.72250645  0.20315020
   0.51288766  0.30181287  0.22458192
   0.53678769  0.66509766  0.82675779
   0.49725803  0.51309576  0.50325583
   0.50336748  0.01172589  0.00871203
   0.99548625  0.50170844  0.99884320
   0.00118100  0.00533203  0.50170864
   0.12972842  0.87118423  0.60548423
   0.11718860  0.13750956  0.38395910
   0.87051040  0.90036098  0.37030811
   0.87503011  0.10950653  0.63709112
   0.85908231  0.62826562  0.10203525
   0.88975585  0.36970057  0.87022971
   0.13355853  0.61705646  0.88559096
   0.09753785  0.37690797  0.13736779
   0.62566105  0.13332479  0.88565808
   0.62666556  0.90176389  0.14169093
   0.36595456  0.12180080  0.12746109
   0.40345280  0.87215956  0.88178916
   0.61934650  0.63796279  0.38305009
   0.62194052  0.38045817  0.61354621
   0.37287512  0.62018108  0.63738933
   0.35866860  0.40804254  0.37879515
   0.75144143  0.75320556  0.75228083
   0.74660111  0.26506629  0.25709776
   0.24539466  0.75647896  0.24105922
   0.25016499  0.23844758  0.75266489
   0.00294386  0.97289827  0.99597765
   0.97023353  0.51903787  0.50909273
   0.48006335  0.02521418  0.50603911
   0.48178829  0.47216792  0.01093978
Direct configuration=     4
   0.95580495  0.16170992  0.18565699
   0.98551716  0.79630392  0.78667431
   0.03153907  0.16323619  0.82298479
   0.01277411  0.79468166  0.20552613
   0.27165920  0.29604883  0.98220874
   0.20837448  0.82974847  0.01609685
   0.70646940  0.32751298  0.02706864
   0.79020231  0.83721931  0.97396942
   0.30669665  0.97180937  0.32812167
   0.31612133  0.01025869  0.70163189
   0.66049607  0.97059562  0.68628154
   0.66809872  0.05172505  0.33969346
   0.19172693  0.67053587  0.45947369
   0.31346634  0.21791873  0.52181401
   0.80556964  0.72324957  0.52190515
   0.82991203  0.29663286  0.48419039
   0.17152548  0.45798035  0.68961461
   0.27897781  0.53229199  0.17215023
   0.80936965  0.49371808  0.29752332
   0.80439740  0.52477711  0.70683340
   0.47469901  0.31206494  0.79462160
   0.47905803  0.72250514  0.20314905
   0.51288741  0.30181288  0.22458191
   0.53678754  0.66509738  0.82675826
   0.49725865  0.51309567  0.50325530
   0.50336662  0.01172597  0.00871472
   0.99548516  0.50170745  0.99884589
   0.00118156  0.00533080  0.50170772
   0.12973093  0.87118161  0.60548566
   0.11719083  0.13751276  0.38395713
   0.87050874  0.90035983  0.37030578
   0.87502749  0.10950806  0.63709406
   0.85907979  0.62826712  0.10203614
   0.88975345  0.36969720  0.87022619
   0.13356249  0.61705904  0.88558878
   0.09753775  0.37690642  0.13736955
   0.62566393  0.13332750  0.88565580
   0.62666699  0.90176272  0.14169287
   0.36595196  0.12180229  0.12746300
   0.40345139  0.87215720  0.88178678
   0.61934839  0.63796534  0.38304844
   0.62194269  0.38045525  0.61354727
   0.37287314  0.62018332  0.63739280
   0.35866574  0.40804151  0.37879298
   0.75144106  0.75320545  0.75228091
   0.74660119  0.26506615  0.25709778
   0.24539492  0.75647934  0.24105940
   0.25016452  0.23844742  0.75266475
   0.00294372  0.97289910  0.99597760
   0.97023433  0.51903748  0.50909244
   0.48006383  0.02521382  0.50603925
   0.48178847  0.47216926  0.01093993
Direct configuration=     5
   0.95580504  0.16170933  0.18565696
   0.98551726  0.79630406  0.78667448
   0.03153887  0.16323607  0.82298492
   0.01277422  0.79468131  0.20552622
   0.27165913  0.29604881  0.98220895
   0.20837432  0.82974891  0.01609671
   0.70646932  0.32751338  0.02706857
   0.79020245  0.83721968  0.97396956
   0.30669687  0.97180947  0.32812176
   0.31612123  0.01025854  0.70163165
   0.66049562  0.97059572  0.68628162
   0.66809865  0.05172479  0.33969385
   0.19172727  0.67053535  0.45947370
   0.31346668  0.21791876  0.52181383
   0.80556989  0.72324964  0.52190491
   0.82991284  0.29663306  0.48419032
   0.17152506  0.45798058  0.68961443
   0.27897795  0.53229194  0.17214974
   0.80936959  0.49371833  0.29752363
   0.80439732  0.52477689  0.70683310
   0.47469906  0.31206547  0.79462176
   0.47905821  0.72250417  0.20314820
   0.51288722  0.30181289  0.22458190
   0.53678743  0.66509717  0.82675861
   0.49725910  0.51309560  0.50325490
   0.50336598  0.01172602  0.00871670
   0.99548436  0.50170672  0.99884787
   0.00118197  0.00532990  0.50170704
   0.12973277  0.87117967  0.60548671
   0.11719247  0.13751512  0.38395568
   0.87050752  0.90035899  0.37030406
   0.87502555  0.10950919  0.63709623
   0.85907793  0.62826823  0.10203679
   0.88975169  0.36969472  0.87022360
   0.13356541  0.61706094  0.88558718
   0.09753769  0.37690528  0.13737085
   0.62566605  0.13332950  0.88565412
   0.62666804  0.90176186  0.14169429
   0.36595005  0.12180338  0.12746440
   0.40345036  0.87215546  0.88178503
   0.61934978  0.63796721  0.38304722
   0.62194429  0.38045310  0.61354806
   0.37287168  0.62018498  0.63739536
   0.35866364  0.40804075  0.37879138
   0.75144079  0.75320537  0.75228096
   0.74660125  0.26506605  0.25709779
   0.24539512  0.75647962  0.24105954
   0.25016418  0.23844730  0.75266465
   0.00294361  0.97289970  0.99597757
   0.97023492  0.51903720  0.50909223
   0.48006418  0.02521355  0.50603935
   0.48178859  0.47217025  0.01094004
Direct configuration=     6
   0.95580506  0.16170551  0.18565647
   0.98551809  0.79630460  0.78667568
   0.03153772  0.16323528  0.82298565
   0.01277551  0.79467925  0.20552627
   0.27165849  0.29604932  0.98220896
   0.20837342  0.82975131  0.01609552
   0.70646903  0.32751559  0.02706767
   0.79020332  0.83722273  0.97396926
   0.30669828  0.97181011  0.32812293
   0.31612119  0.01025818  0.70163043
   0.66049291  0.97059644  0.68628245
   0.66809816  0.05172421  0.33969677
   0.19172952  0.67053206  0.45947385
   0.31346916  0.21791892  0.52181333
   0.80557186  0.72325006  0.52190440
   0.82991819  0.29663386  0.48419013
   0.17152260  0.45798207  0.68961371
   0.27897859  0.53229262  0.17214617
   0.80936940  0.49371953  0.29752577
   0.80439716  0.52477598  0.70683137
   0.47469921  0.31206847  0.79462271
   0.47905880  0.72249839  0.20314257
   0.51288668  0.30181329  0.22458193
   0.53678712  0.66509595  0.82676088
   0.49725774  0.51309727  0.50325765
   0.50336634  0.01172711  0.00871293
   0.99548415  0.50170691  0.99883758
   0.00118203  0.00533004  0.50170869
   0.12973613  0.87117607  0.60548598
   0.11719366  0.13751865  0.38395544
   0.87050686  0.90035870  0.37029981
   0.87502518  0.10950594  0.63709578
   0.85907153  0.62826973  0.10203774
   0.88975160  0.36969279  0.87022151
   0.13356636  0.61705899  0.88559149
   0.09753523  0.37690152  0.13737602
   0.62566558  0.13332906  0.88565760
   0.62666892  0.90176094  0.14169825
   0.36594389  0.12180560  0.12746942
   0.40345154  0.87215590  0.88178523
   0.61935148  0.63797096  0.38304628
   0.62194561  0.38044886  0.61354534
   0.37287333  0.62018430  0.63739812
   0.35865946  0.40804312  0.37878990
   0.75144030  0.75320447  0.75228100
   0.74660114  0.26506609  0.25709790
   0.24539639  0.75648098  0.24105998
   0.25016324  0.23844692  0.75266430
   0.00294329  0.97290131  0.99597759
   0.97023632  0.51903661  0.50909136
   0.48006481  0.02521311  0.50603960
   0.48178886  0.47217430  0.01094160
Direct configuration=     7
   0.95580506  0.16170448  0.18565634
   0.98551831  0.79630474  0.78667601
   0.03153741  0.16323507  0.82298584
   0.01277585  0.79467870  0.20552628
   0.27165832  0.29604946  0.98220896
   0.20837318  0.82975196  0.01609520
   0.70646895  0.32751619  0.02706742
   0.79020355  0.83722355  0.97396918
   0.30669867  0.97181028  0.32812325
   0.31612118  0.01025808  0.70163010
   0.66049217  0.97059663  0.68628267
   0.66809803  0.05172406  0.33969755
   0.19173013  0.67053117  0.45947389
   0.31346983  0.21791896  0.52181320
   0.80557240  0.72325018  0.52190426
   0.82991964  0.29663408  0.48419008
   0.17152193  0.45798247  0.68961352
   0.27897877  0.53229280  0.17214521
   0.80936935  0.49371985  0.29752635
   0.80439712  0.52477573  0.70683090
   0.47469925  0.31206928  0.79462296
   0.47905896  0.72249682  0.20314105
   0.51288654  0.30181340  0.22458194
   0.53678704  0.66509561  0.82676149
   0.49725738  0.51309773  0.50325839
   0.50336643  0.01172741  0.00871191
   0.99548409  0.50170697  0.99883480
   0.00118204  0.00533007  0.50170913
   0.12973704  0.87117509  0.60548578
   0.11719398  0.13751961  0.38395538
   0.87050668  0.90035863  0.37029866
   0.87502508  0.10950506  0.63709566
   0.85906979  0.62827013  0.10203799
   0.88975158  0.36969227  0.87022095
   0.13356661  0.61705846  0.88559265
   0.09753457  0.37690050  0.13737742
   0.62566546  0.13332895  0.88565854
   0.62666916  0.90176069  0.14169933
   0.36594222  0.12180621  0.12747078
   0.40345186  0.87215601  0.88178528
   0.61935194  0.63797198  0.38304603
   0.62194597  0.38044772  0.61354460
   0.37287378  0.62018412  0.63739887
   0.35865833  0.40804376  0.37878951
   0.75144017  0.75320423  0.75228101
   0.74660110  0.26506610  0.25709793
   0.24539674  0.75648135  0.24106010
   0.25016299  0.23844682  0.75266421
   0.00294320  0.97290175  0.99597759
   0.97023669  0.51903645  0.50909112
   0.48006498  0.02521299  0.50603967
   0.48178894  0.47217539  0.01094203
Direct configuration=     8
   0.95580508  0.16170241  0.18565607
   0.98551876  0.79630504  0.78667666
   0.03153679  0.16323464  0.82298623
   0.01277655  0.79467758  0.20552631
   0.27165797  0.29604974  0.98220896
   0.20837270  0.82975326  0.01609456
   0.70646879  0.32751739  0.02706693
   0.79020403  0.83722520  0.97396901
   0.30669944  0.97181062  0.32812389
   0.31612115  0.01025789  0.70162944
   0.66049071  0.97059702  0.68628311
   0.66809776  0.05172374  0.33969913
   0.19173135  0.67052939  0.45947396
   0.31347118  0.21791904  0.52181293
   0.80557346  0.72325041  0.52190398
   0.82992254  0.29663451  0.48418998
   0.17152060  0.45798327  0.68961313
   0.27897912  0.53229317  0.17214328
   0.80936924  0.49372050  0.29752752
   0.80439704  0.52477524  0.70682996
   0.47469933  0.31207091  0.79462348
   0.47905927  0.72249369  0.20313800
   0.51288625  0.30181361  0.22458195
   0.53678688  0.66509495  0.82676272
   0.49725664  0.51309863  0.50325988
   0.50336663  0.01172800  0.00870987
   0.99548398  0.50170707  0.99882924
   0.00118207  0.00533014  0.50171003
   0.12973887  0.87117314  0.60548538
   0.11719462  0.13752152  0.38395526
   0.87050632  0.90035847  0.37029636
   0.87502488  0.10950330  0.63709542
   0.85906632  0.62827094  0.10203850
   0.88975153  0.36969123  0.87021982
   0.13356713  0.61705740  0.88559498
   0.09753324  0.37689847  0.13738022
   0.62566521  0.13332871  0.88566042
   0.62666964  0.90176019  0.14170147
   0.36593888  0.12180741  0.12747350
   0.40345249  0.87215625  0.88178539
   0.61935286  0.63797401  0.38304552
   0.62194668  0.38044542  0.61354313
   0.37287467  0.62018376  0.63740037
   0.35865607  0.40804505  0.37878871
   0.75143991  0.75320374  0.75228103
   0.74660104  0.26506612  0.25709798
   0.24539743  0.75648208  0.24106034
   0.25016248  0.23844662  0.75266402
   0.00294303  0.97290262  0.99597760
   0.97023745  0.51903613  0.50909065
   0.48006533  0.02521276  0.50603981
   0.48178908  0.47217758  0.01094288
Direct configuration=     9
   0.95580497  0.16169779  0.18565565
   0.98551948  0.79630583  0.78667789
   0.03153588  0.16323338  0.82298720
   0.01277774  0.79467444  0.20552631
   0.27165651  0.29605008  0.98220995
   0.20837178  0.82975670  0.01609422
   0.70646859  0.32752047  0.02706698
   0.79020469  0.83722862  0.97396935
   0.30670116  0.97181133  0.32812523
   0.31612100  0.01025752  0.70162790
   0.66048730  0.97059724  0.68628400
   0.66809725  0.05172329  0.33970245
   0.19173423  0.67052511  0.45947340
   0.31347430  0.21791941  0.52181222
   0.80557588  0.72325114  0.52190321
   0.82992943  0.29663524  0.48418919
   0.17151765  0.45798430  0.68961197
   0.27897880  0.53229358  0.17213884
   0.80936905  0.49372177  0.29752968
   0.80439642  0.52477423  0.70682754
   0.47469918  0.31207457  0.79462437
   0.47906036  0.72248661  0.20313081
   0.51288528  0.30181392  0.22458239
   0.53678715  0.66509342  0.82676583
   0.49725731  0.51309943  0.50325913
   0.50336436  0.01172900  0.00871429
   0.99548104  0.50170554  0.99882946
   0.00118512  0.00533235  0.50170868
   0.12974013  0.87117139  0.60548277
   0.11719303  0.13752198  0.38395844
   0.87050877  0.90036039  0.37029459
   0.87502503  0.10949892  0.63709445
   0.85906436  0.62826793  0.10203470
   0.88975179  0.36968978  0.87021695
   0.13356931  0.61705602  0.88559832
   0.09752689  0.37689985  0.13737925
   0.62566479  0.13332900  0.88566382
   0.62666679  0.90176198  0.14170200
   0.36593720  0.12180604  0.12747426
   0.40345410  0.87215748  0.88178591
   0.61935141  0.63797490  0.38304794
   0.62194573  0.38044286  0.61353837
   0.37287696  0.62018237  0.63740341
   0.35865430  0.40805041  0.37879010
   0.75143976  0.75320263  0.75228099
   0.74660073  0.26506620  0.25709812
   0.24539895  0.75648323  0.24106035
   0.25016176  0.23844649  0.75266373
   0.00294278  0.97290389  0.99597748
   0.97023883  0.51903563  0.50908999
   0.48006578  0.02521237  0.50604029
   0.48178939  0.47218193  0.01094460
