  52  52   0  16
  0.1730005E+02  0.9653473E-09  0.9653473E-09  0.9653473E-09  0.2000000E-15
  1.000000000000000E-004
  CAR 
 unknown system                          
     12.80140758    -45.17730372  301      2.02703040      1.00000000
    -45.177  0.0000E+00  0.0000E+00  0.0000E+00  0.0000E+00
    -44.984  0.0000E+00  0.0000E+00  0.0000E+00  0.0000E+00
    -44.791  0.0000E+00  0.0000E+00  0.0000E+00  0.0000E+00
    -44.598  0.0000E+00  0.0000E+00  0.0000E+00  0.0000E+00
    -44.404  0.0000E+00  0.0000E+00  0.0000E+00  0.0000E+00
    -44.211  0.0000E+00  0.0000E+00  0.0000E+00  0.0000E+00
    -44.018  0.0000E+00  0.0000E+00  0.0000E+00  0.0000E+00
    -43.824  0.0000E+00  0.0000E+00  0.0000E+00  0.0000E+00
    -43.631  0.0000E+00  0.0000E+00  0.0000E+00  0.0000E+00
    -43.438  0.0000E+00  0.0000E+00  0.0000E+00  0.0000E+00
    -43.245  0.0000E+00  0.0000E+00  0.0000E+00  0.0000E+00
    -43.051  0.0000E+00  0.0000E+00  0.0000E+00  0.0000E+00
    -42.858  0.0000E+00  0.0000E+00  0.0000E+00  0.0000E+00
    -42.665  0.1739E-10  0.1740E-10  0.3362E-11  0.3364E-11
    -42.472  0.5968E-02  0.5968E-02  0.1153E-02  0.1153E-02
    -42.278  0.1027E+00  0.1027E+00  0.2099E-01  0.2099E-01
    -42.085  0.1546E-01  0.1546E-01  0.2400E-01  0.2400E-01
    -41.892  0.0000E+00  0.0000E+00  0.2400E-01  0.2400E-01
    -41.699  0.0000E+00  0.0000E+00  0.2400E-01  0.2400E-01
    -41.505  0.0000E+00  0.0000E+00  0.2400E-01  0.2400E-01
    -41.312  0.0000E+00  0.0000E+00  0.2400E-01  0.2400E-01
    -41.119  0.0000E+00  0.0000E+00  0.2400E-01  0.2400E-01
    -40.926  0.0000E+00  0.0000E+00  0.2400E-01  0.2400E-01
    -40.732  0.0000E+00  0.0000E+00  0.2400E-01  0.2400E-01
    -40.539  0.0000E+00  0.0000E+00  0.2400E-01  0.2400E-01
    -40.346  0.0000E+00  0.0000E+00  0.2400E-01  0.2400E-01
    -40.152  0.0000E+00  0.0000E+00  0.2400E-01  0.2400E-01
    -39.959  0.0000E+00  0.0000E+00  0.2400E-01  0.2400E-01
    -39.766  0.0000E+00  0.0000E+00  0.2400E-01  0.2400E-01
    -39.573  0.0000E+00  0.0000E+00  0.2400E-01  0.2400E-01
    -39.379  0.0000E+00  0.0000E+00  0.2400E-01  0.2400E-01
    -39.186  0.0000E+00  0.0000E+00  0.2400E-01  0.2400E-01
    -38.993  0.0000E+00  0.0000E+00  0.2400E-01  0.2400E-01
    -38.800  0.0000E+00  0.0000E+00  0.2400E-01  0.2400E-01
    -38.606  0.0000E+00  0.0000E+00  0.2400E-01  0.2400E-01
    -38.413  0.0000E+00  0.0000E+00  0.2400E-01  0.2400E-01
    -38.220  0.0000E+00  0.0000E+00  0.2400E-01  0.2400E-01
    -38.027  0.0000E+00  0.0000E+00  0.2400E-01  0.2400E-01
    -37.833  0.0000E+00  0.0000E+00  0.2400E-01  0.2400E-01
    -37.640  0.0000E+00  0.0000E+00  0.2400E-01  0.2400E-01
    -37.447  0.0000E+00  0.0000E+00  0.2400E-01  0.2400E-01
    -37.254  0.0000E+00  0.0000E+00  0.2400E-01  0.2400E-01
    -37.060  0.0000E+00  0.0000E+00  0.2400E-01  0.2400E-01
    -36.867  0.0000E+00  0.0000E+00  0.2400E-01  0.2400E-01
    -36.674  0.0000E+00  0.0000E+00  0.2400E-01  0.2400E-01
    -36.480  0.0000E+00  0.0000E+00  0.2400E-01  0.2400E-01
    -36.287  0.0000E+00  0.0000E+00  0.2400E-01  0.2400E-01
    -36.094  0.0000E+00  0.0000E+00  0.2400E-01  0.2400E-01
    -35.901  0.0000E+00  0.0000E+00  0.2400E-01  0.2400E-01
    -35.707  0.0000E+00  0.0000E+00  0.2400E-01  0.2400E-01
    -35.514  0.0000E+00  0.0000E+00  0.2400E-01  0.2400E-01
    -35.321  0.0000E+00  0.0000E+00  0.2400E-01  0.2400E-01
    -35.128  0.0000E+00  0.0000E+00  0.2400E-01  0.2400E-01
    -34.934  0.0000E+00  0.0000E+00  0.2400E-01  0.2400E-01
    -34.741  0.0000E+00  0.0000E+00  0.2400E-01  0.2400E-01
    -34.548  0.0000E+00  0.0000E+00  0.2400E-01  0.2400E-01
    -34.355  0.0000E+00  0.0000E+00  0.2400E-01  0.2400E-01
    -34.161  0.0000E+00  0.0000E+00  0.2400E-01  0.2400E-01
    -33.968  0.0000E+00  0.0000E+00  0.2400E-01  0.2400E-01
    -33.775  0.0000E+00  0.0000E+00  0.2400E-01  0.2400E-01
    -33.582  0.0000E+00  0.0000E+00  0.2400E-01  0.2400E-01
    -33.388  0.0000E+00  0.0000E+00  0.2400E-01  0.2400E-01
    -33.195  0.0000E+00  0.0000E+00  0.2400E-01  0.2400E-01
    -33.002  0.0000E+00  0.0000E+00  0.2400E-01  0.2400E-01
    -32.809  0.0000E+00  0.0000E+00  0.2400E-01  0.2400E-01
    -32.615  0.0000E+00  0.0000E+00  0.2400E-01  0.2400E-01
    -32.422  0.0000E+00  0.0000E+00  0.2400E-01  0.2400E-01
    -32.229  0.0000E+00  0.0000E+00  0.2400E-01  0.2400E-01
    -32.035  0.0000E+00  0.0000E+00  0.2400E-01  0.2400E-01
    -31.842  0.0000E+00  0.0000E+00  0.2400E-01  0.2400E-01
    -31.649  0.0000E+00  0.0000E+00  0.2400E-01  0.2400E-01
    -31.456  0.0000E+00  0.0000E+00  0.2400E-01  0.2400E-01
    -31.262  0.0000E+00  0.0000E+00  0.2400E-01  0.2400E-01
    -31.069  0.0000E+00  0.0000E+00  0.2400E-01  0.2400E-01
    -30.876  0.0000E+00  0.0000E+00  0.2400E-01  0.2400E-01
    -30.683  0.0000E+00  0.0000E+00  0.2400E-01  0.2400E-01
    -30.489  0.0000E+00  0.0000E+00  0.2400E-01  0.2400E-01
    -30.296  0.0000E+00  0.0000E+00  0.2400E-01  0.2400E-01
    -30.103  0.0000E+00  0.0000E+00  0.2400E-01  0.2400E-01
    -29.910  0.0000E+00  0.0000E+00  0.2400E-01  0.2400E-01
    -29.716  0.0000E+00  0.0000E+00  0.2400E-01  0.2400E-01
    -29.523  0.0000E+00  0.0000E+00  0.2400E-01  0.2400E-01
    -29.330  0.0000E+00  0.0000E+00  0.2400E-01  0.2400E-01
    -29.137  0.0000E+00  0.0000E+00  0.2400E-01  0.2400E-01
    -28.943  0.0000E+00  0.0000E+00  0.2400E-01  0.2400E-01
    -28.750  0.0000E+00  0.0000E+00  0.2400E-01  0.2400E-01
    -28.557  0.0000E+00  0.0000E+00  0.2400E-01  0.2400E-01
    -28.363  0.0000E+00  0.0000E+00  0.2400E-01  0.2400E-01
    -28.170  0.0000E+00  0.0000E+00  0.2400E-01  0.2400E-01
    -27.977  0.0000E+00  0.0000E+00  0.2400E-01  0.2400E-01
    -27.784  0.0000E+00  0.0000E+00  0.2400E-01  0.2400E-01
    -27.590  0.0000E+00  0.0000E+00  0.2400E-01  0.2400E-01
    -27.397  0.0000E+00  0.0000E+00  0.2400E-01  0.2400E-01
    -27.204  0.0000E+00  0.0000E+00  0.2400E-01  0.2400E-01
    -27.011  0.0000E+00  0.0000E+00  0.2400E-01  0.2400E-01
    -26.817  0.0000E+00  0.0000E+00  0.2400E-01  0.2400E-01
    -26.624  0.0000E+00  0.0000E+00  0.2400E-01  0.2400E-01
    -26.431  0.0000E+00  0.0000E+00  0.2400E-01  0.2400E-01
    -26.238  0.0000E+00  0.0000E+00  0.2400E-01  0.2400E-01
    -26.044  0.0000E+00  0.0000E+00  0.2400E-01  0.2400E-01
    -25.851  0.0000E+00  0.0000E+00  0.2400E-01  0.2400E-01
    -25.658  0.0000E+00  0.0000E+00  0.2400E-01  0.2400E-01
    -25.465  0.0000E+00  0.0000E+00  0.2400E-01  0.2400E-01
    -25.271  0.0000E+00  0.0000E+00  0.2400E-01  0.2400E-01
    -25.078  0.0000E+00  0.0000E+00  0.2400E-01  0.2400E-01
    -24.885  0.0000E+00  0.0000E+00  0.2400E-01  0.2400E-01
    -24.691  0.0000E+00  0.0000E+00  0.2400E-01  0.2400E-01
    -24.498  0.0000E+00  0.0000E+00  0.2400E-01  0.2400E-01
    -24.305  0.0000E+00  0.0000E+00  0.2400E-01  0.2400E-01
    -24.112  0.0000E+00  0.0000E+00  0.2400E-01  0.2400E-01
    -23.918  0.0000E+00  0.0000E+00  0.2400E-01  0.2400E-01
    -23.725  0.0000E+00  0.0000E+00  0.2400E-01  0.2400E-01
    -23.532  0.0000E+00  0.0000E+00  0.2400E-01  0.2400E-01
    -23.339  0.0000E+00  0.0000E+00  0.2400E-01  0.2400E-01
    -23.145  0.0000E+00  0.0000E+00  0.2400E-01  0.2400E-01
    -22.952  0.0000E+00  0.0000E+00  0.2400E-01  0.2400E-01
    -22.759  0.0000E+00  0.0000E+00  0.2400E-01  0.2400E-01
    -22.566  0.0000E+00  0.0000E+00  0.2400E-01  0.2400E-01
    -22.372  0.0000E+00  0.0000E+00  0.2400E-01  0.2400E-01
    -22.179  0.0000E+00  0.0000E+00  0.2400E-01  0.2400E-01
    -21.986  0.0000E+00  0.0000E+00  0.2400E-01  0.2400E-01
    -21.793  0.0000E+00  0.0000E+00  0.2400E-01  0.2400E-01
    -21.599  0.0000E+00  0.0000E+00  0.2400E-01  0.2400E-01
    -21.406  0.0000E+00  0.0000E+00  0.2400E-01  0.2400E-01
    -21.213  0.0000E+00  0.0000E+00  0.2400E-01  0.2400E-01
    -21.020  0.0000E+00  0.0000E+00  0.2400E-01  0.2400E-01
    -20.826  0.0000E+00  0.0000E+00  0.2400E-01  0.2400E-01
    -20.633  0.0000E+00  0.0000E+00  0.2400E-01  0.2400E-01
    -20.440  0.0000E+00  0.0000E+00  0.2400E-01  0.2400E-01
    -20.246  0.0000E+00  0.0000E+00  0.2400E-01  0.2400E-01
    -20.053  0.0000E+00  0.0000E+00  0.2400E-01  0.2400E-01
    -19.860  0.0000E+00  0.0000E+00  0.2400E-01  0.2400E-01
    -19.667  0.0000E+00  0.0000E+00  0.2400E-01  0.2400E-01
    -19.473  0.0000E+00  0.0000E+00  0.2400E-01  0.2400E-01
    -19.280  0.0000E+00  0.0000E+00  0.2400E-01  0.2400E-01
    -19.087  0.0000E+00  0.0000E+00  0.2400E-01  0.2400E-01
    -18.894  0.0000E+00  0.0000E+00  0.2400E-01  0.2400E-01
    -18.700  0.0000E+00  0.0000E+00  0.2400E-01  0.2400E-01
    -18.507  0.0000E+00  0.0000E+00  0.2400E-01  0.2400E-01
    -18.314  0.0000E+00  0.0000E+00  0.2400E-01  0.2400E-01
    -18.121  0.0000E+00  0.0000E+00  0.2400E-01  0.2400E-01
    -17.927  0.0000E+00  0.0000E+00  0.2400E-01  0.2400E-01
    -17.734  0.0000E+00  0.0000E+00  0.2400E-01  0.2400E-01
    -17.541  0.0000E+00  0.0000E+00  0.2400E-01  0.2400E-01
    -17.348  0.0000E+00  0.0000E+00  0.2400E-01  0.2400E-01
    -17.154  0.0000E+00  0.0000E+00  0.2400E-01  0.2400E-01
    -16.961  0.0000E+00  0.0000E+00  0.2400E-01  0.2400E-01
    -16.768  0.0000E+00  0.0000E+00  0.2400E-01  0.2400E-01
    -16.574  0.0000E+00  0.0000E+00  0.2400E-01  0.2400E-01
    -16.381  0.0000E+00  0.0000E+00  0.2400E-01  0.2400E-01
    -16.188  0.0000E+00  0.0000E+00  0.2400E-01  0.2400E-01
    -15.995  0.0000E+00  0.0000E+00  0.2400E-01  0.2400E-01
    -15.801  0.0000E+00  0.0000E+00  0.2400E-01  0.2400E-01
    -15.608  0.0000E+00  0.0000E+00  0.2400E-01  0.2400E-01
    -15.415  0.0000E+00  0.0000E+00  0.2400E-01  0.2400E-01
    -15.222  0.0000E+00  0.0000E+00  0.2400E-01  0.2400E-01
    -15.028  0.0000E+00  0.0000E+00  0.2400E-01  0.2400E-01
    -14.835  0.0000E+00  0.0000E+00  0.2400E-01  0.2400E-01
    -14.642  0.0000E+00  0.0000E+00  0.2400E-01  0.2400E-01
    -14.449  0.0000E+00  0.0000E+00  0.2400E-01  0.2400E-01
    -14.255  0.0000E+00  0.0000E+00  0.2400E-01  0.2400E-01
    -14.062  0.0000E+00  0.0000E+00  0.2400E-01  0.2400E-01
    -13.869  0.0000E+00  0.0000E+00  0.2400E-01  0.2400E-01
    -13.676  0.0000E+00  0.0000E+00  0.2400E-01  0.2400E-01
    -13.482  0.0000E+00  0.0000E+00  0.2400E-01  0.2400E-01
    -13.289  0.0000E+00  0.0000E+00  0.2400E-01  0.2400E-01
    -13.096  0.9935E-07  0.9943E-07  0.2400E-01  0.2400E-01
    -12.902  0.2061E-01  0.2061E-01  0.2798E-01  0.2798E-01
    -12.709  0.2052E-04  0.2052E-04  0.2800E-01  0.2800E-01
    -12.516  0.2070E-01  0.2070E-01  0.3200E-01  0.3200E-01
    -12.323  0.0000E+00  0.0000E+00  0.3200E-01  0.3200E-01
    -12.129  0.0000E+00  0.0000E+00  0.3200E-01  0.3200E-01
    -11.936  0.0000E+00  0.0000E+00  0.3200E-01  0.3200E-01
    -11.743  0.0000E+00  0.0000E+00  0.3200E-01  0.3200E-01
    -11.550  0.0000E+00  0.0000E+00  0.3200E-01  0.3200E-01
    -11.356  0.0000E+00  0.0000E+00  0.3200E-01  0.3200E-01
    -11.163  0.0000E+00  0.0000E+00  0.3200E-01  0.3200E-01
    -10.970  0.0000E+00  0.0000E+00  0.3200E-01  0.3200E-01
    -10.777  0.0000E+00  0.0000E+00  0.3200E-01  0.3200E-01
    -10.583  0.0000E+00  0.0000E+00  0.3200E-01  0.3200E-01
    -10.390  0.1096E-12  0.1097E-12  0.3200E-01  0.3200E-01
    -10.197  0.1342E-01  0.1342E-01  0.3459E-01  0.3459E-01
    -10.004  0.1627E-01  0.1627E-01  0.3774E-01  0.3774E-01
     -9.810  0.3153E-01  0.3153E-01  0.4384E-01  0.4384E-01
     -9.617  0.8308E-03  0.8306E-03  0.4400E-01  0.4400E-01
     -9.424  0.0000E+00  0.0000E+00  0.4400E-01  0.4400E-01
     -9.231  0.0000E+00  0.0000E+00  0.4400E-01  0.4400E-01
     -9.037  0.0000E+00  0.0000E+00  0.4400E-01  0.4400E-01
     -8.844  0.0000E+00  0.0000E+00  0.4400E-01  0.4400E-01
     -8.651  0.0000E+00  0.0000E+00  0.4400E-01  0.4400E-01
     -8.457  0.5805E-14  0.5807E-14  0.4400E-01  0.4400E-01
     -8.264  0.1298E-01  0.1298E-01  0.4651E-01  0.4651E-01
     -8.071  0.7719E-02  0.7719E-02  0.4800E-01  0.4800E-01
     -7.878  0.0000E+00  0.0000E+00  0.4800E-01  0.4800E-01
     -7.684  0.0000E+00  0.0000E+00  0.4800E-01  0.4800E-01
     -7.491  0.0000E+00  0.0000E+00  0.4800E-01  0.4800E-01
     -7.298  0.0000E+00  0.0000E+00  0.4800E-01  0.4800E-01
     -7.105  0.0000E+00  0.0000E+00  0.4800E-01  0.4800E-01
     -6.911  0.0000E+00  0.0000E+00  0.4800E-01  0.4800E-01
     -6.718  0.0000E+00  0.0000E+00  0.4800E-01  0.4800E-01
     -6.525  0.0000E+00  0.0000E+00  0.4800E-01  0.4800E-01
     -6.332  0.0000E+00  0.0000E+00  0.4800E-01  0.4800E-01
     -6.138  0.1479E-03  0.1480E-03  0.4803E-01  0.4803E-01
     -5.945  0.5026E-02  0.5026E-02  0.4900E-01  0.4900E-01
     -5.752  0.5147E-04  0.5149E-04  0.4901E-01  0.4901E-01
     -5.559  0.1367E-01  0.1367E-01  0.5165E-01  0.5165E-01
     -5.365  0.1803E-02  0.1803E-02  0.5200E-01  0.5200E-01
     -5.172  0.0000E+00  0.0000E+00  0.5200E-01  0.5200E-01
     -4.979  0.0000E+00  0.0000E+00  0.5200E-01  0.5200E-01
     -4.785  0.0000E+00  0.0000E+00  0.5200E-01  0.5200E-01
     -4.592  0.0000E+00  0.0000E+00  0.5200E-01  0.5200E-01
     -4.399  0.0000E+00  0.0000E+00  0.5200E-01  0.5200E-01
     -4.206  0.0000E+00  0.0000E+00  0.5200E-01  0.5200E-01
     -4.012  0.0000E+00  0.0000E+00  0.5200E-01  0.5200E-01
     -3.819  0.0000E+00  0.0000E+00  0.5200E-01  0.5200E-01
     -3.626  0.0000E+00  0.0000E+00  0.5200E-01  0.5200E-01
     -3.433  0.0000E+00  0.0000E+00  0.5200E-01  0.5200E-01
     -3.239  0.2414E-03  0.2415E-03  0.5205E-01  0.5205E-01
     -3.046  0.1528E-01  0.1528E-01  0.5500E-01  0.5500E-01
     -2.853  0.1845E-02  0.1845E-02  0.5536E-01  0.5536E-01
     -2.660  0.1021E-01  0.1021E-01  0.5733E-01  0.5733E-01
     -2.466  0.1153E-01  0.1153E-01  0.5956E-01  0.5956E-01
     -2.273  0.1639E-01  0.1639E-01  0.6273E-01  0.6273E-01
     -2.080  0.6568E-02  0.6567E-02  0.6400E-01  0.6400E-01
     -1.887  0.0000E+00  0.0000E+00  0.6400E-01  0.6400E-01
     -1.693  0.0000E+00  0.0000E+00  0.6400E-01  0.6400E-01
     -1.500  0.7046E-03  0.7049E-03  0.6414E-01  0.6414E-01
     -1.307  0.3530E-01  0.3530E-01  0.7096E-01  0.7096E-01
     -1.113  0.2544E-01  0.2544E-01  0.7588E-01  0.7588E-01
     -0.920  0.5722E-03  0.5720E-03  0.7600E-01  0.7600E-01
     -0.727  0.5228E-16  0.5235E-16  0.7600E-01  0.7600E-01
     -0.534  0.3926E-02  0.3927E-02  0.7676E-01  0.7676E-01
     -0.340  0.1306E-01  0.1306E-01  0.7928E-01  0.7928E-01
     -0.147  0.1158E-01  0.1158E-01  0.8152E-01  0.8152E-01
      0.046  0.2579E-01  0.2579E-01  0.8651E-01  0.8651E-01
      0.239  0.2691E-01  0.2691E-01  0.9171E-01  0.9171E-01
      0.433  0.1927E-01  0.1927E-01  0.9543E-01  0.9543E-01
      0.626  0.2934E-02  0.2933E-02  0.9600E-01  0.9600E-01
      0.819  0.8075E-02  0.8075E-02  0.9756E-01  0.9756E-01
      1.012  0.2009E-01  0.2009E-01  0.1014E+00  0.1014E+00
      1.206  0.2121E-01  0.2121E-01  0.1055E+00  0.1055E+00
      1.399  0.2555E-01  0.2555E-01  0.1105E+00  0.1105E+00
      1.592  0.2698E-01  0.2698E-01  0.1157E+00  0.1157E+00
      1.785  0.1917E-01  0.1917E-01  0.1194E+00  0.1194E+00
      1.979  0.3078E-02  0.3078E-02  0.1200E+00  0.1200E+00
      2.172  0.0000E+00  0.0000E+00  0.1200E+00  0.1200E+00
      2.365  0.0000E+00  0.0000E+00  0.1200E+00  0.1200E+00
      2.559  0.0000E+00  0.0000E+00  0.1200E+00  0.1200E+00
      2.752  0.0000E+00  0.0000E+00  0.1200E+00  0.1200E+00
      2.945  0.0000E+00  0.0000E+00  0.1200E+00  0.1200E+00
      3.138  0.0000E+00  0.0000E+00  0.1200E+00  0.1200E+00
      3.332  0.0000E+00  0.0000E+00  0.1200E+00  0.1200E+00
      3.525  0.0000E+00  0.0000E+00  0.1200E+00  0.1200E+00
      3.718  0.0000E+00  0.0000E+00  0.1200E+00  0.1200E+00
      3.911  0.0000E+00  0.0000E+00  0.1200E+00  0.1200E+00
      4.105  0.0000E+00  0.0000E+00  0.1200E+00  0.1200E+00
      4.298  0.1511E-15  0.1514E-15  0.1200E+00  0.1200E+00
      4.491  0.3743E-02  0.3743E-02  0.1207E+00  0.1207E+00
      4.684  0.1431E-02  0.1431E-02  0.1210E+00  0.1210E+00
      4.878  0.0000E+00  0.0000E+00  0.1210E+00  0.1210E+00
      5.071  0.2961E-13  0.2967E-13  0.1210E+00  0.1210E+00
      5.264  0.3643E-02  0.3644E-02  0.1217E+00  0.1217E+00
      5.457  0.1130E-01  0.1130E-01  0.1239E+00  0.1239E+00
      5.651  0.5730E-03  0.5728E-03  0.1240E+00  0.1240E+00
      5.844  0.4379E-04  0.4383E-04  0.1240E+00  0.1240E+00
      6.037  0.1165E-01  0.1165E-01  0.1263E+00  0.1263E+00
      6.230  0.1319E-01  0.1319E-01  0.1288E+00  0.1288E+00
      6.424  0.6148E-02  0.6147E-02  0.1300E+00  0.1300E+00
      6.617  0.9353E-02  0.9353E-02  0.1318E+00  0.1318E+00
      6.810  0.8009E-02  0.8009E-02  0.1334E+00  0.1334E+00
      7.004  0.1367E-01  0.1367E-01  0.1360E+00  0.1360E+00
      7.197  0.4835E-02  0.4835E-02  0.1369E+00  0.1369E+00
      7.390  0.1124E-02  0.1124E-02  0.1372E+00  0.1372E+00
      7.583  0.1186E-01  0.1186E-01  0.1394E+00  0.1394E+00
      7.777  0.1074E-01  0.1074E-01  0.1415E+00  0.1415E+00
      7.970  0.1214E-01  0.1214E-01  0.1439E+00  0.1439E+00
      8.163  0.1133E-01  0.1134E-01  0.1461E+00  0.1461E+00
      8.356  0.1400E-01  0.1400E-01  0.1488E+00  0.1488E+00
      8.550  0.1680E-01  0.1680E-01  0.1520E+00  0.1520E+00
      8.743  0.1588E-01  0.1589E-01  0.1551E+00  0.1551E+00
      8.936  0.1429E-01  0.1430E-01  0.1579E+00  0.1579E+00
      9.129  0.1803E-01  0.1799E-01  0.1613E+00  0.1613E+00
      9.323  0.1556E-01  0.1548E-01  0.1643E+00  0.1643E+00
      9.516  0.1794E-01  0.1805E-01  0.1678E+00  0.1678E+00
      9.709  0.1721E-01  0.1744E-01  0.1711E+00  0.1712E+00
      9.902  0.1188E-01  0.1530E-01  0.1734E+00  0.1741E+00
     10.096  0.1155E-01  0.6832E-02  0.1757E+00  0.1755E+00
     10.289  0.1654E-02  0.2714E-02  0.1760E+00  0.1760E+00
     10.482  0.0000E+00  0.0000E+00  0.1760E+00  0.1760E+00
     10.676  0.0000E+00  0.0000E+00  0.1760E+00  0.1760E+00
     10.869  0.0000E+00  0.0000E+00  0.1760E+00  0.1760E+00
     11.062  0.0000E+00  0.0000E+00  0.1760E+00  0.1760E+00
     11.255  0.0000E+00  0.0000E+00  0.1760E+00  0.1760E+00
     11.449  0.0000E+00  0.0000E+00  0.1760E+00  0.1760E+00
     11.642  0.0000E+00  0.0000E+00  0.1760E+00  0.1760E+00
     11.835  0.0000E+00  0.0000E+00  0.1760E+00  0.1760E+00
     12.028  0.0000E+00  0.0000E+00  0.1760E+00  0.1760E+00
     12.222  0.0000E+00  0.0000E+00  0.1760E+00  0.1760E+00
     12.415  0.0000E+00  0.0000E+00  0.1760E+00  0.1760E+00
     12.608  0.0000E+00  0.0000E+00  0.1760E+00  0.1760E+00
     12.801  0.0000E+00  0.0000E+00  0.1760E+00  0.1760E+00
