<?xml version="1.0" encoding="ISO-8859-1"?>
<modeling>
 <generator>
  <i name="program" type="string">vasp </i>
  <i name="version" type="string">6.4.1  </i>
  <i name="subversion" type="string">05Apr23 (build Jun 07 2023 15:38:11) complex                          parallel </i>
  <i name="platform" type="string">LinuxIFC </i>
  <i name="date" type="string">2023 10 16 </i>
  <i name="time" type="string">15:37:57 </i>
 </generator>
 <incar>
  <i type="string" name="PREC">Accu</i>
  <i type="string" name="ALGO">F</i>
  <i type="logical" name="LDIAG"> T  </i>
  <i type="int" name="ISPIN">     2</i>
  <i type="int" name="NELM">   100</i>
  <i type="int" name="NELMDL">   -10</i>
  <i type="int" name="IBRION">     2</i>
  <i name="EDIFF">      0.00000100</i>
  <i name="EDIFFG">     -0.00100000</i>
  <i type="int" name="NSW">  1000</i>
  <i type="int" name="ISIF">     2</i>
  <i name="ENCUT">    520.00000000</i>
  <i name="POTIM">      0.20000000</i>
  <i type="string" name="LREAL">Auto</i>
  <i type="logical" name="LPLANE"> T  </i>
  <i type="int" name="ISMEAR">     0</i>
  <i name="SIGMA">      0.03000000</i>
  <i type="int" name="LMAXMIX">     4</i>
  <i type="logical" name="LWAVE"> F  </i>
  <i type="logical" name="LCHARG"> F  </i>
  <i type="logical" name="LASPH"> T  </i>
  <i type="string" name="GGA">PE</i>
  <i type="int" name="IVDW">    12</i>
 </incar>
 <primitive_cell>
  <structure name="primitive_cell" >
   <crystal>
    <varray name="basis" >
     <v>       9.65347267       0.00000000       0.00000000 </v>
     <v>       0.00000000       9.65347267       0.00000000 </v>
     <v>       0.00000000       0.00000000       9.65347267 </v>
    </varray>
    <i name="volume">    899.60262533 </i>
    <varray name="rec_basis" >
     <v>       0.10358967       0.00000000       0.00000000 </v>
     <v>       0.00000000       0.10358967       0.00000000 </v>
     <v>       0.00000000       0.00000000       0.10358967 </v>
    </varray>
   </crystal>
   <varray name="positions" >
    <v>       0.96232348       0.33042296       0.31367649 </v>
    <v>       0.96286501       0.84416958       0.81392697 </v>
    <v>       0.01756518       0.27165202       0.70719835 </v>
    <v>       0.02323131       0.77087511       0.16645322 </v>
    <v>       0.46876352       0.31782406       0.83936907 </v>
    <v>       0.31081488       0.71221047       0.01462224 </v>
    <v>       0.82952806       0.19181435       0.03120680 </v>
    <v>       0.70498150       0.69192825       0.98874488 </v>
    <v>       0.20749565       0.97012184       0.21170291 </v>
    <v>       0.17642910       0.16711043       0.95929010 </v>
    <v>       0.66296194       0.96423622       0.72143766 </v>
    <v>       0.81004445       0.99901530       0.22231789 </v>
    <v>       0.14693224       0.68197727       0.45767317 </v>
    <v>       0.21924742       0.29347582       0.51460844 </v>
    <v>       0.70921043       0.78350185       0.52345371 </v>
    <v>       0.71539677       0.20223488       0.49469941 </v>
    <v>       0.21131651       0.48671526       0.72952829 </v>
    <v>       0.30782724       0.50562497       0.19471236 </v>
    <v>       0.65641366       0.43811345       0.18617243 </v>
    <v>       0.82174926       0.52910229       0.67612679 </v>
    <v>       0.32983488       0.03382145       0.66321923 </v>
    <v>       0.46123550       0.79655713       0.33352411 </v>
    <v>       0.52637019       0.14756404       0.30006398 </v>
    <v>       0.52009791       0.67341640       0.78241986 </v>
    <v>       0.50256468       0.48974490       0.49726515 </v>
    <v>       0.50363126       0.99893372       0.00165638 </v>
    <v>       0.99503174       0.49090221       0.00415251 </v>
    <v>       0.00748575       0.98291708       0.50761744 </v>
    <v>       0.13959498       0.87133052       0.62905266 </v>
    <v>       0.11168198       0.11882975       0.38203896 </v>
    <v>       0.90236326       0.84221306       0.38605305 </v>
    <v>       0.87559288       0.08714664       0.63957048 </v>
    <v>       0.86665009       0.58681778       0.14404307 </v>
    <v>       0.87247476       0.37653725       0.87384622 </v>
    <v>       0.10489251       0.63569110       0.89266084 </v>
    <v>       0.12063324       0.35996711       0.11468605 </v>
    <v>       0.63077236       0.13016220       0.89400394 </v>
    <v>       0.61164176       0.87251587       0.13468548 </v>
    <v>       0.37040758       0.12180895       0.11298875 </v>
    <v>       0.39294958       0.88363952       0.86077604 </v>
    <v>       0.62820705       0.60803816       0.37390526 </v>
    <v>       0.61779561       0.38082492       0.63836336 </v>
    <v>       0.36843590       0.62227826       0.59642324 </v>
    <v>       0.39845588       0.35655681       0.36740268 </v>
    <v>       0.74768512       0.74287825       0.75699017 </v>
    <v>       0.75079322       0.22752548       0.25897531 </v>
    <v>       0.24778328       0.73635311       0.24290483 </v>
    <v>       0.25294382       0.25053272       0.74689773 </v>
    <v>       0.99580884       0.98908669       0.03036572 </v>
    <v>       0.02191306       0.46435075       0.52637490 </v>
    <v>       0.52974487       0.98805742       0.50198429 </v>
    <v>       0.49007086       0.52347055       0.99561736 </v>
   </varray>
  </structure>
  <varray name="primitive_index" >
   <v type="int" >        1 </v>
   <v type="int" >        2 </v>
   <v type="int" >        3 </v>
   <v type="int" >        4 </v>
   <v type="int" >        5 </v>
   <v type="int" >        6 </v>
   <v type="int" >        7 </v>
   <v type="int" >        8 </v>
   <v type="int" >        9 </v>
   <v type="int" >       10 </v>
   <v type="int" >       11 </v>
   <v type="int" >       12 </v>
   <v type="int" >       13 </v>
   <v type="int" >       14 </v>
   <v type="int" >       15 </v>
   <v type="int" >       16 </v>
   <v type="int" >       17 </v>
   <v type="int" >       18 </v>
   <v type="int" >       19 </v>
   <v type="int" >       20 </v>
   <v type="int" >       21 </v>
   <v type="int" >       22 </v>
   <v type="int" >       23 </v>
   <v type="int" >       24 </v>
   <v type="int" >       25 </v>
   <v type="int" >       26 </v>
   <v type="int" >       27 </v>
   <v type="int" >       28 </v>
   <v type="int" >       29 </v>
   <v type="int" >       30 </v>
   <v type="int" >       31 </v>
   <v type="int" >       32 </v>
   <v type="int" >       33 </v>
   <v type="int" >       34 </v>
   <v type="int" >       35 </v>
   <v type="int" >       36 </v>
   <v type="int" >       37 </v>
   <v type="int" >       38 </v>
   <v type="int" >       39 </v>
   <v type="int" >       40 </v>
   <v type="int" >       41 </v>
   <v type="int" >       42 </v>
   <v type="int" >       43 </v>
   <v type="int" >       44 </v>
   <v type="int" >       45 </v>
   <v type="int" >       46 </v>
   <v type="int" >       47 </v>
   <v type="int" >       48 </v>
   <v type="int" >       49 </v>
   <v type="int" >       50 </v>
   <v type="int" >       51 </v>
   <v type="int" >       52 </v>
  </varray>
 </primitive_cell>
 <kpoints>
  <generation param="Monkhorst-Pack">
   <v type="int" name="divisions">       2        2        2 </v>
   <v name="usershift">      0.00000000       0.00000000       0.00000000 </v>
   <v name="genvec1">      0.50000000       0.00000000       0.00000000 </v>
   <v name="genvec2">      0.00000000       0.50000000       0.00000000 </v>
   <v name="genvec3">      0.00000000       0.00000000       0.50000000 </v>
   <v name="shift">      0.50000000       0.50000000       0.50000000 </v>
  </generation>
  <varray name="kpointlist" >
   <v>       0.25000000       0.25000000       0.25000000 </v>
   <v>      -0.25000000       0.25000000       0.25000000 </v>
   <v>      -0.25000000      -0.25000000       0.25000000 </v>
   <v>       0.25000000      -0.25000000       0.25000000 </v>
  </varray>
  <varray name="weights" >
   <v>       0.25000000 </v>
   <v>       0.25000000 </v>
   <v>       0.25000000 </v>
   <v>       0.25000000 </v>
  </varray>
 </kpoints>
 <parameters>
  <separator name="general" >
   <i type="string" name="SYSTEM">unknown system</i>
   <i type="logical" name="LCOMPAT"> F  </i>
  </separator>
  <separator name="electronic" >
   <i type="string" name="PREC">accu</i>
   <i name="ENMAX">    520.00000000</i>
   <i name="ENAUG">   1041.69900000</i>
   <i name="EDIFF">      0.00000100</i>
   <i type="int" name="IALGO">    68</i>
   <i type="int" name="IWAVPR">    11</i>
   <i type="int" name="NBANDS">   176</i>
   <i type="int" name="NBANDSLOW">    -1</i>
   <i type="int" name="NBANDSHIGH">    -1</i>
   <i name="NELECT">    240.00000000</i>
   <i type="int" name="TURBO">     0</i>
   <i type="int" name="IRESTART">     0</i>
   <i type="int" name="NREBOOT">     0</i>
   <i type="int" name="NMIN">     0</i>
   <i name="EREF">      0.00000000</i>
   <separator name="electronic smearing" >
    <i type="int" name="ISMEAR">     0</i>
    <i name="SIGMA">      0.03000000</i>
    <i name="KSPACING">      0.50000000</i>
    <i type="logical" name="KGAMMA"> T  </i>
    <i type="logical" name="KBLOWUP"> T  </i>
   </separator>
   <separator name="electronic projectors" >
    <i type="logical" name="LREAL"> T  </i>
    <v name="ROPT">     -0.00025000     -0.00025000     -0.00025000     -0.00025000</v>
    <i type="int" name="LMAXPAW">  -100</i>
    <i type="int" name="LMAXMIX">     4</i>
    <i type="logical" name="NLSPLINE"> F  </i>
   </separator>
   <separator name="electronic startup" >
    <i type="int" name="ISTART">     0</i>
    <i type="int" name="ICHARG">     2</i>
    <i type="int" name="INIWAV">     1</i>
   </separator>
   <separator name="electronic spin" >
    <i type="int" name="ISPIN">     2</i>
    <i type="logical" name="LNONCOLLINEAR"> F  </i>
    <v name="MAGMOM">      1.00000000      1.00000000      1.00000000      1.00000000      1.00000000      1.00000000      1.00000000      1.00000000      1.00000000      1.00000000      1.00000000      1.00000000      1.00000000      1.00000000      1.00000000      1.00000000      1.00000000      1.00000000      1.00000000      1.00000000
      1.00000000      1.00000000      1.00000000      1.00000000      1.00000000      1.00000000      1.00000000      1.00000000      1.00000000      1.00000000      1.00000000      1.00000000      1.00000000      1.00000000      1.00000000      1.00000000      1.00000000      1.00000000      1.00000000      1.00000000
      1.00000000      1.00000000      1.00000000      1.00000000      1.00000000      1.00000000      1.00000000      1.00000000      1.00000000      1.00000000      1.00000000      1.00000000</v>
    <i name="NUPDOWN">     -1.00000000</i>
    <i type="logical" name="LSORBIT"> F  </i>
    <v name="SAXIS">      0.00000000      0.00000000      1.00000000</v>
    <i type="logical" name="LSPIRAL"> F  </i>
    <v name="QSPIRAL">      0.00000000      0.00000000      0.00000000</v>
    <i type="logical" name="LZEROZ"> F  </i>
   </separator>
   <separator name="electronic exchange-correlation" >
    <i type="logical" name="LASPH"> T  </i>
    <i type="logical" name="LMETAGGA"> F  </i>
   </separator>
   <separator name="electronic convergence" >
    <i type="int" name="NELM">   100</i>
    <i type="int" name="NELMDL">   -10</i>
    <i type="int" name="NELMIN">     2</i>
    <i name="ENINI">    520.00000000</i>
    <separator name="electronic convergence detail" >
     <i type="logical" name="LDIAG"> T  </i>
     <i type="logical" name="LSUBROT"> F  </i>
     <i name="WEIMIN">      0.00100000</i>
     <i name="EBREAK">      0.00000000</i>
     <i name="DEPER">      0.30000000</i>
     <i type="int" name="NRMM">     4</i>
     <i name="TIME">      0.40000000</i>
    </separator>
   </separator>
   <separator name="electronic mixer" >
    <i name="AMIX">      0.40000000</i>
    <i name="BMIX">      1.00000000</i>
    <i name="AMIN">      0.10000000</i>
    <i name="AMIX_MAG">      1.60000000</i>
    <i name="BMIX_MAG">      1.00000000</i>
    <separator name="electronic mixer details" >
     <i type="int" name="IMIX">     4</i>
     <i type="logical" name="MIXFIRST"> F  </i>
     <i type="int" name="MAXMIX">   -45</i>
     <i name="WC">    100.00000000</i>
     <i type="int" name="INIMIX">     1</i>
     <i type="int" name="MIXPRE">     1</i>
     <i type="int" name="MREMOVE">     5</i>
    </separator>
   </separator>
   <separator name="electronic dipolcorrection" >
    <i type="logical" name="LDIPOL"> F  </i>
    <i type="logical" name="LMONO"> F  </i>
    <i type="int" name="IDIPOL">     0</i>
    <i name="EPSILON">      1.00000000</i>
    <v name="DIPOL">   -100.00000000   -100.00000000   -100.00000000</v>
    <i name="EFIELD">      0.00000000</i>
   </separator>
  </separator>
  <separator name="grids" >
   <i type="int" name="NGX">    72</i>
   <i type="int" name="NGY">    72</i>
   <i type="int" name="NGZ">    72</i>
   <i type="int" name="NGXF">   144</i>
   <i type="int" name="NGYF">   144</i>
   <i type="int" name="NGZF">   144</i>
   <i type="logical" name="ADDGRID"> F  </i>
  </separator>
  <separator name="ionic" >
   <i type="int" name="NSW">  1000</i>
   <i type="int" name="IBRION">     2</i>
   <i type="int" name="MDALGO">     0</i>
   <i type="int" name="ISIF">     2</i>
   <i name="PSTRESS">      0.00000000</i>
   <i name="EDIFFG">     -0.00100000</i>
   <i type="int" name="NFREE">     1</i>
   <i name="POTIM">      0.20000000</i>
   <i name="SMASS">     -3.00000000</i>
   <i name="SCALEE">      1.00000000</i>
  </separator>
  <separator name="ionic md" >
   <i name="TEBEG">      0.00010000</i>
   <i name="TEEND">      0.00010000</i>
   <i type="int" name="NBLOCK">     1</i>
   <i type="int" name="KBLOCK">  1000</i>
   <i type="int" name="NPACO">   256</i>
   <i name="APACO">     10.00000000</i>
  </separator>
  <separator name="symmetry" >
   <i type="int" name="ISYM">     2</i>
   <i name="SYMPREC">      0.00001000</i>
  </separator>
  <separator name="dos" >
   <i type="int" name="LORBIT">     0</i>
   <v name="RWIGS">     -1.00000000     -1.00000000     -1.00000000     -1.00000000</v>
   <i type="int" name="NEDOS">   301</i>
   <i name="EMIN">     10.00000000</i>
   <i name="EMAX">    -10.00000000</i>
   <i name="EFERMI">      0.00000000</i>
  </separator>
  <separator name="writing" >
   <i type="int" name="NWRITE">     2</i>
   <i type="logical" name="LWAVE"> F  </i>
   <i type="logical" name="LDOWNSAMPLE"> F  </i>
   <i type="logical" name="LCHARG"> F  </i>
   <i type="logical" name="LPARD"> F  </i>
   <i type="logical" name="LVTOT"> F  </i>
   <i type="logical" name="LVHAR"> F  </i>
   <i type="logical" name="LELF"> F  </i>
   <i type="logical" name="LOPTICS"> F  </i>
   <v name="STM">      0.00000000      0.00000000      0.00000000      0.00000000      0.00000000      0.00000000      0.00000000</v>
  </separator>
  <separator name="performance" >
   <i type="int" name="NPAR">     4</i>
   <i type="int" name="NSIM">     4</i>
   <i type="int" name="NBLK">    -1</i>
   <i type="logical" name="LPLANE"> T  </i>
   <i type="logical" name="LSCALAPACK"> T  </i>
   <i type="logical" name="LSCAAWARE"> F  </i>
   <i type="logical" name="LSCALU"> F  </i>
   <i type="logical" name="LASYNC"> F  </i>
   <i type="logical" name="LORBITALREAL"> F  </i>
  </separator>
  <separator name="miscellaneous" >
   <i type="int" name="IDIOT">     3</i>
   <i type="int" name="PHON_NSTRUCT">    -1</i>
   <i type="logical" name="LMUSIC"> F  </i>
   <v name="POMASS">      7.01000000     30.97400000     32.06600000     35.45300000</v>
   <v name="DARWINR">      0.00000000      0.00000000      0.00000000      0.00000000</v>
   <v name="DARWINV">      1.00000000      1.00000000      1.00000000      1.00000000</v>
   <i type="logical" name="LCORR"> T  </i>
  </separator>
  <i type="logical" name="GGA_COMPAT"> T  </i>
  <i type="logical" name="LBERRY"> F  </i>
  <i type="int" name="ICORELEVEL">     0</i>
  <i type="logical" name="LDAU"> F  </i>
  <i type="int" name="I_CONSTRAINED_M">     0</i>
  <separator name="electronic exchange-correlation" >
   <i type="string" name="GGA">PE</i>
   <i type="int" name="VOSKOWN">     0</i>
   <i type="logical" name="LHFCALC"> F  </i>
   <i type="string" name="PRECFOCK"></i>
   <i type="logical" name="LSYMGRAD"> F  </i>
   <i type="logical" name="LHFONE"> F  </i>
   <i type="logical" name="LRHFCALC"> F  </i>
   <i type="logical" name="LTHOMAS"> F  </i>
   <i type="logical" name="LMODELHF"> F  </i>
   <i type="logical" name="LFOCKACE"> F  </i>
   <i name="ENCUT4O">     -1.00000000</i>
   <i type="int" name="EXXOEP">     0</i>
   <i type="int" name="FOURORBIT">     0</i>
   <i name="AEXX">      0.00000000</i>
   <i name="HFALPHA">      0.00000000</i>
   <i name="MCALPHA">      0.00000000</i>
   <i name="ALDAX">      1.00000000</i>
   <i name="AGGAX">      1.00000000</i>
   <i name="ALDAC">      1.00000000</i>
   <i name="AGGAC">      1.00000000</i>
   <i type="int" name="NKREDX">     1</i>
   <i type="int" name="NKREDY">     1</i>
   <i type="int" name="NKREDZ">     1</i>
   <i type="logical" name="SHIFTRED"> F  </i>
   <i type="logical" name="ODDONLY"> F  </i>
   <i type="logical" name="EVENONLY"> F  </i>
   <i type="int" name="LMAXFOCK">     0</i>
   <i type="int" name="NMAXFOCKAE">     0</i>
   <i type="logical" name="LFOCKAEDFT"> F  </i>
   <i name="HFSCREEN">      0.00000000</i>
   <i name="HFSCREENC">      0.00000000</i>
   <i type="int" name="NBANDSGWLOW">     0</i>
  </separator>
  <separator name="vdW DFT" >
   <i type="logical" name="LUSE_VDW"> F  </i>
   <i type="int" name="IVDW_NL">     1</i>
   <i type="logical" name="LSPIN_VDW"> F  </i>
   <i name="Zab_VDW">     -0.84910000</i>
   <i name="PARAM1">      0.12340000</i>
   <i name="PARAM2">      1.00000000</i>
   <i name="PARAM3">      0.00000000</i>
  </separator>
  <separator name="model GW" >
   <i type="int" name="MODEL_GW">     0</i>
   <i name="MODEL_EPS0">     10.38003029</i>
   <i name="MODEL_ALPHA">      1.00000000</i>
  </separator>
  <separator name="linear response parameters" >
   <i type="logical" name="LEPSILON"> F  </i>
   <i type="logical" name="LRPA"> F  </i>
   <i type="logical" name="LNABLA"> F  </i>
   <i type="logical" name="LVEL"> F  </i>
   <i name="CSHIFT">      0.10000000</i>
   <i name="OMEGAMAX">     -1.00000000</i>
   <i name="DEG_THRESHOLD">      0.00200000</i>
   <i name="RTIME">     -0.10000000</i>
   <i name="WPLASMAI">      0.00000000</i>
   <v name="DFIELD">      0.00000000      0.00000000      0.00000000</v>
   <v name="WPLASMA">      0.00000000      0.00000000      0.00000000      0.00000000      0.00000000      0.00000000      0.00000000      0.00000000      0.00000000</v>
  </separator>
  <separator name="orbital magnetization" >
   <i type="logical" name="NUCIND"> F  </i>
   <v name="MAGPOS">      0.00000000      0.00000000      0.00000000</v>
   <i type="logical" name="LNICSALL"> T  </i>
   <i type="logical" name="ORBITALMAG"> F  </i>
   <i type="logical" name="LMAGBLOCH"> F  </i>
   <i type="logical" name="LCHIMAG"> F  </i>
   <i type="logical" name="LGAUGE"> T  </i>
   <i type="int" name="MAGATOM">     0</i>
   <v name="MAGDIPOL">      0.00000000      0.00000000      0.00000000</v>
   <v name="AVECCONST">      0.00000000      0.00000000      0.00000000</v>
  </separator>
  <separator name="response functions" >
   <i type="logical" name="LALL_IN_ONE"> F  </i>
   <i type="int" name="IALL_IN_ONE">    -1</i>
   <i type="int" name="NBANDS_WAVE">    -1</i>
   <i type="logical" name="LFINITE_TEMPERATURE"> F  </i>
   <i type="logical" name="LADDER"> F  </i>
   <i type="logical" name="LRPAFORCE"> F  </i>
   <i type="logical" name="LFXC"> F  </i>
   <i type="logical" name="LHARTREE"> T  </i>
   <i type="int" name="IBSE">     0</i>
   <v type="int" name="KPOINT">    -1     0     0     0</v>
   <i type="logical" name="LTCTC"> F  </i>
   <i type="logical" name="LTCTE"> F  </i>
   <i type="logical" name="LTETE"> F  </i>
   <i type="logical" name="LTRIPLET"> F  </i>
   <i type="logical" name="LFXCEPS"> F  </i>
   <i type="logical" name="LFXHEG"> F  </i>
   <i type="int" name="NATURALO">     2</i>
   <i type="logical" name="LHOLEGF"> F  </i>
   <i type="logical" name="L2ORDER"> F  </i>
   <i type="logical" name="LDMP1"> F  </i>
   <i type="logical" name="LMP2LT"> F  </i>
   <i type="logical" name="LSMP2LT"> F  </i>
   <i type="logical" name="LGWLF"> F  </i>
   <i name="ENCUTGW">     -1.60000002</i>
   <i name="ENCUTGWSOFT">     -1.60000002</i>
   <i name="ENCUTLF">     -1.00000000</i>
   <i type="logical" name="LESF_SPLINES"> F  </i>
   <i type="int" name="LMAXMP2">    -1</i>
   <i name="SCISSOR">      0.00000000</i>
   <i type="int" name="NOMEGA">     0</i>
   <i type="int" name="NOMEGAR">     0</i>
   <i type="int" name="NBANDSGW">    -1</i>
   <i type="int" name="NBANDSO">    -1</i>
   <i type="int" name="NBANDSV">    -1</i>
   <i type="int" name="NELMGW">     1</i>
   <i type="int" name="NELMHF">     1</i>
   <i type="int" name="DIM">     3</i>
   <i type="int" name="IESPILON">     4</i>
   <i type="int" name="ANTIRES">     0</i>
   <i name="OMEGAMAX">    -30.00000000</i>
   <i name="OMEGAMIN">    -30.00000000</i>
   <i name="OMEGATL">   -200.00000000</i>
   <i type="int" name="OMEGAGRID">     0</i>
   <i name="CSHIFT">     -0.10000000</i>
   <i type="logical" name="LSELFENERGY"> F  </i>
   <i type="logical" name="LSPECTRAL"> F  </i>
   <i type="logical" name="LSPECTRALGW"> F  </i>
   <i type="logical" name="LSINGLES"> F  </i>
   <i type="logical" name="LFERMIGW"> F  </i>
   <i type="logical" name="ODDONLYGW"> F  </i>
   <i type="logical" name="EVENONLYGW"> F  </i>
   <i type="int" name="NKREDLFX">     1</i>
   <i type="int" name="NKREDLFY">     1</i>
   <i type="int" name="NKREDLFZ">     1</i>
   <i type="int" name="MAXMEM">  2800</i>
   <i type="int" name="TELESCOPE">     0</i>
   <i type="int" name="NTAUPAR">    -1</i>
   <i type="int" name="NOMEGAPAR">    -1</i>
   <i name="DAMP_NEWTON">      0.80000001</i>
   <i name="LAMBDA">      1.00000000</i>
  </separator>
  <separator name="External order field" >
   <i name="OFIELD_KAPPA">      0.00000000</i>
   <v name="OFIELD_K">      0.00000000      0.00000000      0.00000000</v>
   <i name="OFIELD_Q6_NEAR">      0.00000000</i>
   <i name="OFIELD_Q6_FAR">      0.00000000</i>
   <i name="OFIELD_A">      0.00000000</i>
  </separator>
  <separator name="optional k-points parameters" >
   <i type="int" name="KPOINTS_OPT_MODE">     1</i>
   <i type="logical" name="LKPOINTS_OPT"> F  </i>
  </separator>
 </parameters>
 <atominfo>
  <atoms>      52 </atoms>
  <types>       4 </types>
  <array name="atoms" >
   <dimension dim="1">ion</dimension>
   <field type="string">element</field>
   <field type="int">atomtype</field>
   <set>
    <rc><c>Li</c><c>   1</c></rc>
    <rc><c>Li</c><c>   1</c></rc>
    <rc><c>Li</c><c>   1</c></rc>
    <rc><c>Li</c><c>   1</c></rc>
    <rc><c>Li</c><c>   1</c></rc>
    <rc><c>Li</c><c>   1</c></rc>
    <rc><c>Li</c><c>   1</c></rc>
    <rc><c>Li</c><c>   1</c></rc>
    <rc><c>Li</c><c>   1</c></rc>
    <rc><c>Li</c><c>   1</c></rc>
    <rc><c>Li</c><c>   1</c></rc>
    <rc><c>Li</c><c>   1</c></rc>
    <rc><c>Li</c><c>   1</c></rc>
    <rc><c>Li</c><c>   1</c></rc>
    <rc><c>Li</c><c>   1</c></rc>
    <rc><c>Li</c><c>   1</c></rc>
    <rc><c>Li</c><c>   1</c></rc>
    <rc><c>Li</c><c>   1</c></rc>
    <rc><c>Li</c><c>   1</c></rc>
    <rc><c>Li</c><c>   1</c></rc>
    <rc><c>Li</c><c>   1</c></rc>
    <rc><c>Li</c><c>   1</c></rc>
    <rc><c>Li</c><c>   1</c></rc>
    <rc><c>Li</c><c>   1</c></rc>
    <rc><c>P </c><c>   2</c></rc>
    <rc><c>P </c><c>   2</c></rc>
    <rc><c>P </c><c>   2</c></rc>
    <rc><c>P </c><c>   2</c></rc>
    <rc><c>S </c><c>   3</c></rc>
    <rc><c>S </c><c>   3</c></rc>
    <rc><c>S </c><c>   3</c></rc>
    <rc><c>S </c><c>   3</c></rc>
    <rc><c>S </c><c>   3</c></rc>
    <rc><c>S </c><c>   3</c></rc>
    <rc><c>S </c><c>   3</c></rc>
    <rc><c>S </c><c>   3</c></rc>
    <rc><c>S </c><c>   3</c></rc>
    <rc><c>S </c><c>   3</c></rc>
    <rc><c>S </c><c>   3</c></rc>
    <rc><c>S </c><c>   3</c></rc>
    <rc><c>S </c><c>   3</c></rc>
    <rc><c>S </c><c>   3</c></rc>
    <rc><c>S </c><c>   3</c></rc>
    <rc><c>S </c><c>   3</c></rc>
    <rc><c>S </c><c>   3</c></rc>
    <rc><c>S </c><c>   3</c></rc>
    <rc><c>S </c><c>   3</c></rc>
    <rc><c>S </c><c>   3</c></rc>
    <rc><c>Cl</c><c>   4</c></rc>
    <rc><c>Cl</c><c>   4</c></rc>
    <rc><c>Cl</c><c>   4</c></rc>
    <rc><c>Cl</c><c>   4</c></rc>
   </set>
  </array>
  <array name="atomtypes" >
   <dimension dim="1">type</dimension>
   <field type="int">atomspertype</field>
   <field type="string">element</field>
   <field>mass</field>
   <field>valence</field>
   <field type="string">pseudopotential</field>
   <set>
    <rc><c>  24</c><c>Li</c><c>      7.01000000</c><c>      3.00000000</c><c>  PAW_PBE Li_sv_GW 25Mar2010            </c></rc>
    <rc><c>   4</c><c>P </c><c>     30.97400000</c><c>      5.00000000</c><c>  PAW_PBE P_GW 19Mar2012                </c></rc>
    <rc><c>  20</c><c>S </c><c>     32.06600000</c><c>      6.00000000</c><c>  PAW_PBE S_GW 19Mar2012                </c></rc>
    <rc><c>   4</c><c>Cl</c><c>     35.45300000</c><c>      7.00000000</c><c>  PAW_PBE Cl_GW 19Mar2012               </c></rc>
   </set>
  </array>
 </atominfo>
 <structure name="initialpos" >
  <crystal>
   <varray name="basis" >
    <v>       9.65347267       0.00000000       0.00000000 </v>
    <v>       0.00000000       9.65347267       0.00000000 </v>
    <v>       0.00000000       0.00000000       9.65347267 </v>
   </varray>
   <i name="volume">    899.60262533 </i>
   <varray name="rec_basis" >
    <v>       0.10358967       0.00000000       0.00000000 </v>
    <v>       0.00000000       0.10358967       0.00000000 </v>
    <v>       0.00000000       0.00000000       0.10358967 </v>
   </varray>
  </crystal>
  <varray name="positions" >
   <v>       0.96232348       0.33042296       0.31367649 </v>
   <v>       0.96286501       0.84416958       0.81392697 </v>
   <v>       0.01756518       0.27165202       0.70719835 </v>
   <v>       0.02323131       0.77087511       0.16645322 </v>
   <v>       0.46876352       0.31782406       0.83936907 </v>
   <v>       0.31081488       0.71221047       0.01462224 </v>
   <v>       0.82952806       0.19181435       0.03120680 </v>
   <v>       0.70498150       0.69192825       0.98874488 </v>
   <v>       0.20749565       0.97012184       0.21170291 </v>
   <v>       0.17642910       0.16711043       0.95929010 </v>
   <v>       0.66296194       0.96423622       0.72143766 </v>
   <v>       0.81004445       0.99901530       0.22231789 </v>
   <v>       0.14693224       0.68197727       0.45767317 </v>
   <v>       0.21924742       0.29347582       0.51460844 </v>
   <v>       0.70921043       0.78350185       0.52345371 </v>
   <v>       0.71539677       0.20223488       0.49469941 </v>
   <v>       0.21131651       0.48671526       0.72952829 </v>
   <v>       0.30782724       0.50562497       0.19471236 </v>
   <v>       0.65641366       0.43811345       0.18617243 </v>
   <v>       0.82174926       0.52910229       0.67612679 </v>
   <v>       0.32983488       0.03382145       0.66321923 </v>
   <v>       0.46123550       0.79655713       0.33352411 </v>
   <v>       0.52637019       0.14756404       0.30006398 </v>
   <v>       0.52009791       0.67341640       0.78241986 </v>
   <v>       0.50256468       0.48974490       0.49726515 </v>
   <v>       0.50363126       0.99893372       0.00165638 </v>
   <v>       0.99503174       0.49090221       0.00415251 </v>
   <v>       0.00748575       0.98291708       0.50761744 </v>
   <v>       0.13959498       0.87133052       0.62905266 </v>
   <v>       0.11168198       0.11882975       0.38203896 </v>
   <v>       0.90236326       0.84221306       0.38605305 </v>
   <v>       0.87559288       0.08714664       0.63957048 </v>
   <v>       0.86665009       0.58681778       0.14404307 </v>
   <v>       0.87247476       0.37653725       0.87384622 </v>
   <v>       0.10489251       0.63569110       0.89266084 </v>
   <v>       0.12063324       0.35996711       0.11468605 </v>
   <v>       0.63077236       0.13016220       0.89400394 </v>
   <v>       0.61164176       0.87251587       0.13468548 </v>
   <v>       0.37040758       0.12180895       0.11298875 </v>
   <v>       0.39294958       0.88363952       0.86077604 </v>
   <v>       0.62820705       0.60803816       0.37390526 </v>
   <v>       0.61779561       0.38082492       0.63836336 </v>
   <v>       0.36843590       0.62227826       0.59642324 </v>
   <v>       0.39845588       0.35655681       0.36740268 </v>
   <v>       0.74768512       0.74287825       0.75699017 </v>
   <v>       0.75079322       0.22752548       0.25897531 </v>
   <v>       0.24778328       0.73635311       0.24290483 </v>
   <v>       0.25294382       0.25053272       0.74689773 </v>
   <v>       0.99580884       0.98908669       0.03036572 </v>
   <v>       0.02191306       0.46435075       0.52637490 </v>
   <v>       0.52974487       0.98805742       0.50198429 </v>
   <v>       0.49007086       0.52347055       0.99561736 </v>
  </varray>
 </structure>
 <calculation>
  <scstep>
   <time name="dav">    2.27    2.39</time>
   <time name="total">    2.74    2.88</time>
   <energy>
    <i name="alphaZ">    301.75268061 </i>
    <i name="ewald">  -8833.00424458 </i>
    <i name="hartreedc">  -2101.12945058 </i>
    <i name="XCdc">    534.35791947 </i>
    <i name="pawpsdc">   8141.38806575 </i>
    <i name="pawaedc">  -8271.61346273 </i>
    <i name="eentropy">     -0.00995782 </i>
    <i name="bandstr">   -883.87208325 </i>
    <i name="atom">  12703.13999606 </i>
    <i name="e_fr_energy">   1591.00946295 </i>
    <i name="e_wo_entrp">   1591.01942076 </i>
    <i name="e_0_energy">   1591.01444185 </i>
   </energy>
  </scstep>
  <scstep>
   <time name="dav">    2.62    2.65</time>
   <time name="total">    2.62    2.65</time>
   <energy>
    <i name="e_fr_energy">    -54.58615312 </i>
    <i name="e_wo_entrp">    -54.58615312 </i>
    <i name="e_0_energy">    -54.58615312 </i>
   </energy>
  </scstep>
  <scstep>
   <time name="dav">    2.61    2.63</time>
   <time name="total">    2.61    2.63</time>
   <energy>
    <i name="e_fr_energy">   -228.51205121 </i>
    <i name="e_wo_entrp">   -228.51205121 </i>
    <i name="e_0_energy">   -228.51205121 </i>
   </energy>
  </scstep>
  <scstep>
   <time name="dav">    3.18    3.21</time>
   <time name="total">    3.18    3.21</time>
   <energy>
    <i name="e_fr_energy">   -241.99547231 </i>
    <i name="e_wo_entrp">   -241.99547231 </i>
    <i name="e_0_energy">   -241.99547231 </i>
   </energy>
  </scstep>
  <scstep>
   <time name="dav">    3.00    3.02</time>
   <time name="total">    3.00    3.02</time>
   <energy>
    <i name="e_fr_energy">   -242.21155888 </i>
    <i name="e_wo_entrp">   -242.21155888 </i>
    <i name="e_0_energy">   -242.21155888 </i>
   </energy>
  </scstep>
  <scstep>
   <time name="dav">    3.08    3.10</time>
   <time name="total">    3.08    3.10</time>
   <energy>
    <i name="e_fr_energy">   -242.22395653 </i>
    <i name="e_wo_entrp">   -242.22395653 </i>
    <i name="e_0_energy">   -242.22395653 </i>
   </energy>
  </scstep>
  <scstep>
   <time name="dav">    3.04    3.07</time>
   <time name="total">    3.04    3.07</time>
   <energy>
    <i name="e_fr_energy">   -242.22433826 </i>
    <i name="e_wo_entrp">   -242.22433826 </i>
    <i name="e_0_energy">   -242.22433826 </i>
   </energy>
  </scstep>
  <scstep>
   <time name="dav">    3.05    3.08</time>
   <time name="total">    3.05    3.08</time>
   <energy>
    <i name="e_fr_energy">   -242.22436033 </i>
    <i name="e_wo_entrp">   -242.22436033 </i>
    <i name="e_0_energy">   -242.22436033 </i>
   </energy>
  </scstep>
  <scstep>
   <time name="dav">    2.95    2.98</time>
   <time name="total">    2.96    2.98</time>
   <energy>
    <i name="e_fr_energy">   -242.22436174 </i>
    <i name="e_wo_entrp">   -242.22436174 </i>
    <i name="e_0_energy">   -242.22436174 </i>
   </energy>
  </scstep>
  <scstep>
   <time name="dav">    1.98    1.99</time>
   <time name="total">    2.05    2.07</time>
   <energy>
    <i name="e_fr_energy">   -242.22436180 </i>
    <i name="e_wo_entrp">   -242.22436180 </i>
    <i name="e_0_energy">   -242.22436180 </i>
   </energy>
  </scstep>
  <scstep>
   <time name="diag">    0.36    0.37</time>
   <time name="diis">    1.16    1.17</time>
   <time name="orth">    0.07    0.07</time>
   <time name="total">    2.10    2.13</time>
   <energy>
    <i name="e_fr_energy">   -236.84740335 </i>
    <i name="e_wo_entrp">   -236.84740335 </i>
    <i name="e_0_energy">   -236.84740335 </i>
   </energy>
  </scstep>
  <scstep>
   <time name="diag">    0.35    0.36</time>
   <time name="diis">    1.22    1.23</time>
   <time name="orth">    0.07    0.07</time>
   <time name="total">    2.16    2.18</time>
   <energy>
    <i name="e_fr_energy">   -256.19344541 </i>
    <i name="e_wo_entrp">   -256.19344541 </i>
    <i name="e_0_energy">   -256.19344541 </i>
   </energy>
  </scstep>
  <scstep>
   <time name="diag">    0.36    0.36</time>
   <time name="diis">    1.20    1.21</time>
   <time name="orth">    0.07    0.07</time>
   <time name="total">    2.14    2.16</time>
   <energy>
    <i name="e_fr_energy">   -258.66027975 </i>
    <i name="e_wo_entrp">   -258.66027975 </i>
    <i name="e_0_energy">   -258.66027975 </i>
   </energy>
  </scstep>
  <scstep>
   <time name="diag">    0.35    0.36</time>
   <time name="diis">    1.57    1.58</time>
   <time name="orth">    0.07    0.07</time>
   <time name="total">    2.50    2.53</time>
   <energy>
    <i name="e_fr_energy">   -258.86148292 </i>
    <i name="e_wo_entrp">   -258.86148292 </i>
    <i name="e_0_energy">   -258.86148292 </i>
   </energy>
  </scstep>
  <scstep>
   <time name="diag">    0.36    0.36</time>
   <time name="diis">    1.27    1.28</time>
   <time name="orth">    0.07    0.07</time>
   <time name="total">    2.39    2.42</time>
   <energy>
    <i name="e_fr_energy">   -258.83327529 </i>
    <i name="e_wo_entrp">   -258.83327529 </i>
    <i name="e_0_energy">   -258.83327529 </i>
   </energy>
  </scstep>
  <scstep>
   <time name="diag">    0.35    0.36</time>
   <time name="diis">    1.28    1.29</time>
   <time name="orth">    0.07    0.07</time>
   <time name="total">    2.22    2.24</time>
   <energy>
    <i name="e_fr_energy">   -258.85255841 </i>
    <i name="e_wo_entrp">   -258.85255841 </i>
    <i name="e_0_energy">   -258.85255841 </i>
   </energy>
  </scstep>
  <scstep>
   <time name="diag">    0.35    0.36</time>
   <time name="diis">    1.45    1.46</time>
   <time name="orth">    0.07    0.07</time>
   <time name="total">    2.39    2.41</time>
   <energy>
    <i name="e_fr_energy">   -258.85863927 </i>
    <i name="e_wo_entrp">   -258.85863927 </i>
    <i name="e_0_energy">   -258.85863927 </i>
   </energy>
  </scstep>
  <scstep>
   <time name="diag">    0.35    0.36</time>
   <time name="diis">    1.42    1.43</time>
   <time name="orth">    0.07    0.07</time>
   <time name="total">    2.35    2.37</time>
   <energy>
    <i name="e_fr_energy">   -258.85983341 </i>
    <i name="e_wo_entrp">   -258.85983341 </i>
    <i name="e_0_energy">   -258.85983341 </i>
   </energy>
  </scstep>
  <scstep>
   <time name="diag">    0.35    0.36</time>
   <time name="diis">    1.67    1.70</time>
   <time name="orth">    0.07    0.07</time>
   <time name="total">    2.61    2.64</time>
   <energy>
    <i name="e_fr_energy">   -258.86029845 </i>
    <i name="e_wo_entrp">   -258.86029845 </i>
    <i name="e_0_energy">   -258.86029845 </i>
   </energy>
  </scstep>
  <scstep>
   <time name="diag">    0.35    0.36</time>
   <time name="diis">    1.58    1.60</time>
   <time name="orth">    0.07    0.07</time>
   <time name="total">    2.52    2.55</time>
   <energy>
    <i name="e_fr_energy">   -258.86039232 </i>
    <i name="e_wo_entrp">   -258.86039232 </i>
    <i name="e_0_energy">   -258.86039232 </i>
   </energy>
  </scstep>
  <scstep>
   <time name="diag">    0.35    0.35</time>
   <time name="diis">    1.43    1.45</time>
   <time name="orth">    0.07    0.07</time>
   <time name="total">    2.37    2.39</time>
   <energy>
    <i name="e_fr_energy">   -258.86040846 </i>
    <i name="e_wo_entrp">   -258.86040846 </i>
    <i name="e_0_energy">   -258.86040846 </i>
   </energy>
  </scstep>
  <scstep>
   <time name="diag">    0.35    0.35</time>
   <time name="diis">    1.59    1.60</time>
   <time name="orth">    0.07    0.07</time>
   <time name="total">    2.53    2.55</time>
   <energy>
    <i name="e_fr_energy">   -258.86041439 </i>
    <i name="e_wo_entrp">   -258.86041439 </i>
    <i name="e_0_energy">   -258.86041439 </i>
   </energy>
  </scstep>
  <scstep>
   <time name="diag">    0.35    0.36</time>
   <time name="diis">    1.25    1.26</time>
   <time name="orth">    0.07    0.07</time>
   <time name="total">    2.18    2.20</time>
   <energy>
    <i name="e_fr_energy">   -258.86041404 </i>
    <i name="e_wo_entrp">   -258.86041404 </i>
    <i name="e_0_energy">   -258.86041404 </i>
   </energy>
  </scstep>
  <scstep>
   <time name="diag">    0.36    0.48</time>
   <time name="diis">    1.11    1.12</time>
   <time name="orth">    0.07    0.07</time>
   <time name="total">    1.98    2.12</time>
   <energy>
    <i name="alphaZ">    301.75268061 </i>
    <i name="ewald">  -8833.00424458 </i>
    <i name="hartreedc">  -2199.56160907 </i>
    <i name="XCdc">    537.92667303 </i>
    <i name="pawpsdc">   9812.77714036 </i>
    <i name="pawaedc">  -9956.72473810 </i>
    <i name="eentropy">     -0.00000000 </i>
    <i name="bandstr">  -2625.16631172 </i>
    <i name="atom">  12703.13999606 </i>
    <i name="e_fr_energy">   -258.86041340 </i>
    <i name="e_wo_entrp">   -258.86041340 </i>
    <i name="e_0_energy">   -258.86041340 </i>
   </energy>
  </scstep>
  <structure>
   <crystal>
    <varray name="basis" >
     <v>       9.65347267       0.00000000       0.00000000 </v>
     <v>       0.00000000       9.65347267       0.00000000 </v>
     <v>       0.00000000       0.00000000       9.65347267 </v>
    </varray>
    <i name="volume">    899.60262533 </i>
    <varray name="rec_basis" >
     <v>       0.10358967       0.00000000       0.00000000 </v>
     <v>       0.00000000       0.10358967       0.00000000 </v>
     <v>       0.00000000       0.00000000       0.10358967 </v>
    </varray>
   </crystal>
   <varray name="positions" >
    <v>       0.96232348       0.33042296       0.31367649 </v>
    <v>       0.96286501       0.84416958       0.81392697 </v>
    <v>       0.01756518       0.27165202       0.70719835 </v>
    <v>       0.02323131       0.77087511       0.16645322 </v>
    <v>       0.46876352       0.31782406       0.83936907 </v>
    <v>       0.31081488       0.71221047       0.01462224 </v>
    <v>       0.82952806       0.19181435       0.03120680 </v>
    <v>       0.70498150       0.69192825       0.98874488 </v>
    <v>       0.20749565       0.97012184       0.21170291 </v>
    <v>       0.17642910       0.16711043       0.95929010 </v>
    <v>       0.66296194       0.96423622       0.72143766 </v>
    <v>       0.81004445       0.99901530       0.22231789 </v>
    <v>       0.14693224       0.68197727       0.45767317 </v>
    <v>       0.21924742       0.29347582       0.51460844 </v>
    <v>       0.70921043       0.78350185       0.52345371 </v>
    <v>       0.71539677       0.20223488       0.49469941 </v>
    <v>       0.21131651       0.48671526       0.72952829 </v>
    <v>       0.30782724       0.50562497       0.19471236 </v>
    <v>       0.65641366       0.43811345       0.18617243 </v>
    <v>       0.82174926       0.52910229       0.67612679 </v>
    <v>       0.32983488       0.03382145       0.66321923 </v>
    <v>       0.46123550       0.79655713       0.33352411 </v>
    <v>       0.52637019       0.14756404       0.30006398 </v>
    <v>       0.52009791       0.67341640       0.78241986 </v>
    <v>       0.50256468       0.48974490       0.49726515 </v>
    <v>       0.50363126       0.99893372       0.00165638 </v>
    <v>       0.99503174       0.49090221       0.00415251 </v>
    <v>       0.00748575       0.98291708       0.50761744 </v>
    <v>       0.13959498       0.87133052       0.62905266 </v>
    <v>       0.11168198       0.11882975       0.38203896 </v>
    <v>       0.90236326       0.84221306       0.38605305 </v>
    <v>       0.87559288       0.08714664       0.63957048 </v>
    <v>       0.86665009       0.58681778       0.14404307 </v>
    <v>       0.87247476       0.37653725       0.87384622 </v>
    <v>       0.10489251       0.63569110       0.89266084 </v>
    <v>       0.12063324       0.35996711       0.11468605 </v>
    <v>       0.63077236       0.13016220       0.89400394 </v>
    <v>       0.61164176       0.87251587       0.13468548 </v>
    <v>       0.37040758       0.12180895       0.11298875 </v>
    <v>       0.39294958       0.88363952       0.86077604 </v>
    <v>       0.62820705       0.60803816       0.37390526 </v>
    <v>       0.61779561       0.38082492       0.63836336 </v>
    <v>       0.36843590       0.62227826       0.59642324 </v>
    <v>       0.39845588       0.35655681       0.36740268 </v>
    <v>       0.74768512       0.74287825       0.75699017 </v>
    <v>       0.75079322       0.22752548       0.25897531 </v>
    <v>       0.24778328       0.73635311       0.24290483 </v>
    <v>       0.25294382       0.25053272       0.74689773 </v>
    <v>       0.99580884       0.98908669       0.03036572 </v>
    <v>       0.02191306       0.46435075       0.52637490 </v>
    <v>       0.52974487       0.98805742       0.50198429 </v>
    <v>       0.49007086       0.52347055       0.99561736 </v>
   </varray>
  </structure>
  <varray name="forces" >
   <v>       0.00000479       0.00117879       0.00007825 </v>
   <v>      -0.00017792       0.00128649      -0.00024782 </v>
   <v>      -0.00005001       0.00053491      -0.00034773 </v>
   <v>      -0.00012749       0.00036145      -0.00100309 </v>
   <v>       0.00024621      -0.00047085       0.00066814 </v>
   <v>       0.00053874       0.00024193      -0.00001194 </v>
   <v>       0.00120139       0.00009886       0.00034551 </v>
   <v>       0.00003418      -0.00042133       0.00037857 </v>
   <v>       0.00014044       0.00004603       0.00060124 </v>
   <v>      -0.00021253      -0.00072556       0.00000343 </v>
   <v>      -0.00128721      -0.00024642      -0.00012662 </v>
   <v>      -0.00002617      -0.00046673      -0.00061400 </v>
   <v>      -0.00131529       0.00004668       0.00001271 </v>
   <v>      -0.00065753       0.00151092       0.00000908 </v>
   <v>       0.00015131       0.00022752      -0.00003595 </v>
   <v>       0.00005713      -0.00026193       0.00040320 </v>
   <v>       0.00060542       0.00034761       0.00127984 </v>
   <v>       0.00031575      -0.00012383      -0.00034838 </v>
   <v>      -0.00065395       0.00006365      -0.00015667 </v>
   <v>      -0.00000843      -0.00039734      -0.00051566 </v>
   <v>       0.00016834       0.00019133      -0.00063739 </v>
   <v>       0.00027762      -0.00043511       0.00105680 </v>
   <v>      -0.00007320      -0.00075436       0.00028430 </v>
   <v>      -0.00007060      -0.00062770       0.00029127 </v>
   <v>       0.00079445       0.00070121      -0.00025439 </v>
   <v>       0.00007473      -0.00010649      -0.00031239 </v>
   <v>      -0.00074740      -0.00023957      -0.00009130 </v>
   <v>       0.00046490       0.00033155      -0.00000205 </v>
   <v>      -0.00010598       0.00025869      -0.00029138 </v>
   <v>      -0.00050121       0.00017601       0.00037455 </v>
   <v>       0.00093109      -0.00030193      -0.00007447 </v>
   <v>       0.00027842      -0.00096499       0.00055082 </v>
   <v>       0.00057314      -0.00116338       0.00029908 </v>
   <v>      -0.00022593       0.00083770       0.00042106 </v>
   <v>      -0.00048446       0.00089121       0.00018324 </v>
   <v>      -0.00016524       0.00000074      -0.00063534 </v>
   <v>       0.00099592       0.00002019       0.00048238 </v>
   <v>      -0.00054776      -0.00033594       0.00007854 </v>
   <v>       0.00076830       0.00011346      -0.00088070 </v>
   <v>       0.00095961       0.00090554      -0.00025721 </v>
   <v>      -0.00028138      -0.00126432       0.00088989 </v>
   <v>      -0.00079944      -0.00006900       0.00020091 </v>
   <v>      -0.00011361       0.00011826      -0.00097431 </v>
   <v>       0.00021125      -0.00058829      -0.00031798 </v>
   <v>       0.00030339      -0.00020384       0.00019564 </v>
   <v>       0.00004742      -0.00006352       0.00015582 </v>
   <v>       0.00006020      -0.00018871       0.00028157 </v>
   <v>       0.00026078       0.00000622       0.00007086 </v>
   <v>       0.00020841       0.00028292      -0.00078911 </v>
   <v>      -0.00135379       0.00092488      -0.00070228 </v>
   <v>      -0.00064382      -0.00036729      -0.00016085 </v>
   <v>      -0.00004297      -0.00091634       0.00019229 </v>
  </varray>
  <varray name="stress" >
   <v>       1.01556508       2.59663759       1.53159578 </v>
   <v>       2.59663713      -1.38562139       1.54756091 </v>
   <v>       1.53159444       1.54756026       0.06181392 </v>
  </varray>
  <energy>
   <i name="e_fr_energy">   -272.46079928 </i>
   <i name="e_wo_entrp">   -272.46079928 </i>
   <i name="e_0_energy">   -272.46079928 </i>
  </energy>
  <time name="totalsc">   63.84   64.69</time>
 </calculation>
 <calculation>
  <scstep>
   <time name="dav">    2.24    2.27</time>
   <time name="total">    2.76    2.79</time>
   <energy>
    <i name="alphaZ">    301.75268061 </i>
    <i name="ewald">  -8833.00351015 </i>
    <i name="hartreedc">  -2199.56491529 </i>
    <i name="XCdc">    537.92681640 </i>
    <i name="pawpsdc">   9812.76723486 </i>
    <i name="pawaedc">  -9956.71474190 </i>
    <i name="eentropy">     -0.00000000 </i>
    <i name="bandstr">  -2625.16397680 </i>
    <i name="atom">  12703.13999606 </i>
    <i name="e_fr_energy">   -258.86041621 </i>
    <i name="e_wo_entrp">   -258.86041621 </i>
    <i name="e_0_energy">   -258.86041621 </i>
   </energy>
  </scstep>
  <scstep>
   <time name="diag">    0.36    0.37</time>
   <time name="diis">    0.83    0.84</time>
   <time name="orth">    0.07    0.07</time>
   <time name="total">    1.71    1.73</time>
   <energy>
    <i name="alphaZ">    301.75268061 </i>
    <i name="ewald">  -8833.00351015 </i>
    <i name="hartreedc">  -2199.56719025 </i>
    <i name="XCdc">    537.92666549 </i>
    <i name="pawpsdc">   9812.74792345 </i>
    <i name="pawaedc">  -9956.69497768 </i>
    <i name="eentropy">     -0.00000000 </i>
    <i name="bandstr">  -2625.16200403 </i>
    <i name="atom">  12703.13999606 </i>
    <i name="e_fr_energy">   -258.86041649 </i>
    <i name="e_wo_entrp">   -258.86041649 </i>
    <i name="e_0_energy">   -258.86041649 </i>
   </energy>
  </scstep>
  <structure>
   <crystal>
    <varray name="basis" >
     <v>       9.65347267       0.00000000       0.00000000 </v>
     <v>       0.00000000       9.65347267       0.00000000 </v>
     <v>       0.00000000       0.00000000       9.65347267 </v>
    </varray>
    <i name="volume">    899.60262533 </i>
    <varray name="rec_basis" >
     <v>       0.10358967       0.00000000       0.00000000 </v>
     <v>       0.00000000       0.10358967       0.00000000 </v>
     <v>       0.00000000       0.00000000       0.10358967 </v>
    </varray>
   </crystal>
   <varray name="positions" >
    <v>       0.96232349       0.33042532       0.31367665 </v>
    <v>       0.96286465       0.84417215       0.81392647 </v>
    <v>       0.01756508       0.27165309       0.70719765 </v>
    <v>       0.02323106       0.77087583       0.16645122 </v>
    <v>       0.46876401       0.31782312       0.83937041 </v>
    <v>       0.31081596       0.71221095       0.01462222 </v>
    <v>       0.82953046       0.19181455       0.03120749 </v>
    <v>       0.70498157       0.69192741       0.98874564 </v>
    <v>       0.20749593       0.97012193       0.21170411 </v>
    <v>       0.17642867       0.16710898       0.95929011 </v>
    <v>       0.66295936       0.96423572       0.72143741 </v>
    <v>       0.81004440       0.99901437       0.22231667 </v>
    <v>       0.14692961       0.68197736       0.45767320 </v>
    <v>       0.21924610       0.29347884       0.51460846 </v>
    <v>       0.70921073       0.78350231       0.52345364 </v>
    <v>       0.71539689       0.20223435       0.49470022 </v>
    <v>       0.21131772       0.48671595       0.72953085 </v>
    <v>       0.30782788       0.50562473       0.19471166 </v>
    <v>       0.65641235       0.43811358       0.18617212 </v>
    <v>       0.82174924       0.52910149       0.67612576 </v>
    <v>       0.32983522       0.03382184       0.66321795 </v>
    <v>       0.46123605       0.79655626       0.33352623 </v>
    <v>       0.52637004       0.14756253       0.30006455 </v>
    <v>       0.52009777       0.67341515       0.78242044 </v>
    <v>       0.50256627       0.48974631       0.49726465 </v>
    <v>       0.50363141       0.99893351       0.00165576 </v>
    <v>       0.99503024       0.49090173       0.00415233 </v>
    <v>       0.00748668       0.98291775       0.50761744 </v>
    <v>       0.13959477       0.87133104       0.62905208 </v>
    <v>       0.11168098       0.11883010       0.38203970 </v>
    <v>       0.90236512       0.84221245       0.38605290 </v>
    <v>       0.87559343       0.08714471       0.63957158 </v>
    <v>       0.86665123       0.58681546       0.14404367 </v>
    <v>       0.87247431       0.37653892       0.87384707 </v>
    <v>       0.10489154       0.63569288       0.89266121 </v>
    <v>       0.12063291       0.35996711       0.11468478 </v>
    <v>       0.63077435       0.13016225       0.89400490 </v>
    <v>       0.61164067       0.87251520       0.13468563 </v>
    <v>       0.37040912       0.12180918       0.11298698 </v>
    <v>       0.39295150       0.88364133       0.86077553 </v>
    <v>       0.62820648       0.60803563       0.37390704 </v>
    <v>       0.61779401       0.38082478       0.63836377 </v>
    <v>       0.36843567       0.62227850       0.59642129 </v>
    <v>       0.39845630       0.35655564       0.36740205 </v>
    <v>       0.74768573       0.74287784       0.75699056 </v>
    <v>       0.75079332       0.22752536       0.25897562 </v>
    <v>       0.24778340       0.73635274       0.24290539 </v>
    <v>       0.25294434       0.25053273       0.74689787 </v>
    <v>       0.99580926       0.98908726       0.03036415 </v>
    <v>       0.02191035       0.46435259       0.52637350 </v>
    <v>       0.52974358       0.98805669       0.50198397 </v>
    <v>       0.49007078       0.52346872       0.99561775 </v>
   </varray>
  </structure>
  <varray name="forces" >
   <v>      -0.00006084       0.00070958       0.00002058 </v>
   <v>      -0.00015415       0.00077630      -0.00018509 </v>
   <v>      -0.00008388       0.00025591      -0.00019185 </v>
   <v>      -0.00005136       0.00020452      -0.00063411 </v>
   <v>       0.00010113      -0.00030840       0.00038702 </v>
   <v>       0.00029497       0.00014989       0.00000847 </v>
   <v>       0.00069055       0.00006088       0.00022240 </v>
   <v>       0.00000873      -0.00025225       0.00020045 </v>
   <v>       0.00008608       0.00003599       0.00031417 </v>
   <v>      -0.00014498      -0.00043158      -0.00006101 </v>
   <v>      -0.00081828      -0.00017219      -0.00006834 </v>
   <v>      -0.00003363      -0.00026077      -0.00034371 </v>
   <v>      -0.00083185       0.00003419      -0.00004938 </v>
   <v>      -0.00037339       0.00090881      -0.00005468 </v>
   <v>       0.00009555       0.00014181      -0.00000372 </v>
   <v>       0.00003017      -0.00016824       0.00021785 </v>
   <v>       0.00034716       0.00022207       0.00074429 </v>
   <v>       0.00014812      -0.00009091      -0.00018879 </v>
   <v>      -0.00042215      -0.00006864      -0.00012396 </v>
   <v>      -0.00005296      -0.00019826      -0.00032738 </v>
   <v>       0.00006331       0.00016440      -0.00041800 </v>
   <v>       0.00005797      -0.00025998       0.00059764 </v>
   <v>      -0.00004868      -0.00045440       0.00014557 </v>
   <v>      -0.00004933      -0.00035740       0.00010214 </v>
   <v>       0.00002454       0.00001238      -0.00004205 </v>
   <v>       0.00035498      -0.00002822      -0.00020949 </v>
   <v>      -0.00017634       0.00000166      -0.00018903 </v>
   <v>       0.00017614       0.00019312      -0.00004654 </v>
   <v>       0.00007544       0.00002951      -0.00003693 </v>
   <v>      -0.00016062       0.00032999      -0.00000316 </v>
   <v>       0.00037028      -0.00008172      -0.00014086 </v>
   <v>       0.00002410      -0.00037535       0.00032461 </v>
   <v>       0.00016160      -0.00037011       0.00037325 </v>
   <v>      -0.00029549       0.00022889      -0.00010711 </v>
   <v>      -0.00020760       0.00040598       0.00013857 </v>
   <v>      -0.00004050      -0.00006376      -0.00032620 </v>
   <v>       0.00065915      -0.00004677       0.00014567 </v>
   <v>      -0.00023576      -0.00030752       0.00010483 </v>
   <v>       0.00024221       0.00010207      -0.00030194 </v>
   <v>       0.00043648       0.00021449      -0.00032059 </v>
   <v>       0.00022813      -0.00026317       0.00013569 </v>
   <v>      -0.00036185      -0.00014360       0.00019814 </v>
   <v>      -0.00012482       0.00008599      -0.00038956 </v>
   <v>       0.00004567      -0.00022974      -0.00004673 </v>
   <v>      -0.00010314      -0.00005785       0.00005012 </v>
   <v>       0.00004711      -0.00026125       0.00012689 </v>
   <v>      -0.00000066      -0.00002302      -0.00007469 </v>
   <v>      -0.00010913       0.00021314      -0.00015241 </v>
   <v>      -0.00001573       0.00002325       0.00035293 </v>
   <v>       0.00004390      -0.00041065       0.00027538 </v>
   <v>       0.00034835      -0.00017247      -0.00004755 </v>
   <v>      -0.00020472       0.00035345      -0.00010179 </v>
  </varray>
  <varray name="stress" >
   <v>       1.01010816       2.59676504       1.53079925 </v>
   <v>       2.59676461      -1.39176997       1.54780212 </v>
   <v>       1.53079787       1.54780124       0.05628128 </v>
  </varray>
  <energy>
   <i name="e_fr_energy">   -272.46080056 </i>
   <i name="e_wo_entrp">   -272.46080056 </i>
   <i name="e_0_energy">   -272.46080056 </i>
  </energy>
  <time name="totalsc">    7.33    7.41</time>
  <eigenvalues>
   <array>
    <dimension dim="1">band</dimension>
    <dimension dim="2">kpoint</dimension>
    <dimension dim="3">spin</dimension>
    <field>eigene</field>
    <field>occ</field>
    <set>
     <set comment="spin 1">
      <set comment="kpoint 1">
       <r>  -42.5419    1.0000 </r>
       <r>  -42.4439    1.0000 </r>
       <r>  -42.4350    1.0000 </r>
       <r>  -42.4211    1.0000 </r>
       <r>  -42.4156    1.0000 </r>
       <r>  -42.4114    1.0000 </r>
       <r>  -42.4032    1.0000 </r>
       <r>  -42.3858    1.0000 </r>
       <r>  -42.3850    1.0000 </r>
       <r>  -42.3784    1.0000 </r>
       <r>  -42.3775    1.0000 </r>
       <r>  -42.3702    1.0000 </r>
       <r>  -42.3639    1.0000 </r>
       <r>  -42.3559    1.0000 </r>
       <r>  -42.3487    1.0000 </r>
       <r>  -42.3350    1.0000 </r>
       <r>  -42.3345    1.0000 </r>
       <r>  -42.3283    1.0000 </r>
       <r>  -42.3063    1.0000 </r>
       <r>  -42.2959    1.0000 </r>
       <r>  -42.2876    1.0000 </r>
       <r>  -42.2702    1.0000 </r>
       <r>  -42.2667    1.0000 </r>
       <r>  -42.2070    1.0000 </r>
       <r>  -13.0086    1.0000 </r>
       <r>  -12.9725    1.0000 </r>
       <r>  -12.9581    1.0000 </r>
       <r>  -12.9503    1.0000 </r>
       <r>  -12.6319    1.0000 </r>
       <r>  -12.6200    1.0000 </r>
       <r>  -12.6147    1.0000 </r>
       <r>  -12.6070    1.0000 </r>
       <r>  -10.2444    1.0000 </r>
       <r>  -10.2266    1.0000 </r>
       <r>  -10.2094    1.0000 </r>
       <r>  -10.1059    1.0000 </r>
       <r>  -10.0265    1.0000 </r>
       <r>  -10.0207    1.0000 </r>
       <r>   -9.9804    1.0000 </r>
       <r>   -9.9564    1.0000 </r>
       <r>   -9.9229    1.0000 </r>
       <r>   -9.9031    1.0000 </r>
       <r>   -9.8721    1.0000 </r>
       <r>   -9.8322    1.0000 </r>
       <r>   -8.3087    1.0000 </r>
       <r>   -8.2918    1.0000 </r>
       <r>   -8.2635    1.0000 </r>
       <r>   -8.2410    1.0000 </r>
       <r>   -6.1023    1.0000 </r>
       <r>   -5.7005    1.0000 </r>
       <r>   -5.6218    1.0000 </r>
       <r>   -5.5699    1.0000 </r>
       <r>   -3.2029    1.0000 </r>
       <r>   -3.1823    1.0000 </r>
       <r>   -3.1376    1.0000 </r>
       <r>   -2.8729    1.0000 </r>
       <r>   -2.7090    1.0000 </r>
       <r>   -2.6242    1.0000 </r>
       <r>   -2.5347    1.0000 </r>
       <r>   -2.4557    1.0000 </r>
       <r>   -2.4084    1.0000 </r>
       <r>   -2.3460    1.0000 </r>
       <r>   -2.2941    1.0000 </r>
       <r>   -2.2604    1.0000 </r>
       <r>   -1.4655    1.0000 </r>
       <r>   -1.4517    1.0000 </r>
       <r>   -1.4130    1.0000 </r>
       <r>   -1.3987    1.0000 </r>
       <r>   -1.3619    1.0000 </r>
       <r>   -1.3354    1.0000 </r>
       <r>   -1.3170    1.0000 </r>
       <r>   -1.2967    1.0000 </r>
       <r>   -1.2311    1.0000 </r>
       <r>   -1.2148    1.0000 </r>
       <r>   -1.1662    1.0000 </r>
       <r>   -1.1486    1.0000 </r>
       <r>   -0.5360    1.0000 </r>
       <r>   -0.5076    1.0000 </r>
       <r>   -0.4786    1.0000 </r>
       <r>   -0.3237    1.0000 </r>
       <r>   -0.2672    1.0000 </r>
       <r>   -0.1404    1.0000 </r>
       <r>   -0.1045    1.0000 </r>
       <r>   -0.0572    1.0000 </r>
       <r>   -0.0198    1.0000 </r>
       <r>    0.0025    1.0000 </r>
       <r>    0.0431    1.0000 </r>
       <r>    0.0636    1.0000 </r>
       <r>    0.0946    1.0000 </r>
       <r>    0.1330    1.0000 </r>
       <r>    0.2073    1.0000 </r>
       <r>    0.2628    1.0000 </r>
       <r>    0.2876    1.0000 </r>
       <r>    0.3523    1.0000 </r>
       <r>    0.4037    1.0000 </r>
       <r>    0.4357    1.0000 </r>
       <r>    0.7257    1.0000 </r>
       <r>    0.7773    1.0000 </r>
       <r>    0.8514    1.0000 </r>
       <r>    0.9181    1.0000 </r>
       <r>    0.9742    1.0000 </r>
       <r>    1.0200    1.0000 </r>
       <r>    1.0676    1.0000 </r>
       <r>    1.0926    1.0000 </r>
       <r>    1.1424    1.0000 </r>
       <r>    1.1919    1.0000 </r>
       <r>    1.2556    1.0000 </r>
       <r>    1.3001    1.0000 </r>
       <r>    1.3397    1.0000 </r>
       <r>    1.3655    1.0000 </r>
       <r>    1.3889    1.0000 </r>
       <r>    1.4521    1.0000 </r>
       <r>    1.4906    1.0000 </r>
       <r>    1.5156    1.0000 </r>
       <r>    1.5554    1.0000 </r>
       <r>    1.5993    1.0000 </r>
       <r>    1.6121    1.0000 </r>
       <r>    1.6640    1.0000 </r>
       <r>    1.7200    1.0000 </r>
       <r>    1.8214    1.0000 </r>
       <r>    4.4533    0.0000 </r>
       <r>    5.2472    0.0000 </r>
       <r>    5.3469    0.0000 </r>
       <r>    5.3849    0.0000 </r>
       <r>    5.8841    0.0000 </r>
       <r>    5.9617    0.0000 </r>
       <r>    6.0831    0.0000 </r>
       <r>    6.1365    0.0000 </r>
       <r>    6.2035    0.0000 </r>
       <r>    6.2785    0.0000 </r>
       <r>    6.5274    0.0000 </r>
       <r>    6.6318    0.0000 </r>
       <r>    6.6923    0.0000 </r>
       <r>    6.8125    0.0000 </r>
       <r>    6.8887    0.0000 </r>
       <r>    6.9080    0.0000 </r>
       <r>    7.1591    0.0000 </r>
       <r>    7.4162    0.0000 </r>
       <r>    7.4649    0.0000 </r>
       <r>    7.6151    0.0000 </r>
       <r>    7.6984    0.0000 </r>
       <r>    7.7797    0.0000 </r>
       <r>    7.8128    0.0000 </r>
       <r>    7.8442    0.0000 </r>
       <r>    8.0797    0.0000 </r>
       <r>    8.1359    0.0000 </r>
       <r>    8.2696    0.0000 </r>
       <r>    8.3048    0.0000 </r>
       <r>    8.3955    0.0000 </r>
       <r>    8.4270    0.0000 </r>
       <r>    8.4581    0.0000 </r>
       <r>    8.5007    0.0000 </r>
       <r>    8.5406    0.0000 </r>
       <r>    8.5916    0.0000 </r>
       <r>    8.6891    0.0000 </r>
       <r>    8.7617    0.0000 </r>
       <r>    8.8637    0.0000 </r>
       <r>    8.9094    0.0000 </r>
       <r>    8.9777    0.0000 </r>
       <r>    9.0208    0.0000 </r>
       <r>    9.0781    0.0000 </r>
       <r>    9.1176    0.0000 </r>
       <r>    9.2249    0.0000 </r>
       <r>    9.2375    0.0000 </r>
       <r>    9.3197    0.0000 </r>
       <r>    9.3564    0.0000 </r>
       <r>    9.4087    0.0000 </r>
       <r>    9.4870    0.0000 </r>
       <r>    9.5726    0.0000 </r>
       <r>    9.6476    0.0000 </r>
       <r>    9.6771    0.0000 </r>
       <r>    9.7514    0.0000 </r>
       <r>    9.8498    0.0000 </r>
       <r>    9.9485    0.0000 </r>
       <r>   10.0133    0.0000 </r>
       <r>   10.1278    0.0000 </r>
      </set>
      <set comment="kpoint 2">
       <r>  -42.5419    1.0000 </r>
       <r>  -42.4439    1.0000 </r>
       <r>  -42.4350    1.0000 </r>
       <r>  -42.4211    1.0000 </r>
       <r>  -42.4156    1.0000 </r>
       <r>  -42.4114    1.0000 </r>
       <r>  -42.4032    1.0000 </r>
       <r>  -42.3858    1.0000 </r>
       <r>  -42.3850    1.0000 </r>
       <r>  -42.3784    1.0000 </r>
       <r>  -42.3775    1.0000 </r>
       <r>  -42.3702    1.0000 </r>
       <r>  -42.3639    1.0000 </r>
       <r>  -42.3559    1.0000 </r>
       <r>  -42.3487    1.0000 </r>
       <r>  -42.3350    1.0000 </r>
       <r>  -42.3345    1.0000 </r>
       <r>  -42.3283    1.0000 </r>
       <r>  -42.3063    1.0000 </r>
       <r>  -42.2959    1.0000 </r>
       <r>  -42.2876    1.0000 </r>
       <r>  -42.2702    1.0000 </r>
       <r>  -42.2667    1.0000 </r>
       <r>  -42.2070    1.0000 </r>
       <r>  -13.0080    1.0000 </r>
       <r>  -12.9728    1.0000 </r>
       <r>  -12.9603    1.0000 </r>
       <r>  -12.9484    1.0000 </r>
       <r>  -12.6317    1.0000 </r>
       <r>  -12.6200    1.0000 </r>
       <r>  -12.6147    1.0000 </r>
       <r>  -12.6070    1.0000 </r>
       <r>  -10.2414    1.0000 </r>
       <r>  -10.2291    1.0000 </r>
       <r>  -10.2133    1.0000 </r>
       <r>  -10.1039    1.0000 </r>
       <r>  -10.0344    1.0000 </r>
       <r>   -9.9979    1.0000 </r>
       <r>   -9.9903    1.0000 </r>
       <r>   -9.9488    1.0000 </r>
       <r>   -9.9334    1.0000 </r>
       <r>   -9.9062    1.0000 </r>
       <r>   -9.8739    1.0000 </r>
       <r>   -9.8279    1.0000 </r>
       <r>   -8.3085    1.0000 </r>
       <r>   -8.2921    1.0000 </r>
       <r>   -8.2632    1.0000 </r>
       <r>   -8.2411    1.0000 </r>
       <r>   -6.0954    1.0000 </r>
       <r>   -5.7116    1.0000 </r>
       <r>   -5.6515    1.0000 </r>
       <r>   -5.5358    1.0000 </r>
       <r>   -3.2069    1.0000 </r>
       <r>   -3.1618    1.0000 </r>
       <r>   -3.1602    1.0000 </r>
       <r>   -2.8526    1.0000 </r>
       <r>   -2.6978    1.0000 </r>
       <r>   -2.6551    1.0000 </r>
       <r>   -2.5382    1.0000 </r>
       <r>   -2.4551    1.0000 </r>
       <r>   -2.4301    1.0000 </r>
       <r>   -2.3492    1.0000 </r>
       <r>   -2.2811    1.0000 </r>
       <r>   -2.2326    1.0000 </r>
       <r>   -1.4842    1.0000 </r>
       <r>   -1.4408    1.0000 </r>
       <r>   -1.4061    1.0000 </r>
       <r>   -1.4003    1.0000 </r>
       <r>   -1.3680    1.0000 </r>
       <r>   -1.3424    1.0000 </r>
       <r>   -1.3135    1.0000 </r>
       <r>   -1.2939    1.0000 </r>
       <r>   -1.2473    1.0000 </r>
       <r>   -1.2087    1.0000 </r>
       <r>   -1.1634    1.0000 </r>
       <r>   -1.1408    1.0000 </r>
       <r>   -0.5685    1.0000 </r>
       <r>   -0.4871    1.0000 </r>
       <r>   -0.4438    1.0000 </r>
       <r>   -0.3120    1.0000 </r>
       <r>   -0.2687    1.0000 </r>
       <r>   -0.1417    1.0000 </r>
       <r>   -0.1203    1.0000 </r>
       <r>   -0.0941    1.0000 </r>
       <r>   -0.0386    1.0000 </r>
       <r>    0.0217    1.0000 </r>
       <r>    0.0621    1.0000 </r>
       <r>    0.0961    1.0000 </r>
       <r>    0.1228    1.0000 </r>
       <r>    0.1511    1.0000 </r>
       <r>    0.1627    1.0000 </r>
       <r>    0.2071    1.0000 </r>
       <r>    0.3015    1.0000 </r>
       <r>    0.3409    1.0000 </r>
       <r>    0.3787    1.0000 </r>
       <r>    0.4556    1.0000 </r>
       <r>    0.7599    1.0000 </r>
       <r>    0.7820    1.0000 </r>
       <r>    0.8437    1.0000 </r>
       <r>    0.9497    1.0000 </r>
       <r>    0.9732    1.0000 </r>
       <r>    0.9976    1.0000 </r>
       <r>    1.0638    1.0000 </r>
       <r>    1.0906    1.0000 </r>
       <r>    1.1200    1.0000 </r>
       <r>    1.1962    1.0000 </r>
       <r>    1.2821    1.0000 </r>
       <r>    1.2997    1.0000 </r>
       <r>    1.3380    1.0000 </r>
       <r>    1.3779    1.0000 </r>
       <r>    1.4108    1.0000 </r>
       <r>    1.4363    1.0000 </r>
       <r>    1.4920    1.0000 </r>
       <r>    1.5136    1.0000 </r>
       <r>    1.5251    1.0000 </r>
       <r>    1.5820    1.0000 </r>
       <r>    1.6204    1.0000 </r>
       <r>    1.6624    1.0000 </r>
       <r>    1.7319    1.0000 </r>
       <r>    1.8108    1.0000 </r>
       <r>    4.4689    0.0000 </r>
       <r>    5.2548    0.0000 </r>
       <r>    5.3059    0.0000 </r>
       <r>    5.4503    0.0000 </r>
       <r>    5.9090    0.0000 </r>
       <r>    5.9664    0.0000 </r>
       <r>    6.0101    0.0000 </r>
       <r>    6.1755    0.0000 </r>
       <r>    6.2404    0.0000 </r>
       <r>    6.2837    0.0000 </r>
       <r>    6.5441    0.0000 </r>
       <r>    6.5646    0.0000 </r>
       <r>    6.6438    0.0000 </r>
       <r>    6.8156    0.0000 </r>
       <r>    6.8441    0.0000 </r>
       <r>    6.9161    0.0000 </r>
       <r>    7.1724    0.0000 </r>
       <r>    7.4703    0.0000 </r>
       <r>    7.5155    0.0000 </r>
       <r>    7.5496    0.0000 </r>
       <r>    7.6897    0.0000 </r>
       <r>    7.7218    0.0000 </r>
       <r>    7.8514    0.0000 </r>
       <r>    7.9355    0.0000 </r>
       <r>    8.0618    0.0000 </r>
       <r>    8.1486    0.0000 </r>
       <r>    8.1995    0.0000 </r>
       <r>    8.2728    0.0000 </r>
       <r>    8.3179    0.0000 </r>
       <r>    8.3873    0.0000 </r>
       <r>    8.4695    0.0000 </r>
       <r>    8.5371    0.0000 </r>
       <r>    8.5795    0.0000 </r>
       <r>    8.6212    0.0000 </r>
       <r>    8.6766    0.0000 </r>
       <r>    8.7579    0.0000 </r>
       <r>    8.8683    0.0000 </r>
       <r>    8.9146    0.0000 </r>
       <r>    8.9869    0.0000 </r>
       <r>    9.0629    0.0000 </r>
       <r>    9.0923    0.0000 </r>
       <r>    9.1246    0.0000 </r>
       <r>    9.2476    0.0000 </r>
       <r>    9.2684    0.0000 </r>
       <r>    9.2925    0.0000 </r>
       <r>    9.3765    0.0000 </r>
       <r>    9.4676    0.0000 </r>
       <r>    9.5228    0.0000 </r>
       <r>    9.5582    0.0000 </r>
       <r>    9.5906    0.0000 </r>
       <r>    9.6651    0.0000 </r>
       <r>    9.7552    0.0000 </r>
       <r>    9.8472    0.0000 </r>
       <r>    9.9070    0.0000 </r>
       <r>    9.9993    0.0000 </r>
       <r>   10.0843    0.0000 </r>
      </set>
      <set comment="kpoint 3">
       <r>  -42.5419    1.0000 </r>
       <r>  -42.4440    1.0000 </r>
       <r>  -42.4350    1.0000 </r>
       <r>  -42.4211    1.0000 </r>
       <r>  -42.4156    1.0000 </r>
       <r>  -42.4114    1.0000 </r>
       <r>  -42.4032    1.0000 </r>
       <r>  -42.3858    1.0000 </r>
       <r>  -42.3850    1.0000 </r>
       <r>  -42.3784    1.0000 </r>
       <r>  -42.3775    1.0000 </r>
       <r>  -42.3702    1.0000 </r>
       <r>  -42.3639    1.0000 </r>
       <r>  -42.3559    1.0000 </r>
       <r>  -42.3487    1.0000 </r>
       <r>  -42.3350    1.0000 </r>
       <r>  -42.3345    1.0000 </r>
       <r>  -42.3283    1.0000 </r>
       <r>  -42.3063    1.0000 </r>
       <r>  -42.2959    1.0000 </r>
       <r>  -42.2876    1.0000 </r>
       <r>  -42.2702    1.0000 </r>
       <r>  -42.2667    1.0000 </r>
       <r>  -42.2070    1.0000 </r>
       <r>  -13.0087    1.0000 </r>
       <r>  -12.9716    1.0000 </r>
       <r>  -12.9587    1.0000 </r>
       <r>  -12.9506    1.0000 </r>
       <r>  -12.6318    1.0000 </r>
       <r>  -12.6199    1.0000 </r>
       <r>  -12.6146    1.0000 </r>
       <r>  -12.6072    1.0000 </r>
       <r>  -10.2535    1.0000 </r>
       <r>  -10.2409    1.0000 </r>
       <r>  -10.1934    1.0000 </r>
       <r>  -10.0809    1.0000 </r>
       <r>  -10.0298    1.0000 </r>
       <r>  -10.0019    1.0000 </r>
       <r>   -9.9963    1.0000 </r>
       <r>   -9.9718    1.0000 </r>
       <r>   -9.9280    1.0000 </r>
       <r>   -9.9041    1.0000 </r>
       <r>   -9.8716    1.0000 </r>
       <r>   -9.8285    1.0000 </r>
       <r>   -8.3083    1.0000 </r>
       <r>   -8.2920    1.0000 </r>
       <r>   -8.2634    1.0000 </r>
       <r>   -8.2412    1.0000 </r>
       <r>   -6.1000    1.0000 </r>
       <r>   -5.6619    1.0000 </r>
       <r>   -5.6407    1.0000 </r>
       <r>   -5.5932    1.0000 </r>
       <r>   -3.2028    1.0000 </r>
       <r>   -3.1863    1.0000 </r>
       <r>   -3.1368    1.0000 </r>
       <r>   -2.8256    1.0000 </r>
       <r>   -2.7386    1.0000 </r>
       <r>   -2.6448    1.0000 </r>
       <r>   -2.5237    1.0000 </r>
       <r>   -2.4712    1.0000 </r>
       <r>   -2.4389    1.0000 </r>
       <r>   -2.3390    1.0000 </r>
       <r>   -2.2843    1.0000 </r>
       <r>   -2.2248    1.0000 </r>
       <r>   -1.4751    1.0000 </r>
       <r>   -1.4539    1.0000 </r>
       <r>   -1.4223    1.0000 </r>
       <r>   -1.3821    1.0000 </r>
       <r>   -1.3659    1.0000 </r>
       <r>   -1.3457    1.0000 </r>
       <r>   -1.3273    1.0000 </r>
       <r>   -1.3023    1.0000 </r>
       <r>   -1.2292    1.0000 </r>
       <r>   -1.2054    1.0000 </r>
       <r>   -1.1640    1.0000 </r>
       <r>   -1.1408    1.0000 </r>
       <r>   -0.5467    1.0000 </r>
       <r>   -0.4852    1.0000 </r>
       <r>   -0.4590    1.0000 </r>
       <r>   -0.3382    1.0000 </r>
       <r>   -0.2486    1.0000 </r>
       <r>   -0.1413    1.0000 </r>
       <r>   -0.1286    1.0000 </r>
       <r>   -0.0637    1.0000 </r>
       <r>   -0.0383    1.0000 </r>
       <r>    0.0160    1.0000 </r>
       <r>    0.0456    1.0000 </r>
       <r>    0.0647    1.0000 </r>
       <r>    0.1143    1.0000 </r>
       <r>    0.1500    1.0000 </r>
       <r>    0.1763    1.0000 </r>
       <r>    0.2305    1.0000 </r>
       <r>    0.2887    1.0000 </r>
       <r>    0.3479    1.0000 </r>
       <r>    0.3977    1.0000 </r>
       <r>    0.4129    1.0000 </r>
       <r>    0.7405    1.0000 </r>
       <r>    0.8565    1.0000 </r>
       <r>    0.8876    1.0000 </r>
       <r>    0.9207    1.0000 </r>
       <r>    0.9485    1.0000 </r>
       <r>    1.0060    1.0000 </r>
       <r>    1.0510    1.0000 </r>
       <r>    1.0889    1.0000 </r>
       <r>    1.1470    1.0000 </r>
       <r>    1.2285    1.0000 </r>
       <r>    1.2411    1.0000 </r>
       <r>    1.3089    1.0000 </r>
       <r>    1.3274    1.0000 </r>
       <r>    1.3532    1.0000 </r>
       <r>    1.4028    1.0000 </r>
       <r>    1.4548    1.0000 </r>
       <r>    1.4914    1.0000 </r>
       <r>    1.5297    1.0000 </r>
       <r>    1.5559    1.0000 </r>
       <r>    1.5904    1.0000 </r>
       <r>    1.6157    1.0000 </r>
       <r>    1.6571    1.0000 </r>
       <r>    1.6999    1.0000 </r>
       <r>    1.7863    1.0000 </r>
       <r>    4.4716    0.0000 </r>
       <r>    5.2737    0.0000 </r>
       <r>    5.3374    0.0000 </r>
       <r>    5.3698    0.0000 </r>
       <r>    5.9016    0.0000 </r>
       <r>    6.0019    0.0000 </r>
       <r>    6.0681    0.0000 </r>
       <r>    6.1229    0.0000 </r>
       <r>    6.1715    0.0000 </r>
       <r>    6.2892    0.0000 </r>
       <r>    6.5174    0.0000 </r>
       <r>    6.5778    0.0000 </r>
       <r>    6.6980    0.0000 </r>
       <r>    6.8231    0.0000 </r>
       <r>    6.8788    0.0000 </r>
       <r>    6.9345    0.0000 </r>
       <r>    7.1462    0.0000 </r>
       <r>    7.4191    0.0000 </r>
       <r>    7.4894    0.0000 </r>
       <r>    7.5823    0.0000 </r>
       <r>    7.6550    0.0000 </r>
       <r>    7.7715    0.0000 </r>
       <r>    7.8476    0.0000 </r>
       <r>    7.9553    0.0000 </r>
       <r>    8.0970    0.0000 </r>
       <r>    8.1447    0.0000 </r>
       <r>    8.1839    0.0000 </r>
       <r>    8.2388    0.0000 </r>
       <r>    8.3633    0.0000 </r>
       <r>    8.4189    0.0000 </r>
       <r>    8.4693    0.0000 </r>
       <r>    8.5346    0.0000 </r>
       <r>    8.6039    0.0000 </r>
       <r>    8.6526    0.0000 </r>
       <r>    8.7127    0.0000 </r>
       <r>    8.7762    0.0000 </r>
       <r>    8.8272    0.0000 </r>
       <r>    8.8670    0.0000 </r>
       <r>    8.9472    0.0000 </r>
       <r>    9.0480    0.0000 </r>
       <r>    9.0881    0.0000 </r>
       <r>    9.1498    0.0000 </r>
       <r>    9.2055    0.0000 </r>
       <r>    9.2706    0.0000 </r>
       <r>    9.3314    0.0000 </r>
       <r>    9.3561    0.0000 </r>
       <r>    9.4736    0.0000 </r>
       <r>    9.4923    0.0000 </r>
       <r>    9.5312    0.0000 </r>
       <r>    9.5744    0.0000 </r>
       <r>    9.6962    0.0000 </r>
       <r>    9.7297    0.0000 </r>
       <r>    9.8299    0.0000 </r>
       <r>    9.9168    0.0000 </r>
       <r>    9.9298    0.0000 </r>
       <r>   10.0450    0.0000 </r>
      </set>
      <set comment="kpoint 4">
       <r>  -42.5419    1.0000 </r>
       <r>  -42.4439    1.0000 </r>
       <r>  -42.4350    1.0000 </r>
       <r>  -42.4211    1.0000 </r>
       <r>  -42.4156    1.0000 </r>
       <r>  -42.4114    1.0000 </r>
       <r>  -42.4032    1.0000 </r>
       <r>  -42.3858    1.0000 </r>
       <r>  -42.3850    1.0000 </r>
       <r>  -42.3784    1.0000 </r>
       <r>  -42.3775    1.0000 </r>
       <r>  -42.3702    1.0000 </r>
       <r>  -42.3639    1.0000 </r>
       <r>  -42.3559    1.0000 </r>
       <r>  -42.3487    1.0000 </r>
       <r>  -42.3350    1.0000 </r>
       <r>  -42.3345    1.0000 </r>
       <r>  -42.3283    1.0000 </r>
       <r>  -42.3063    1.0000 </r>
       <r>  -42.2959    1.0000 </r>
       <r>  -42.2876    1.0000 </r>
       <r>  -42.2702    1.0000 </r>
       <r>  -42.2667    1.0000 </r>
       <r>  -42.2070    1.0000 </r>
       <r>  -13.0084    1.0000 </r>
       <r>  -12.9723    1.0000 </r>
       <r>  -12.9587    1.0000 </r>
       <r>  -12.9501    1.0000 </r>
       <r>  -12.6321    1.0000 </r>
       <r>  -12.6201    1.0000 </r>
       <r>  -12.6148    1.0000 </r>
       <r>  -12.6067    1.0000 </r>
       <r>  -10.2494    1.0000 </r>
       <r>  -10.2425    1.0000 </r>
       <r>  -10.2050    1.0000 </r>
       <r>  -10.0618    1.0000 </r>
       <r>  -10.0309    1.0000 </r>
       <r>  -10.0103    1.0000 </r>
       <r>   -9.9878    1.0000 </r>
       <r>   -9.9629    1.0000 </r>
       <r>   -9.9449    1.0000 </r>
       <r>   -9.9033    1.0000 </r>
       <r>   -9.8641    1.0000 </r>
       <r>   -9.8384    1.0000 </r>
       <r>   -8.3086    1.0000 </r>
       <r>   -8.2920    1.0000 </r>
       <r>   -8.2633    1.0000 </r>
       <r>   -8.2407    1.0000 </r>
       <r>   -6.0908    1.0000 </r>
       <r>   -5.6930    1.0000 </r>
       <r>   -5.6349    1.0000 </r>
       <r>   -5.5772    1.0000 </r>
       <r>   -3.1972    1.0000 </r>
       <r>   -3.1849    1.0000 </r>
       <r>   -3.1472    1.0000 </r>
       <r>   -2.7932    1.0000 </r>
       <r>   -2.7315    1.0000 </r>
       <r>   -2.6682    1.0000 </r>
       <r>   -2.5693    1.0000 </r>
       <r>   -2.4932    1.0000 </r>
       <r>   -2.4157    1.0000 </r>
       <r>   -2.3267    1.0000 </r>
       <r>   -2.2686    1.0000 </r>
       <r>   -2.2125    1.0000 </r>
       <r>   -1.4734    1.0000 </r>
       <r>   -1.4495    1.0000 </r>
       <r>   -1.4372    1.0000 </r>
       <r>   -1.3950    1.0000 </r>
       <r>   -1.3695    1.0000 </r>
       <r>   -1.3596    1.0000 </r>
       <r>   -1.3156    1.0000 </r>
       <r>   -1.2892    1.0000 </r>
       <r>   -1.2375    1.0000 </r>
       <r>   -1.2051    1.0000 </r>
       <r>   -1.1608    1.0000 </r>
       <r>   -1.1317    1.0000 </r>
       <r>   -0.5388    1.0000 </r>
       <r>   -0.5036    1.0000 </r>
       <r>   -0.4598    1.0000 </r>
       <r>   -0.3335    1.0000 </r>
       <r>   -0.2388    1.0000 </r>
       <r>   -0.1508    1.0000 </r>
       <r>   -0.1075    1.0000 </r>
       <r>   -0.0864    1.0000 </r>
       <r>   -0.0289    1.0000 </r>
       <r>    0.0103    1.0000 </r>
       <r>    0.0468    1.0000 </r>
       <r>    0.0736    1.0000 </r>
       <r>    0.1103    1.0000 </r>
       <r>    0.1689    1.0000 </r>
       <r>    0.1818    1.0000 </r>
       <r>    0.2093    1.0000 </r>
       <r>    0.2557    1.0000 </r>
       <r>    0.3275    1.0000 </r>
       <r>    0.3893    1.0000 </r>
       <r>    0.4334    1.0000 </r>
       <r>    0.7864    1.0000 </r>
       <r>    0.8418    1.0000 </r>
       <r>    0.8879    1.0000 </r>
       <r>    0.9301    1.0000 </r>
       <r>    0.9890    1.0000 </r>
       <r>    1.0314    1.0000 </r>
       <r>    1.0597    1.0000 </r>
       <r>    1.1179    1.0000 </r>
       <r>    1.1768    1.0000 </r>
       <r>    1.1977    1.0000 </r>
       <r>    1.2544    1.0000 </r>
       <r>    1.2864    1.0000 </r>
       <r>    1.3214    1.0000 </r>
       <r>    1.3613    1.0000 </r>
       <r>    1.3850    1.0000 </r>
       <r>    1.4414    1.0000 </r>
       <r>    1.4702    1.0000 </r>
       <r>    1.5246    1.0000 </r>
       <r>    1.5537    1.0000 </r>
       <r>    1.5831    1.0000 </r>
       <r>    1.6058    1.0000 </r>
       <r>    1.6570    1.0000 </r>
       <r>    1.7029    1.0000 </r>
       <r>    1.7438    1.0000 </r>
       <r>    4.5050    0.0000 </r>
       <r>    5.2106    0.0000 </r>
       <r>    5.3129    0.0000 </r>
       <r>    5.4269    0.0000 </r>
       <r>    5.9165    0.0000 </r>
       <r>    5.9795    0.0000 </r>
       <r>    6.0642    0.0000 </r>
       <r>    6.1610    0.0000 </r>
       <r>    6.2007    0.0000 </r>
       <r>    6.2590    0.0000 </r>
       <r>    6.5471    0.0000 </r>
       <r>    6.5874    0.0000 </r>
       <r>    6.6722    0.0000 </r>
       <r>    6.8254    0.0000 </r>
       <r>    6.8692    0.0000 </r>
       <r>    6.9159    0.0000 </r>
       <r>    7.1686    0.0000 </r>
       <r>    7.3944    0.0000 </r>
       <r>    7.4899    0.0000 </r>
       <r>    7.5973    0.0000 </r>
       <r>    7.7315    0.0000 </r>
       <r>    7.8169    0.0000 </r>
       <r>    7.8658    0.0000 </r>
       <r>    7.9537    0.0000 </r>
       <r>    8.0402    0.0000 </r>
       <r>    8.1003    0.0000 </r>
       <r>    8.1592    0.0000 </r>
       <r>    8.2351    0.0000 </r>
       <r>    8.2750    0.0000 </r>
       <r>    8.3495    0.0000 </r>
       <r>    8.4221    0.0000 </r>
       <r>    8.5311    0.0000 </r>
       <r>    8.6061    0.0000 </r>
       <r>    8.6552    0.0000 </r>
       <r>    8.7096    0.0000 </r>
       <r>    8.7983    0.0000 </r>
[...]
       <r>     8.1631    11.3313   146.0594 </r>
       <r>     8.3564    14.0005   148.7658 </r>
       <r>     8.5496    16.8017   152.0148 </r>
       <r>     8.7429    15.8818   155.0869 </r>
       <r>     8.9362    14.2938   157.8510 </r>
       <r>     9.1294    18.0290   161.3357 </r>
       <r>     9.3227    15.5550   164.3443 </r>
       <r>     9.5159    17.9449   167.8166 </r>
       <r>     9.7092    17.2116   171.1469 </r>
       <r>     9.9025    11.8773   173.4428 </r>
       <r>    10.0957    11.5508   175.6781 </r>
       <r>    10.2890     1.6544   176.0000 </r>
       <r>    10.4823     0.0000   176.0000 </r>
       <r>    10.6755     0.0000   176.0000 </r>
       <r>    10.8688     0.0000   176.0000 </r>
       <r>    11.0620     0.0000   176.0000 </r>
       <r>    11.2553     0.0000   176.0000 </r>
       <r>    11.4486     0.0000   176.0000 </r>
       <r>    11.6418     0.0000   176.0000 </r>
       <r>    11.8351     0.0000   176.0000 </r>
       <r>    12.0284     0.0000   176.0000 </r>
       <r>    12.2216     0.0000   176.0000 </r>
       <r>    12.4149     0.0000   176.0000 </r>
       <r>    12.6081     0.0000   176.0000 </r>
       <r>    12.8014     0.0000   176.0000 </r>
      </set>
      <set comment="spin 2">
       <r>   -45.1773     0.0000     0.0000 </r>
       <r>   -44.9840     0.0000     0.0000 </r>
       <r>   -44.7908     0.0000     0.0000 </r>
       <r>   -44.5975     0.0000     0.0000 </r>
       <r>   -44.4043     0.0000     0.0000 </r>
       <r>   -44.2110     0.0000     0.0000 </r>
       <r>   -44.0177     0.0000     0.0000 </r>
       <r>   -43.8245     0.0000     0.0000 </r>
       <r>   -43.6312     0.0000     0.0000 </r>
       <r>   -43.4379     0.0000     0.0000 </r>
       <r>   -43.2447     0.0000     0.0000 </r>
       <r>   -43.0514     0.0000     0.0000 </r>
       <r>   -42.8582     0.0000     0.0000 </r>
       <r>   -42.6649     0.0000     0.0000 </r>
       <r>   -42.4716     5.9683     1.1535 </r>
       <r>   -42.2784   102.6565    20.9936 </r>
       <r>   -42.0851    15.4645    24.0000 </r>
       <r>   -41.8918     0.0000    24.0000 </r>
       <r>   -41.6986     0.0000    24.0000 </r>
       <r>   -41.5053     0.0000    24.0000 </r>
       <r>   -41.3121     0.0000    24.0000 </r>
       <r>   -41.1188     0.0000    24.0000 </r>
       <r>   -40.9255     0.0000    24.0000 </r>
       <r>   -40.7323     0.0000    24.0000 </r>
       <r>   -40.5390     0.0000    24.0000 </r>
       <r>   -40.3457     0.0000    24.0000 </r>
       <r>   -40.1525     0.0000    24.0000 </r>
       <r>   -39.9592     0.0000    24.0000 </r>
       <r>   -39.7660     0.0000    24.0000 </r>
       <r>   -39.5727     0.0000    24.0000 </r>
       <r>   -39.3794     0.0000    24.0000 </r>
       <r>   -39.1862     0.0000    24.0000 </r>
       <r>   -38.9929     0.0000    24.0000 </r>
       <r>   -38.7996     0.0000    24.0000 </r>
       <r>   -38.6064     0.0000    24.0000 </r>
       <r>   -38.4131     0.0000    24.0000 </r>
       <r>   -38.2199     0.0000    24.0000 </r>
       <r>   -38.0266     0.0000    24.0000 </r>
       <r>   -37.8333     0.0000    24.0000 </r>
       <r>   -37.6401     0.0000    24.0000 </r>
       <r>   -37.4468     0.0000    24.0000 </r>
       <r>   -37.2535     0.0000    24.0000 </r>
       <r>   -37.0603     0.0000    24.0000 </r>
       <r>   -36.8670     0.0000    24.0000 </r>
       <r>   -36.6738     0.0000    24.0000 </r>
       <r>   -36.4805     0.0000    24.0000 </r>
       <r>   -36.2872     0.0000    24.0000 </r>
       <r>   -36.0940     0.0000    24.0000 </r>
       <r>   -35.9007     0.0000    24.0000 </r>
       <r>   -35.7074     0.0000    24.0000 </r>
       <r>   -35.5142     0.0000    24.0000 </r>
       <r>   -35.3209     0.0000    24.0000 </r>
       <r>   -35.1277     0.0000    24.0000 </r>
       <r>   -34.9344     0.0000    24.0000 </r>
       <r>   -34.7411     0.0000    24.0000 </r>
       <r>   -34.5479     0.0000    24.0000 </r>
       <r>   -34.3546     0.0000    24.0000 </r>
       <r>   -34.1613     0.0000    24.0000 </r>
       <r>   -33.9681     0.0000    24.0000 </r>
       <r>   -33.7748     0.0000    24.0000 </r>
       <r>   -33.5816     0.0000    24.0000 </r>
       <r>   -33.3883     0.0000    24.0000 </r>
       <r>   -33.1950     0.0000    24.0000 </r>
       <r>   -33.0018     0.0000    24.0000 </r>
       <r>   -32.8085     0.0000    24.0000 </r>
       <r>   -32.6152     0.0000    24.0000 </r>
       <r>   -32.4220     0.0000    24.0000 </r>
       <r>   -32.2287     0.0000    24.0000 </r>
       <r>   -32.0355     0.0000    24.0000 </r>
       <r>   -31.8422     0.0000    24.0000 </r>
       <r>   -31.6489     0.0000    24.0000 </r>
       <r>   -31.4557     0.0000    24.0000 </r>
       <r>   -31.2624     0.0000    24.0000 </r>
       <r>   -31.0692     0.0000    24.0000 </r>
       <r>   -30.8759     0.0000    24.0000 </r>
       <r>   -30.6826     0.0000    24.0000 </r>
       <r>   -30.4894     0.0000    24.0000 </r>
       <r>   -30.2961     0.0000    24.0000 </r>
       <r>   -30.1028     0.0000    24.0000 </r>
       <r>   -29.9096     0.0000    24.0000 </r>
       <r>   -29.7163     0.0000    24.0000 </r>
       <r>   -29.5231     0.0000    24.0000 </r>
       <r>   -29.3298     0.0000    24.0000 </r>
       <r>   -29.1365     0.0000    24.0000 </r>
       <r>   -28.9433     0.0000    24.0000 </r>
       <r>   -28.7500     0.0000    24.0000 </r>
       <r>   -28.5567     0.0000    24.0000 </r>
       <r>   -28.3635     0.0000    24.0000 </r>
       <r>   -28.1702     0.0000    24.0000 </r>
       <r>   -27.9770     0.0000    24.0000 </r>
       <r>   -27.7837     0.0000    24.0000 </r>
       <r>   -27.5904     0.0000    24.0000 </r>
       <r>   -27.3972     0.0000    24.0000 </r>
       <r>   -27.2039     0.0000    24.0000 </r>
       <r>   -27.0106     0.0000    24.0000 </r>
       <r>   -26.8174     0.0000    24.0000 </r>
       <r>   -26.6241     0.0000    24.0000 </r>
       <r>   -26.4309     0.0000    24.0000 </r>
       <r>   -26.2376     0.0000    24.0000 </r>
       <r>   -26.0443     0.0000    24.0000 </r>
       <r>   -25.8511     0.0000    24.0000 </r>
       <r>   -25.6578     0.0000    24.0000 </r>
       <r>   -25.4645     0.0000    24.0000 </r>
       <r>   -25.2713     0.0000    24.0000 </r>
       <r>   -25.0780     0.0000    24.0000 </r>
       <r>   -24.8848     0.0000    24.0000 </r>
       <r>   -24.6915     0.0000    24.0000 </r>
       <r>   -24.4982     0.0000    24.0000 </r>
       <r>   -24.3050     0.0000    24.0000 </r>
       <r>   -24.1117     0.0000    24.0000 </r>
       <r>   -23.9184     0.0000    24.0000 </r>
       <r>   -23.7252     0.0000    24.0000 </r>
       <r>   -23.5319     0.0000    24.0000 </r>
       <r>   -23.3387     0.0000    24.0000 </r>
       <r>   -23.1454     0.0000    24.0000 </r>
       <r>   -22.9521     0.0000    24.0000 </r>
       <r>   -22.7589     0.0000    24.0000 </r>
       <r>   -22.5656     0.0000    24.0000 </r>
       <r>   -22.3723     0.0000    24.0000 </r>
       <r>   -22.1791     0.0000    24.0000 </r>
       <r>   -21.9858     0.0000    24.0000 </r>
       <r>   -21.7926     0.0000    24.0000 </r>
       <r>   -21.5993     0.0000    24.0000 </r>
       <r>   -21.4060     0.0000    24.0000 </r>
       <r>   -21.2128     0.0000    24.0000 </r>
       <r>   -21.0195     0.0000    24.0000 </r>
       <r>   -20.8262     0.0000    24.0000 </r>
       <r>   -20.6330     0.0000    24.0000 </r>
       <r>   -20.4397     0.0000    24.0000 </r>
       <r>   -20.2465     0.0000    24.0000 </r>
       <r>   -20.0532     0.0000    24.0000 </r>
       <r>   -19.8599     0.0000    24.0000 </r>
       <r>   -19.6667     0.0000    24.0000 </r>
       <r>   -19.4734     0.0000    24.0000 </r>
       <r>   -19.2801     0.0000    24.0000 </r>
       <r>   -19.0869     0.0000    24.0000 </r>
       <r>   -18.8936     0.0000    24.0000 </r>
       <r>   -18.7004     0.0000    24.0000 </r>
       <r>   -18.5071     0.0000    24.0000 </r>
       <r>   -18.3138     0.0000    24.0000 </r>
       <r>   -18.1206     0.0000    24.0000 </r>
       <r>   -17.9273     0.0000    24.0000 </r>
       <r>   -17.7340     0.0000    24.0000 </r>
       <r>   -17.5408     0.0000    24.0000 </r>
       <r>   -17.3475     0.0000    24.0000 </r>
       <r>   -17.1543     0.0000    24.0000 </r>
       <r>   -16.9610     0.0000    24.0000 </r>
       <r>   -16.7677     0.0000    24.0000 </r>
       <r>   -16.5745     0.0000    24.0000 </r>
       <r>   -16.3812     0.0000    24.0000 </r>
       <r>   -16.1879     0.0000    24.0000 </r>
       <r>   -15.9947     0.0000    24.0000 </r>
       <r>   -15.8014     0.0000    24.0000 </r>
       <r>   -15.6082     0.0000    24.0000 </r>
       <r>   -15.4149     0.0000    24.0000 </r>
       <r>   -15.2216     0.0000    24.0000 </r>
       <r>   -15.0284     0.0000    24.0000 </r>
       <r>   -14.8351     0.0000    24.0000 </r>
       <r>   -14.6418     0.0000    24.0000 </r>
       <r>   -14.4486     0.0000    24.0000 </r>
       <r>   -14.2553     0.0000    24.0000 </r>
       <r>   -14.0621     0.0000    24.0000 </r>
       <r>   -13.8688     0.0000    24.0000 </r>
       <r>   -13.6755     0.0000    24.0000 </r>
       <r>   -13.4823     0.0000    24.0000 </r>
       <r>   -13.2890     0.0000    24.0000 </r>
       <r>   -13.0958     0.0001    24.0000 </r>
       <r>   -12.9025    20.6078    27.9827 </r>
       <r>   -12.7092     0.0205    28.0002 </r>
       <r>   -12.5160    20.6964    32.0000 </r>
       <r>   -12.3227     0.0000    32.0000 </r>
       <r>   -12.1294     0.0000    32.0000 </r>
       <r>   -11.9362     0.0000    32.0000 </r>
       <r>   -11.7429     0.0000    32.0000 </r>
       <r>   -11.5497     0.0000    32.0000 </r>
       <r>   -11.3564     0.0000    32.0000 </r>
       <r>   -11.1631     0.0000    32.0000 </r>
       <r>   -10.9699     0.0000    32.0000 </r>
       <r>   -10.7766     0.0000    32.0000 </r>
       <r>   -10.5833     0.0000    32.0000 </r>
       <r>   -10.3901     0.0000    32.0000 </r>
       <r>   -10.1968    13.4183    34.5933 </r>
       <r>   -10.0036    16.2703    37.7434 </r>
       <r>    -9.8103    31.5251    43.8368 </r>
       <r>    -9.6170     0.8306    44.0000 </r>
       <r>    -9.4238     0.0000    44.0000 </r>
       <r>    -9.2305     0.0000    44.0000 </r>
       <r>    -9.0372     0.0000    44.0000 </r>
       <r>    -8.8440     0.0000    44.0000 </r>
       <r>    -8.6507     0.0000    44.0000 </r>
       <r>    -8.4575     0.0000    44.0000 </r>
       <r>    -8.2642    12.9785    46.5083 </r>
       <r>    -8.0709     7.7187    48.0000 </r>
       <r>    -7.8777     0.0000    48.0000 </r>
       <r>    -7.6844     0.0000    48.0000 </r>
       <r>    -7.4911     0.0000    48.0000 </r>
       <r>    -7.2979     0.0000    48.0000 </r>
       <r>    -7.1046     0.0000    48.0000 </r>
       <r>    -6.9114     0.0000    48.0000 </r>
       <r>    -6.7181     0.0000    48.0000 </r>
       <r>    -6.5248     0.0000    48.0000 </r>
       <r>    -6.3316     0.0000    48.0000 </r>
       <r>    -6.1383     0.1480    48.0286 </r>
       <r>    -5.9450     5.0263    49.0000 </r>
       <r>    -5.7518     0.0515    49.0100 </r>
       <r>    -5.5585    13.6663    51.6511 </r>
       <r>    -5.3653     1.8031    52.0000 </r>
       <r>    -5.1720     0.0000    52.0000 </r>
       <r>    -4.9787     0.0000    52.0000 </r>
       <r>    -4.7855     0.0000    52.0000 </r>
       <r>    -4.5922     0.0000    52.0000 </r>
       <r>    -4.3989     0.0000    52.0000 </r>
       <r>    -4.2057     0.0000    52.0000 </r>
       <r>    -4.0124     0.0000    52.0000 </r>
       <r>    -3.8192     0.0000    52.0000 </r>
       <r>    -3.6259     0.0000    52.0000 </r>
       <r>    -3.4326     0.0000    52.0000 </r>
       <r>    -3.2394     0.2415    52.0467 </r>
       <r>    -3.0461    15.2814    55.0000 </r>
       <r>    -2.8528     1.8451    55.3566 </r>
       <r>    -2.6596    10.2110    57.3300 </r>
       <r>    -2.4663    11.5306    59.5610 </r>
       <r>    -2.2731    16.3867    62.7291 </r>
       <r>    -2.0798     6.5671    64.0000 </r>
       <r>    -1.8865     0.0000    64.0000 </r>
       <r>    -1.6933     0.0000    64.0000 </r>
       <r>    -1.5000     0.7049    64.1362 </r>
       <r>    -1.3067    35.3024    70.9589 </r>
       <r>    -1.1135    25.4418    75.8801 </r>
       <r>    -0.9202     0.5720    76.0000 </r>
       <r>    -0.7270     0.0000    76.0000 </r>
       <r>    -0.5337     3.9268    76.7589 </r>
       <r>    -0.3404    13.0641    79.2837 </r>
       <r>    -0.1472    11.5797    81.5216 </r>
       <r>     0.0461    25.7897    86.5058 </r>
       <r>     0.2394    26.9090    91.7066 </r>
       <r>     0.4326    19.2678    95.4317 </r>
       <r>     0.6259     2.9333    96.0000 </r>
       <r>     0.8191     8.0754    97.5607 </r>
       <r>     1.0124    20.0905   101.4441 </r>
       <r>     1.2057    21.2128   105.5445 </r>
       <r>     1.3989    25.5529   110.4840 </r>
       <r>     1.5922    26.9755   115.6986 </r>
       <r>     1.7855    19.1661   119.4035 </r>
       <r>     1.9787     3.0775   120.0000 </r>
       <r>     2.1720     0.0000   120.0000 </r>
       <r>     2.3652     0.0000   120.0000 </r>
       <r>     2.5585     0.0000   120.0000 </r>
       <r>     2.7518     0.0000   120.0000 </r>
       <r>     2.9450     0.0000   120.0000 </r>
       <r>     3.1383     0.0000   120.0000 </r>
       <r>     3.3316     0.0000   120.0000 </r>
       <r>     3.5248     0.0000   120.0000 </r>
       <r>     3.7181     0.0000   120.0000 </r>
       <r>     3.9113     0.0000   120.0000 </r>
       <r>     4.1046     0.0000   120.0000 </r>
       <r>     4.2979     0.0000   120.0000 </r>
       <r>     4.4911     3.7434   120.7235 </r>
       <r>     4.6844     1.4309   121.0000 </r>
       <r>     4.8777     0.0000   121.0000 </r>
       <r>     5.0709     0.0000   121.0000 </r>
       <r>     5.2642     3.6437   121.7042 </r>
       <r>     5.4574    11.2986   123.8892 </r>
       <r>     5.6507     0.5728   124.0000 </r>
       <r>     5.8440     0.0438   124.0085 </r>
       <r>     6.0372    11.6473   126.2595 </r>
       <r>     6.2305    13.1921   128.8100 </r>
       <r>     6.4237     6.1473   130.0000 </r>
       <r>     6.6170     9.3534   131.8077 </r>
       <r>     6.8103     8.0091   133.3574 </r>
       <r>     7.0035    13.6729   135.9998 </r>
       <r>     7.1968     4.8349   136.9344 </r>
       <r>     7.3901     1.1240   137.1538 </r>
       <r>     7.5833    11.8625   139.4463 </r>
       <r>     7.7766    10.7406   141.5223 </r>
       <r>     7.9698    12.1392   143.8696 </r>
       <r>     8.1631    11.3355   146.0603 </r>
       <r>     8.3564    13.9993   148.7664 </r>
       <r>     8.5496    16.8018   152.0155 </r>
       <r>     8.7429    15.8897   155.0889 </r>
       <r>     8.9362    14.3041   157.8549 </r>
       <r>     9.1294    17.9885   161.3318 </r>
       <r>     9.3227    15.4790   164.3254 </r>
       <r>     9.5159    18.0511   167.8176 </r>
       <r>     9.7092    17.4398   171.1909 </r>
       <r>     9.9025    15.2991   174.1499 </r>
       <r>    10.0957     6.8320   175.4755 </r>
       <r>    10.2890     2.7141   176.0000 </r>
       <r>    10.4823     0.0000   176.0000 </r>
       <r>    10.6755     0.0000   176.0000 </r>
       <r>    10.8688     0.0000   176.0000 </r>
       <r>    11.0620     0.0000   176.0000 </r>
       <r>    11.2553     0.0000   176.0000 </r>
       <r>    11.4486     0.0000   176.0000 </r>
       <r>    11.6418     0.0000   176.0000 </r>
       <r>    11.8351     0.0000   176.0000 </r>
       <r>    12.0284     0.0000   176.0000 </r>
       <r>    12.2216     0.0000   176.0000 </r>
       <r>    12.4149     0.0000   176.0000 </r>
       <r>    12.6081     0.0000   176.0000 </r>
       <r>    12.8014     0.0000   176.0000 </r>
      </set>
     </set>
    </array>
   </total>
  </dos>
 </calculation>
 <structure name="finalpos" >
  <crystal>
   <varray name="basis" >
    <v>       9.65347267       0.00000000       0.00000000 </v>
    <v>       0.00000000       9.65347267       0.00000000 </v>
    <v>       0.00000000       0.00000000       9.65347267 </v>
   </varray>
   <i name="volume">    899.60262533 </i>
   <varray name="rec_basis" >
    <v>       0.10358967       0.00000000       0.00000000 </v>
    <v>       0.00000000       0.10358967       0.00000000 </v>
    <v>       0.00000000       0.00000000       0.10358967 </v>
   </varray>
  </crystal>
  <varray name="positions" >
   <v>       0.96232349       0.33042532       0.31367665 </v>
   <v>       0.96286465       0.84417215       0.81392647 </v>
   <v>       0.01756508       0.27165309       0.70719765 </v>
   <v>       0.02323106       0.77087583       0.16645122 </v>
   <v>       0.46876401       0.31782312       0.83937041 </v>
   <v>       0.31081596       0.71221095       0.01462222 </v>
   <v>       0.82953046       0.19181455       0.03120749 </v>
   <v>       0.70498157       0.69192741       0.98874564 </v>
   <v>       0.20749593       0.97012193       0.21170411 </v>
   <v>       0.17642867       0.16710898       0.95929011 </v>
   <v>       0.66295936       0.96423572       0.72143741 </v>
   <v>       0.81004440       0.99901437       0.22231667 </v>
   <v>       0.14692961       0.68197736       0.45767320 </v>
   <v>       0.21924610       0.29347884       0.51460846 </v>
   <v>       0.70921073       0.78350231       0.52345364 </v>
   <v>       0.71539689       0.20223435       0.49470022 </v>
   <v>       0.21131772       0.48671595       0.72953085 </v>
   <v>       0.30782788       0.50562473       0.19471166 </v>
   <v>       0.65641235       0.43811358       0.18617212 </v>
   <v>       0.82174924       0.52910149       0.67612576 </v>
   <v>       0.32983522       0.03382184       0.66321795 </v>
   <v>       0.46123605       0.79655626       0.33352623 </v>
   <v>       0.52637004       0.14756253       0.30006455 </v>
   <v>       0.52009777       0.67341515       0.78242044 </v>
   <v>       0.50256627       0.48974631       0.49726465 </v>
   <v>       0.50363141       0.99893351       0.00165576 </v>
   <v>       0.99503024       0.49090173       0.00415233 </v>
   <v>       0.00748668       0.98291775       0.50761744 </v>
   <v>       0.13959477       0.87133104       0.62905208 </v>
   <v>       0.11168098       0.11883010       0.38203970 </v>
   <v>       0.90236512       0.84221245       0.38605290 </v>
   <v>       0.87559343       0.08714471       0.63957158 </v>
   <v>       0.86665123       0.58681546       0.14404367 </v>
   <v>       0.87247431       0.37653892       0.87384707 </v>
   <v>       0.10489154       0.63569288       0.89266121 </v>
   <v>       0.12063291       0.35996711       0.11468478 </v>
   <v>       0.63077435       0.13016225       0.89400490 </v>
   <v>       0.61164067       0.87251520       0.13468563 </v>
   <v>       0.37040912       0.12180918       0.11298698 </v>
   <v>       0.39295150       0.88364133       0.86077553 </v>
   <v>       0.62820648       0.60803563       0.37390704 </v>
   <v>       0.61779401       0.38082478       0.63836377 </v>
   <v>       0.36843567       0.62227850       0.59642129 </v>
   <v>       0.39845630       0.35655564       0.36740205 </v>
   <v>       0.74768573       0.74287784       0.75699056 </v>
   <v>       0.75079332       0.22752536       0.25897562 </v>
   <v>       0.24778340       0.73635274       0.24290539 </v>
   <v>       0.25294434       0.25053273       0.74689787 </v>
   <v>       0.99580926       0.98908726       0.03036415 </v>
   <v>       0.02191035       0.46435259       0.52637350 </v>
   <v>       0.52974358       0.98805669       0.50198397 </v>
   <v>       0.49007078       0.52346872       0.99561775 </v>
  </varray>
 </structure>
</modeling>
