unknown system                          
           1
     9.653473    0.000000    0.000000
     0.000000    9.653473    0.000000
     0.000000    0.000000    9.653473
   Li   P    S    Cl
    24     4    20     4
Direct configuration=     1
   0.96232348  0.33042296  0.31367649
   0.96286501  0.84416958  0.81392697
   0.01756518  0.27165202  0.70719835
   0.02323131  0.77087511  0.16645322
   0.46876352  0.31782406  0.83936907
   0.31081488  0.71221047  0.01462224
   0.82952806  0.19181435  0.03120680
   0.70498150  0.69192825  0.98874488
   0.20749565  0.97012184  0.21170291
   0.17642910  0.16711043  0.95929010
   0.66296194  0.96423622  0.72143766
   0.81004445  0.99901530  0.22231789
   0.14693224  0.68197727  0.45767317
   0.21924742  0.29347582  0.51460844
   0.70921043  0.78350185  0.52345371
   0.71539677  0.20223488  0.49469941
   0.21131651  0.48671526  0.72952829
   0.30782724  0.50562497  0.19471236
   0.65641366  0.43811345  0.18617243
   0.82174926  0.52910229  0.67612679
   0.32983488  0.03382145  0.66321923
   0.46123550  0.79655713  0.33352411
   0.52637019  0.14756404  0.30006398
   0.52009791  0.67341640  0.78241986
   0.50256468  0.48974490  0.49726515
   0.50363126  0.99893372  0.00165638
   0.99503174  0.49090221  0.00415251
   0.00748575  0.98291708  0.50761744
   0.13959498  0.87133052  0.62905266
   0.11168198  0.11882975  0.38203896
   0.90236326  0.84221306  0.38605305
   0.87559288  0.08714664  0.63957048
   0.86665009  0.58681778  0.14404307
   0.87247476  0.37653725  0.87384622
   0.10489251  0.63569110  0.89266084
   0.12063324  0.35996711  0.11468605
   0.63077236  0.13016220  0.89400394
   0.61164176  0.87251587  0.13468548
   0.37040758  0.12180895  0.11298875
   0.39294958  0.88363952  0.86077604
   0.62820705  0.60803816  0.37390526
   0.61779561  0.38082492  0.63836336
   0.36843590  0.62227826  0.59642324
   0.39845588  0.35655681  0.36740268
   0.74768512  0.74287825  0.75699017
   0.75079322  0.22752548  0.25897531
   0.24778328  0.73635311  0.24290483
   0.25294382  0.25053272  0.74689773
   0.99580884  0.98908669  0.03036572
   0.02191306  0.46435075  0.52637490
   0.52974487  0.98805742  0.50198429
   0.49007086  0.52347055  0.99561736
Direct configuration=     2
   0.96232349  0.33042532  0.31367665
   0.96286465  0.84417215  0.81392647
   0.01756508  0.27165309  0.70719765
   0.02323106  0.77087583  0.16645122
   0.46876401  0.31782312  0.83937041
   0.31081596  0.71221095  0.01462222
   0.82953046  0.19181455  0.03120749
   0.70498157  0.69192741  0.98874564
   0.20749593  0.97012193  0.21170411
   0.17642867  0.16710898  0.95929011
   0.66295936  0.96423572  0.72143741
   0.81004440  0.99901437  0.22231667
   0.14692961  0.68197736  0.45767320
   0.21924610  0.29347884  0.51460846
   0.70921073  0.78350231  0.52345364
   0.71539689  0.20223435  0.49470022
   0.21131772  0.48671595  0.72953085
   0.30782788  0.50562473  0.19471166
   0.65641235  0.43811358  0.18617212
   0.82174924  0.52910149  0.67612576
   0.32983522  0.03382184  0.66321795
   0.46123605  0.79655626  0.33352623
   0.52637004  0.14756253  0.30006455
   0.52009777  0.67341515  0.78242044
   0.50256627  0.48974631  0.49726465
   0.50363141  0.99893351  0.00165576
   0.99503024  0.49090173  0.00415233
   0.00748668  0.98291775  0.50761744
   0.13959477  0.87133104  0.62905208
   0.11168098  0.11883010  0.38203970
   0.90236512  0.84221245  0.38605290
   0.87559343  0.08714471  0.63957158
   0.86665123  0.58681546  0.14404367
   0.87247431  0.37653892  0.87384707
   0.10489154  0.63569288  0.89266121
   0.12063291  0.35996711  0.11468478
   0.63077435  0.13016225  0.89400490
   0.61164067  0.87251520  0.13468563
   0.37040912  0.12180918  0.11298698
   0.39295150  0.88364133  0.86077553
   0.62820648  0.60803563  0.37390704
   0.61779401  0.38082478  0.63836377
   0.36843567  0.62227850  0.59642129
   0.39845630  0.35655564  0.36740205
   0.74768573  0.74287784  0.75699056
   0.75079332  0.22752536  0.25897562
   0.24778340  0.73635274  0.24290539
   0.25294434  0.25053273  0.74689787
   0.99580926  0.98908726  0.03036415
   0.02191035  0.46435259  0.52637350
   0.52974358  0.98805669  0.50198397
   0.49007078  0.52346872  0.99561775
