  52  52   0  16
  0.1719694E+02  0.9634255E-09  0.9634255E-09  0.9634255E-09  0.2000000E-15
  1.000000000000000E-004
  CAR 
 unknown system                          
     12.73857236    -45.13937172  301      2.15173175      1.00000000
    -45.139  0.0000E+00  0.0000E+00  0.0000E+00  0.0000E+00
    -44.946  0.0000E+00  0.0000E+00  0.0000E+00  0.0000E+00
    -44.754  0.0000E+00  0.0000E+00  0.0000E+00  0.0000E+00
    -44.561  0.0000E+00  0.0000E+00  0.0000E+00  0.0000E+00
    -44.368  0.0000E+00  0.0000E+00  0.0000E+00  0.0000E+00
    -44.175  0.0000E+00  0.0000E+00  0.0000E+00  0.0000E+00
    -43.982  0.0000E+00  0.0000E+00  0.0000E+00  0.0000E+00
    -43.789  0.0000E+00  0.0000E+00  0.0000E+00  0.0000E+00
    -43.596  0.0000E+00  0.0000E+00  0.0000E+00  0.0000E+00
    -43.403  0.0000E+00  0.0000E+00  0.0000E+00  0.0000E+00
    -43.210  0.0000E+00  0.0000E+00  0.0000E+00  0.0000E+00
    -43.017  0.0000E+00  0.0000E+00  0.0000E+00  0.0000E+00
    -42.824  0.0000E+00  0.0000E+00  0.0000E+00  0.0000E+00
    -42.631  0.6511E-10  0.6511E-10  0.1256E-10  0.1256E-10
    -42.438  0.2073E-01  0.2073E-01  0.3999E-02  0.3999E-02
    -42.245  0.5948E-01  0.5948E-01  0.1548E-01  0.1548E-01
    -42.053  0.4418E-01  0.4418E-01  0.2400E-01  0.2400E-01
    -41.860  0.0000E+00  0.0000E+00  0.2400E-01  0.2400E-01
    -41.667  0.0000E+00  0.0000E+00  0.2400E-01  0.2400E-01
    -41.474  0.0000E+00  0.0000E+00  0.2400E-01  0.2400E-01
    -41.281  0.0000E+00  0.0000E+00  0.2400E-01  0.2400E-01
    -41.088  0.0000E+00  0.0000E+00  0.2400E-01  0.2400E-01
    -40.895  0.0000E+00  0.0000E+00  0.2400E-01  0.2400E-01
    -40.702  0.0000E+00  0.0000E+00  0.2400E-01  0.2400E-01
    -40.509  0.0000E+00  0.0000E+00  0.2400E-01  0.2400E-01
    -40.316  0.0000E+00  0.0000E+00  0.2400E-01  0.2400E-01
    -40.123  0.0000E+00  0.0000E+00  0.2400E-01  0.2400E-01
    -39.930  0.0000E+00  0.0000E+00  0.2400E-01  0.2400E-01
    -39.737  0.0000E+00  0.0000E+00  0.2400E-01  0.2400E-01
    -39.545  0.0000E+00  0.0000E+00  0.2400E-01  0.2400E-01
    -39.352  0.0000E+00  0.0000E+00  0.2400E-01  0.2400E-01
    -39.159  0.0000E+00  0.0000E+00  0.2400E-01  0.2400E-01
    -38.966  0.0000E+00  0.0000E+00  0.2400E-01  0.2400E-01
    -38.773  0.0000E+00  0.0000E+00  0.2400E-01  0.2400E-01
    -38.580  0.0000E+00  0.0000E+00  0.2400E-01  0.2400E-01
    -38.387  0.0000E+00  0.0000E+00  0.2400E-01  0.2400E-01
    -38.194  0.0000E+00  0.0000E+00  0.2400E-01  0.2400E-01
    -38.001  0.0000E+00  0.0000E+00  0.2400E-01  0.2400E-01
    -37.808  0.0000E+00  0.0000E+00  0.2400E-01  0.2400E-01
    -37.615  0.0000E+00  0.0000E+00  0.2400E-01  0.2400E-01
    -37.422  0.0000E+00  0.0000E+00  0.2400E-01  0.2400E-01
    -37.229  0.0000E+00  0.0000E+00  0.2400E-01  0.2400E-01
    -37.036  0.0000E+00  0.0000E+00  0.2400E-01  0.2400E-01
    -36.844  0.0000E+00  0.0000E+00  0.2400E-01  0.2400E-01
    -36.651  0.0000E+00  0.0000E+00  0.2400E-01  0.2400E-01
    -36.458  0.0000E+00  0.0000E+00  0.2400E-01  0.2400E-01
    -36.265  0.0000E+00  0.0000E+00  0.2400E-01  0.2400E-01
    -36.072  0.0000E+00  0.0000E+00  0.2400E-01  0.2400E-01
    -35.879  0.0000E+00  0.0000E+00  0.2400E-01  0.2400E-01
    -35.686  0.0000E+00  0.0000E+00  0.2400E-01  0.2400E-01
    -35.493  0.0000E+00  0.0000E+00  0.2400E-01  0.2400E-01
    -35.300  0.0000E+00  0.0000E+00  0.2400E-01  0.2400E-01
    -35.107  0.0000E+00  0.0000E+00  0.2400E-01  0.2400E-01
    -34.914  0.0000E+00  0.0000E+00  0.2400E-01  0.2400E-01
    -34.721  0.0000E+00  0.0000E+00  0.2400E-01  0.2400E-01
    -34.528  0.0000E+00  0.0000E+00  0.2400E-01  0.2400E-01
    -34.335  0.0000E+00  0.0000E+00  0.2400E-01  0.2400E-01
    -34.143  0.0000E+00  0.0000E+00  0.2400E-01  0.2400E-01
    -33.950  0.0000E+00  0.0000E+00  0.2400E-01  0.2400E-01
    -33.757  0.0000E+00  0.0000E+00  0.2400E-01  0.2400E-01
    -33.564  0.0000E+00  0.0000E+00  0.2400E-01  0.2400E-01
    -33.371  0.0000E+00  0.0000E+00  0.2400E-01  0.2400E-01
    -33.178  0.0000E+00  0.0000E+00  0.2400E-01  0.2400E-01
    -32.985  0.0000E+00  0.0000E+00  0.2400E-01  0.2400E-01
    -32.792  0.0000E+00  0.0000E+00  0.2400E-01  0.2400E-01
    -32.599  0.0000E+00  0.0000E+00  0.2400E-01  0.2400E-01
    -32.406  0.0000E+00  0.0000E+00  0.2400E-01  0.2400E-01
    -32.213  0.0000E+00  0.0000E+00  0.2400E-01  0.2400E-01
    -32.020  0.0000E+00  0.0000E+00  0.2400E-01  0.2400E-01
    -31.827  0.0000E+00  0.0000E+00  0.2400E-01  0.2400E-01
    -31.635  0.0000E+00  0.0000E+00  0.2400E-01  0.2400E-01
    -31.442  0.0000E+00  0.0000E+00  0.2400E-01  0.2400E-01
    -31.249  0.0000E+00  0.0000E+00  0.2400E-01  0.2400E-01
    -31.056  0.0000E+00  0.0000E+00  0.2400E-01  0.2400E-01
    -30.863  0.0000E+00  0.0000E+00  0.2400E-01  0.2400E-01
    -30.670  0.0000E+00  0.0000E+00  0.2400E-01  0.2400E-01
    -30.477  0.0000E+00  0.0000E+00  0.2400E-01  0.2400E-01
    -30.284  0.0000E+00  0.0000E+00  0.2400E-01  0.2400E-01
    -30.091  0.0000E+00  0.0000E+00  0.2400E-01  0.2400E-01
    -29.898  0.0000E+00  0.0000E+00  0.2400E-01  0.2400E-01
    -29.705  0.0000E+00  0.0000E+00  0.2400E-01  0.2400E-01
    -29.512  0.0000E+00  0.0000E+00  0.2400E-01  0.2400E-01
    -29.319  0.0000E+00  0.0000E+00  0.2400E-01  0.2400E-01
    -29.126  0.0000E+00  0.0000E+00  0.2400E-01  0.2400E-01
    -28.934  0.0000E+00  0.0000E+00  0.2400E-01  0.2400E-01
    -28.741  0.0000E+00  0.0000E+00  0.2400E-01  0.2400E-01
    -28.548  0.0000E+00  0.0000E+00  0.2400E-01  0.2400E-01
    -28.355  0.0000E+00  0.0000E+00  0.2400E-01  0.2400E-01
    -28.162  0.0000E+00  0.0000E+00  0.2400E-01  0.2400E-01
    -27.969  0.0000E+00  0.0000E+00  0.2400E-01  0.2400E-01
    -27.776  0.0000E+00  0.0000E+00  0.2400E-01  0.2400E-01
    -27.583  0.0000E+00  0.0000E+00  0.2400E-01  0.2400E-01
    -27.390  0.0000E+00  0.0000E+00  0.2400E-01  0.2400E-01
    -27.197  0.0000E+00  0.0000E+00  0.2400E-01  0.2400E-01
    -27.004  0.0000E+00  0.0000E+00  0.2400E-01  0.2400E-01
    -26.811  0.0000E+00  0.0000E+00  0.2400E-01  0.2400E-01
    -26.618  0.0000E+00  0.0000E+00  0.2400E-01  0.2400E-01
    -26.426  0.0000E+00  0.0000E+00  0.2400E-01  0.2400E-01
    -26.233  0.0000E+00  0.0000E+00  0.2400E-01  0.2400E-01
    -26.040  0.0000E+00  0.0000E+00  0.2400E-01  0.2400E-01
    -25.847  0.0000E+00  0.0000E+00  0.2400E-01  0.2400E-01
    -25.654  0.0000E+00  0.0000E+00  0.2400E-01  0.2400E-01
    -25.461  0.0000E+00  0.0000E+00  0.2400E-01  0.2400E-01
    -25.268  0.0000E+00  0.0000E+00  0.2400E-01  0.2400E-01
    -25.075  0.0000E+00  0.0000E+00  0.2400E-01  0.2400E-01
    -24.882  0.0000E+00  0.0000E+00  0.2400E-01  0.2400E-01
    -24.689  0.0000E+00  0.0000E+00  0.2400E-01  0.2400E-01
    -24.496  0.0000E+00  0.0000E+00  0.2400E-01  0.2400E-01
    -24.303  0.0000E+00  0.0000E+00  0.2400E-01  0.2400E-01
    -24.110  0.0000E+00  0.0000E+00  0.2400E-01  0.2400E-01
    -23.917  0.0000E+00  0.0000E+00  0.2400E-01  0.2400E-01
    -23.725  0.0000E+00  0.0000E+00  0.2400E-01  0.2400E-01
    -23.532  0.0000E+00  0.0000E+00  0.2400E-01  0.2400E-01
    -23.339  0.0000E+00  0.0000E+00  0.2400E-01  0.2400E-01
    -23.146  0.0000E+00  0.0000E+00  0.2400E-01  0.2400E-01
    -22.953  0.0000E+00  0.0000E+00  0.2400E-01  0.2400E-01
    -22.760  0.0000E+00  0.0000E+00  0.2400E-01  0.2400E-01
    -22.567  0.0000E+00  0.0000E+00  0.2400E-01  0.2400E-01
    -22.374  0.0000E+00  0.0000E+00  0.2400E-01  0.2400E-01
    -22.181  0.0000E+00  0.0000E+00  0.2400E-01  0.2400E-01
    -21.988  0.0000E+00  0.0000E+00  0.2400E-01  0.2400E-01
    -21.795  0.0000E+00  0.0000E+00  0.2400E-01  0.2400E-01
    -21.602  0.0000E+00  0.0000E+00  0.2400E-01  0.2400E-01
    -21.409  0.0000E+00  0.0000E+00  0.2400E-01  0.2400E-01
    -21.216  0.0000E+00  0.0000E+00  0.2400E-01  0.2400E-01
    -21.024  0.0000E+00  0.0000E+00  0.2400E-01  0.2400E-01
    -20.831  0.0000E+00  0.0000E+00  0.2400E-01  0.2400E-01
    -20.638  0.0000E+00  0.0000E+00  0.2400E-01  0.2400E-01
    -20.445  0.0000E+00  0.0000E+00  0.2400E-01  0.2400E-01
    -20.252  0.0000E+00  0.0000E+00  0.2400E-01  0.2400E-01
    -20.059  0.0000E+00  0.0000E+00  0.2400E-01  0.2400E-01
    -19.866  0.0000E+00  0.0000E+00  0.2400E-01  0.2400E-01
    -19.673  0.0000E+00  0.0000E+00  0.2400E-01  0.2400E-01
    -19.480  0.0000E+00  0.0000E+00  0.2400E-01  0.2400E-01
    -19.287  0.0000E+00  0.0000E+00  0.2400E-01  0.2400E-01
    -19.094  0.0000E+00  0.0000E+00  0.2400E-01  0.2400E-01
    -18.901  0.0000E+00  0.0000E+00  0.2400E-01  0.2400E-01
    -18.708  0.0000E+00  0.0000E+00  0.2400E-01  0.2400E-01
    -18.516  0.0000E+00  0.0000E+00  0.2400E-01  0.2400E-01
    -18.323  0.0000E+00  0.0000E+00  0.2400E-01  0.2400E-01
    -18.130  0.0000E+00  0.0000E+00  0.2400E-01  0.2400E-01
    -17.937  0.0000E+00  0.0000E+00  0.2400E-01  0.2400E-01
    -17.744  0.0000E+00  0.0000E+00  0.2400E-01  0.2400E-01
    -17.551  0.0000E+00  0.0000E+00  0.2400E-01  0.2400E-01
    -17.358  0.0000E+00  0.0000E+00  0.2400E-01  0.2400E-01
    -17.165  0.0000E+00  0.0000E+00  0.2400E-01  0.2400E-01
    -16.972  0.0000E+00  0.0000E+00  0.2400E-01  0.2400E-01
    -16.779  0.0000E+00  0.0000E+00  0.2400E-01  0.2400E-01
    -16.586  0.0000E+00  0.0000E+00  0.2400E-01  0.2400E-01
    -16.393  0.0000E+00  0.0000E+00  0.2400E-01  0.2400E-01
    -16.200  0.0000E+00  0.0000E+00  0.2400E-01  0.2400E-01
    -16.007  0.0000E+00  0.0000E+00  0.2400E-01  0.2400E-01
    -15.815  0.0000E+00  0.0000E+00  0.2400E-01  0.2400E-01
    -15.622  0.0000E+00  0.0000E+00  0.2400E-01  0.2400E-01
    -15.429  0.0000E+00  0.0000E+00  0.2400E-01  0.2400E-01
    -15.236  0.0000E+00  0.0000E+00  0.2400E-01  0.2400E-01
    -15.043  0.0000E+00  0.0000E+00  0.2400E-01  0.2400E-01
    -14.850  0.0000E+00  0.0000E+00  0.2400E-01  0.2400E-01
    -14.657  0.0000E+00  0.0000E+00  0.2400E-01  0.2400E-01
    -14.464  0.0000E+00  0.0000E+00  0.2400E-01  0.2400E-01
    -14.271  0.0000E+00  0.0000E+00  0.2400E-01  0.2400E-01
    -14.078  0.0000E+00  0.0000E+00  0.2400E-01  0.2400E-01
    -13.885  0.0000E+00  0.0000E+00  0.2400E-01  0.2400E-01
    -13.692  0.0000E+00  0.0000E+00  0.2400E-01  0.2400E-01
    -13.499  0.0000E+00  0.0000E+00  0.2400E-01  0.2400E-01
    -13.307  0.0000E+00  0.0000E+00  0.2400E-01  0.2400E-01
    -13.114  0.4740E-11  0.4740E-11  0.2400E-01  0.2400E-01
    -12.921  0.1094E-01  0.1094E-01  0.2611E-01  0.2611E-01
    -12.728  0.9797E-02  0.9797E-02  0.2800E-01  0.2800E-01
    -12.535  0.2073E-01  0.2073E-01  0.3200E-01  0.3200E-01
    -12.342  0.0000E+00  0.0000E+00  0.3200E-01  0.3200E-01
    -12.149  0.0000E+00  0.0000E+00  0.3200E-01  0.3200E-01
    -11.956  0.0000E+00  0.0000E+00  0.3200E-01  0.3200E-01
    -11.763  0.0000E+00  0.0000E+00  0.3200E-01  0.3200E-01
    -11.570  0.0000E+00  0.0000E+00  0.3200E-01  0.3200E-01
    -11.377  0.0000E+00  0.0000E+00  0.3200E-01  0.3200E-01
    -11.184  0.0000E+00  0.0000E+00  0.3200E-01  0.3200E-01
    -10.991  0.0000E+00  0.0000E+00  0.3200E-01  0.3200E-01
    -10.798  0.0000E+00  0.0000E+00  0.3200E-01  0.3200E-01
    -10.606  0.0000E+00  0.0000E+00  0.3200E-01  0.3200E-01
    -10.413  0.2518E-18  0.2518E-18  0.3200E-01  0.3200E-01
    -10.220  0.2818E-02  0.2818E-02  0.3254E-01  0.3254E-01
    -10.027  0.1718E-01  0.1718E-01  0.3586E-01  0.3586E-01
     -9.834  0.3200E-01  0.3200E-01  0.4203E-01  0.4203E-01
     -9.641  0.1018E-01  0.1018E-01  0.4400E-01  0.4400E-01
     -9.448  0.0000E+00  0.0000E+00  0.4400E-01  0.4400E-01
     -9.255  0.0000E+00  0.0000E+00  0.4400E-01  0.4400E-01
     -9.062  0.0000E+00  0.0000E+00  0.4400E-01  0.4400E-01
     -8.869  0.0000E+00  0.0000E+00  0.4400E-01  0.4400E-01
     -8.676  0.0000E+00  0.0000E+00  0.4400E-01  0.4400E-01
     -8.483  0.0000E+00  0.0000E+00  0.4400E-01  0.4400E-01
     -8.290  0.5021E-05  0.5021E-05  0.4400E-01  0.4400E-01
     -8.097  0.2073E-01  0.2073E-01  0.4800E-01  0.4800E-01
     -7.905  0.0000E+00  0.0000E+00  0.4800E-01  0.4800E-01
     -7.712  0.0000E+00  0.0000E+00  0.4800E-01  0.4800E-01
     -7.519  0.0000E+00  0.0000E+00  0.4800E-01  0.4800E-01
     -7.326  0.0000E+00  0.0000E+00  0.4800E-01  0.4800E-01
     -7.133  0.0000E+00  0.0000E+00  0.4800E-01  0.4800E-01
     -6.940  0.0000E+00  0.0000E+00  0.4800E-01  0.4800E-01
     -6.747  0.0000E+00  0.0000E+00  0.4800E-01  0.4800E-01
     -6.554  0.0000E+00  0.0000E+00  0.4800E-01  0.4800E-01
     -6.361  0.1310E-03  0.1310E-03  0.4803E-01  0.4803E-01
     -6.168  0.5169E-03  0.5169E-03  0.4813E-01  0.4813E-01
     -5.975  0.2194E-03  0.2194E-03  0.4817E-01  0.4817E-01
     -5.782  0.4330E-02  0.4330E-02  0.4900E-01  0.4900E-01
     -5.589  0.9148E-02  0.9148E-02  0.5077E-01  0.5077E-01
     -5.397  0.5784E-02  0.5784E-02  0.5188E-01  0.5188E-01
     -5.204  0.5995E-03  0.5995E-03  0.5200E-01  0.5200E-01
     -5.011  0.0000E+00  0.0000E+00  0.5200E-01  0.5200E-01
     -4.818  0.0000E+00  0.0000E+00  0.5200E-01  0.5200E-01
     -4.625  0.0000E+00  0.0000E+00  0.5200E-01  0.5200E-01
     -4.432  0.0000E+00  0.0000E+00  0.5200E-01  0.5200E-01
     -4.239  0.0000E+00  0.0000E+00  0.5200E-01  0.5200E-01
     -4.046  0.0000E+00  0.0000E+00  0.5200E-01  0.5200E-01
     -3.853  0.0000E+00  0.0000E+00  0.5200E-01  0.5200E-01
     -3.660  0.0000E+00  0.0000E+00  0.5200E-01  0.5200E-01
     -3.467  0.3597E-19  0.3597E-19  0.5200E-01  0.5200E-01
     -3.274  0.2460E-02  0.2460E-02  0.5247E-01  0.5247E-01
     -3.081  0.3400E-02  0.3400E-02  0.5313E-01  0.5313E-01
     -2.888  0.1276E-01  0.1276E-01  0.5559E-01  0.5559E-01
     -2.696  0.2876E-02  0.2876E-02  0.5615E-01  0.5615E-01
     -2.503  0.1404E-01  0.1404E-01  0.5886E-01  0.5886E-01
     -2.310  0.1339E-01  0.1339E-01  0.6144E-01  0.6144E-01
     -2.117  0.1272E-01  0.1272E-01  0.6389E-01  0.6389E-01
     -1.924  0.5486E-03  0.5486E-03  0.6400E-01  0.6400E-01
     -1.731  0.1618E-17  0.1618E-17  0.6400E-01  0.6400E-01
     -1.538  0.4489E-02  0.4489E-02  0.6487E-01  0.6487E-01
     -1.345  0.2094E-01  0.2094E-01  0.6891E-01  0.6891E-01
     -1.152  0.2015E-01  0.2015E-01  0.7279E-01  0.7279E-01
     -0.959  0.1662E-01  0.1662E-01  0.7600E-01  0.7600E-01
     -0.766  0.4887E-09  0.4887E-09  0.7600E-01  0.7600E-01
     -0.573  0.4114E-02  0.4114E-02  0.7679E-01  0.7679E-01
     -0.380  0.3895E-02  0.3895E-02  0.7755E-01  0.7755E-01
     -0.188  0.1609E-01  0.1609E-01  0.8065E-01  0.8065E-01
      0.005  0.1911E-01  0.1911E-01  0.8434E-01  0.8434E-01
      0.198  0.2723E-01  0.2723E-01  0.8959E-01  0.8959E-01
      0.391  0.2010E-01  0.2010E-01  0.9347E-01  0.9347E-01
      0.584  0.1312E-01  0.1312E-01  0.9600E-01  0.9600E-01
      0.777  0.2970E-02  0.2970E-02  0.9657E-01  0.9657E-01
      0.970  0.1355E-01  0.1355E-01  0.9919E-01  0.9919E-01
      1.163  0.2206E-01  0.2206E-01  0.1034E+00  0.1034E+00
      1.356  0.2273E-01  0.2273E-01  0.1078E+00  0.1078E+00
      1.549  0.2795E-01  0.2795E-01  0.1132E+00  0.1132E+00
      1.742  0.2568E-01  0.2568E-01  0.1182E+00  0.1182E+00
      1.935  0.9442E-02  0.9442E-02  0.1200E+00  0.1200E+00
      2.128  0.0000E+00  0.0000E+00  0.1200E+00  0.1200E+00
      2.321  0.0000E+00  0.0000E+00  0.1200E+00  0.1200E+00
      2.513  0.0000E+00  0.0000E+00  0.1200E+00  0.1200E+00
      2.706  0.0000E+00  0.0000E+00  0.1200E+00  0.1200E+00
      2.899  0.0000E+00  0.0000E+00  0.1200E+00  0.1200E+00
      3.092  0.0000E+00  0.0000E+00  0.1200E+00  0.1200E+00
      3.285  0.0000E+00  0.0000E+00  0.1200E+00  0.1200E+00
      3.478  0.0000E+00  0.0000E+00  0.1200E+00  0.1200E+00
      3.671  0.0000E+00  0.0000E+00  0.1200E+00  0.1200E+00
      3.864  0.5780E-16  0.5780E-16  0.1200E+00  0.1200E+00
      4.057  0.6209E-03  0.6209E-03  0.1201E+00  0.1201E+00
      4.250  0.2706E-04  0.2706E-04  0.1201E+00  0.1201E+00
      4.443  0.0000E+00  0.0000E+00  0.1201E+00  0.1201E+00
      4.636  0.1798E-18  0.1798E-18  0.1201E+00  0.1201E+00
      4.829  0.3589E-02  0.3589E-02  0.1208E+00  0.1208E+00
      5.022  0.3030E-02  0.3030E-02  0.1214E+00  0.1214E+00
      5.214  0.6812E-02  0.6812E-02  0.1227E+00  0.1227E+00
      5.407  0.8231E-03  0.8231E-03  0.1229E+00  0.1229E+00
      5.600  0.1159E-03  0.1159E-03  0.1229E+00  0.1229E+00
      5.793  0.3803E-02  0.3803E-02  0.1236E+00  0.1236E+00
      5.986  0.6420E-02  0.6421E-02  0.1249E+00  0.1249E+00
      6.179  0.1602E-01  0.1602E-01  0.1280E+00  0.1280E+00
      6.372  0.1497E-02  0.1497E-02  0.1283E+00  0.1283E+00
      6.565  0.1190E-01  0.1190E-01  0.1305E+00  0.1305E+00
      6.758  0.1637E-01  0.1637E-01  0.1337E+00  0.1337E+00
      6.951  0.8016E-02  0.8016E-02  0.1353E+00  0.1353E+00
      7.144  0.2475E-02  0.2475E-02  0.1357E+00  0.1357E+00
      7.337  0.5837E-02  0.5837E-02  0.1369E+00  0.1369E+00
      7.530  0.1121E-01  0.1121E-01  0.1390E+00  0.1390E+00
      7.722  0.5900E-02  0.5900E-02  0.1402E+00  0.1402E+00
      7.915  0.1290E-01  0.1290E-01  0.1427E+00  0.1427E+00
      8.108  0.9687E-02  0.9687E-02  0.1445E+00  0.1445E+00
      8.301  0.1497E-01  0.1497E-01  0.1474E+00  0.1474E+00
      8.494  0.1690E-01  0.1690E-01  0.1507E+00  0.1507E+00
      8.687  0.1662E-01  0.1662E-01  0.1539E+00  0.1539E+00
      8.880  0.1295E-01  0.1295E-01  0.1564E+00  0.1564E+00
      9.073  0.1831E-01  0.1831E-01  0.1599E+00  0.1599E+00
      9.266  0.1980E-01  0.1980E-01  0.1637E+00  0.1637E+00
      9.459  0.1170E-01  0.1170E-01  0.1660E+00  0.1660E+00
      9.652  0.1807E-01  0.1807E-01  0.1695E+00  0.1695E+00
      9.845  0.1794E-01  0.1810E-01  0.1730E+00  0.1730E+00
     10.038  0.1258E-01  0.1227E-01  0.1754E+00  0.1754E+00
     10.231  0.3182E-02  0.3342E-02  0.1760E+00  0.1760E+00
     10.423  0.0000E+00  0.0000E+00  0.1760E+00  0.1760E+00
     10.616  0.0000E+00  0.0000E+00  0.1760E+00  0.1760E+00
     10.809  0.0000E+00  0.0000E+00  0.1760E+00  0.1760E+00
     11.002  0.0000E+00  0.0000E+00  0.1760E+00  0.1760E+00
     11.195  0.0000E+00  0.0000E+00  0.1760E+00  0.1760E+00
     11.388  0.0000E+00  0.0000E+00  0.1760E+00  0.1760E+00
     11.581  0.0000E+00  0.0000E+00  0.1760E+00  0.1760E+00
     11.774  0.0000E+00  0.0000E+00  0.1760E+00  0.1760E+00
     11.967  0.0000E+00  0.0000E+00  0.1760E+00  0.1760E+00
     12.160  0.0000E+00  0.0000E+00  0.1760E+00  0.1760E+00
     12.353  0.0000E+00  0.0000E+00  0.1760E+00  0.1760E+00
     12.546  0.0000E+00  0.0000E+00  0.1760E+00  0.1760E+00
     12.739  0.0000E+00  0.0000E+00  0.1760E+00  0.1760E+00
