 vasp.6.4.1 05Apr23 (build Jun 07 2023 15:38:11) complex                        
  
 executed on             LinuxIFC date 2023.10.30  11:54:41
 running  128 mpi-ranks, with    1 threads/rank, on    1 nodes
 distrk:  each k-point on  128 cores,    1 groups
 distr:  one band on NCORE=  32 cores,    4 groups


--------------------------------------------------------------------------------------------------------


 INCAR:
   GGA = PE
   PREC = Accu
   EDIFF = 1.e-6
   EDIFFG = -1.e-3
   ENCUT = 520.
   NELM = 100
   NELMDL = -10
   LASPH = .TRUE.
   LREAL = Auto
   LMAXMIX = 4
   ISPIN = 2
   LDIAG = .TRUE.
   LPLANE = .TRUE.
   IVDW = 12
   SIGMA = 0.03
   ISMEAR = 0
   NSW = 1000    number of steps for IOM
   IBRION = 2    ionic relax: 0-MD 1-quasi-New 2-CG
   ISIF = 2    ionic relaxation + stress tensor calcn.
   LCHARG = .FALSE.
   LWAVE = .FALSE.
   ALGO = F
   KPAR = 1
   NPAR = 4
   POTIM = 0.2

 POTCAR:    PAW_PBE Li_sv_GW 25Mar2010            
 POTCAR:    PAW_PBE P_GW 19Mar2012                
 POTCAR:    PAW_PBE S_GW 19Mar2012                
 POTCAR:    PAW_PBE Cl_GW 19Mar2012               
 -----------------------------------------------------------------------------
|                                                                             |
|           W    W    AA    RRRRR   N    N  II  N    N   GGGG   !!!           |
|           W    W   A  A   R    R  NN   N  II  NN   N  G    G  !!!           |
|           W    W  A    A  R    R  N N  N  II  N N  N  G       !!!           |
|           W WW W  AAAAAA  RRRRR   N  N N  II  N  N N  G  GGG   !            |
|           WW  WW  A    A  R   R   N   NN  II  N   NN  G    G                |
|           W    W  A    A  R    R  N    N  II  N    N   GGGG   !!!           |
|                                                                             |
|     You use a magnetic or noncollinear calculation, but did not specify     |
|     the initial magnetic moment with the MAGMOM tag. Note that a            |
|     default of 1 will be used for all atoms. This ferromagnetic setup       |
|     may break the symmetry of the crystal, in particular it may rule        |
|     out finding an antiferromagnetic solution. Thence, we recommend         |
|     setting the initial magnetic moment manually or verifying carefully     |
|     that this magnetic setup is desired.                                    |
|                                                                             |
 -----------------------------------------------------------------------------

 POTCAR:    PAW_PBE Li_sv_GW 25Mar2010            
   SHA256 =  24a6ace15a582615486b36ce4dc781b048409f4015b7684ed1273ae395fa2fdc Li_sv_GW/POTCAR       
   COPYR  = (c) Copyright 25Mar2010 Georg Kresse                                                    
   COPYR  = This file is part of the software VASP. Any use, copying, and all other rights are regul
   COPYR  = If you do not have a valid VASP license, you may not use, copy or distribute this file. 
   VRHFIN =Li: 1s2s                                                                                 
   LEXCH  = PE                                                                                      
   EATOM  =   200.9989 eV,   14.7730 Ry                                                             
                                                                                                    
   TITEL  = PAW_PBE Li_sv_GW 25Mar2010                                                              
   LULTRA =        F    use ultrasoft PP ?                                                          
   IUNSCR =        0    unscreen: 0-lin 1-nonlin 2-no                                               
   RPACOR =    0.000    partial core radius                                                         
   POMASS =    7.010; ZVAL   =    3.000    mass and valenz                                          
   RCORE  =    1.500    outmost cutoff radius                                                       
   RWIGS  =    1.600; RWIGS  =    0.847    wigner-seitz radius (au A)                               
   ENMAX  =  433.699; ENMIN  =  325.274 eV                                                          
   RCLOC  =    1.003    cutoff for local pot                                                        
   LCOR   =        T    correct aug charges                                                         
   LPAW   =        T    paw PP                                                                      
   EAUG   = 1041.699                                                                                
   RMAX   =    1.536    core radius for proj-oper                                                   
   RAUG   =    1.300    factor for augmentation sphere                                              
   RDEP   =    1.520    radius for radial grids                                                     
   RDEPT  =    1.300    core radius for aug-charge                                                  
                                                                                                    
   Atomic configuration                                                                             
    4 entries                                                                                       
     n  l   j            E        occ.                                                              
     1  0  0.50       -53.3604   2.0000                                                             
     1  0  0.50       -52.0001   0.0000                                                             
     2  1  0.50        -1.5636   1.0000                                                             
     3  2  1.50        -1.3606   0.0000                                                             
   Description                                                                                      
     l       E           TYP  RCUT    TYP  RCUT                                                     
     0    -53.3603633     23  1.200                                                                 
     0    -52.0001064     23  1.200                                                                 
     0    176.8757380     23  1.300                                                                 
     1     -1.5635925     23  1.500                                                                 
     1    108.8466080     23  1.500                                                                 
     2     81.6349560     23  1.500                                                                 
  local pseudopotential read in
  kinetic energy density of atom read in
  atomic valenz-charges read in
  non local Contribution for L=           0  read in
    real space projection operators read in
  non local Contribution for L=           0  read in
    real space projection operators read in
  non local Contribution for L=           0  read in
    real space projection operators read in
  non local Contribution for L=           1  read in
    real space projection operators read in
  non local Contribution for L=           1  read in
    real space projection operators read in
  non local Contribution for L=           2  read in
    real space projection operators read in
    PAW grid and wavefunctions read in
 
   number of l-projection  operators is LMAX  =           6
   number of lm-projection operators is LMMAX =          14
 
 POTCAR:    PAW_PBE P_GW 19Mar2012                
   SHA256 =  715c28f2291d37b61637ce89646c59f66f71c8b8d8bfba631e5feb9f7b42defe P_GW/POTCAR           
   COPYR  = (c) Copyright 19Mar2012 Georg Kresse                                                    
   COPYR  = This file is part of the software VASP. Any use, copying, and all other rights are regul
   COPYR  = If you do not have a valid VASP license, you may not use, copy or distribute this file. 
   VRHFIN =P : s2p3                                                                                 
   LEXCH  = PE                                                                                      
   EATOM  =   176.0430 eV,   12.9388 Ry                                                             
                                                                                                    
   TITEL  = PAW_PBE P_GW 19Mar2012                                                                  
   LULTRA =        F    use ultrasoft PP ?                                                          
   IUNSCR =        1    unscreen: 0-lin 1-nonlin 2-no                                               
   RPACOR =    1.400    partial core radius                                                         
   POMASS =   30.974; ZVAL   =    5.000    mass and valenz                                          
   RCORE  =    2.000    outmost cutoff radius                                                       
   RWIGS  =    1.900; RWIGS  =    1.005    wigner-seitz radius (au A)                               
   ENMAX  =  255.040; ENMIN  =  191.280 eV                                                          
   ICORE  =        3    local potential                                                             
   LCOR   =        T    correct aug charges                                                         
   LPAW   =        T    paw PP                                                                      
   EAUG   =  499.732                                                                                
   DEXC   =    0.000                                                                                
   RMAX   =    2.047    core radius for proj-oper                                                   
   RAUG   =    1.300    factor for augmentation sphere                                              
   RDEP   =    2.059    radius for radial grids                                                     
   RDEPT  =    1.900    core radius for aug-charge                                                  
                                                                                                    
   Atomic configuration                                                                             
    7 entries                                                                                       
     n  l   j            E        occ.                                                              
     1  0  0.50     -2084.0982   2.0000                                                             
     2  0  0.50      -173.9859   2.0000                                                             
     2  1  1.50      -124.4865   6.0000                                                             
     3  0  0.50       -13.9692   2.0000                                                             
     3  1  0.50        -5.5067   3.0000                                                             
     3  2  1.50        -6.8029   0.0000                                                             
     4  3  2.50        -1.3606   0.0000                                                             
   Description                                                                                      
     l       E           TYP  RCUT    TYP  RCUT                                                     
     0    -13.9691528     23  1.900                                                                 
     0    102.0436950     23  1.900                                                                 
     1     -5.5066939     23  1.900                                                                 
     1    102.0436950     23  1.900                                                                 
     2     -8.1634956     23  2.000                                                                 
     2     81.6349560     23  2.000                                                                 
     3     27.2116520     23  2.000                                                                 
  local pseudopotential read in
  partial core-charges read in
  partial kinetic energy density read in
  kinetic energy density of atom read in
  atomic valenz-charges read in
  non local Contribution for L=           0  read in
    real space projection operators read in
  non local Contribution for L=           0  read in
    real space projection operators read in
  non local Contribution for L=           1  read in
    real space projection operators read in
  non local Contribution for L=           1  read in
    real space projection operators read in
  non local Contribution for L=           2  read in
    real space projection operators read in
  non local Contribution for L=           2  read in
    real space projection operators read in
    PAW grid and wavefunctions read in
 
   number of l-projection  operators is LMAX  =           6
   number of lm-projection operators is LMMAX =          18
 
 POTCAR:    PAW_PBE S_GW 19Mar2012                
   SHA256 =  357db9cfb0783579b2eebe03197c2d807131fea8ea663b1fcfb6ce2fa75af011 S_GW/POTCAR           
   COPYR  = (c) Copyright 19Mar2012 Georg Kresse                                                    
   COPYR  = This file is part of the software VASP. Any use, copying, and all other rights are regul
   COPYR  = If you do not have a valid VASP license, you may not use, copy or distribute this file. 
   VRHFIN =S : s2p4                                                                                 
   LEXCH  = PE                                                                                      
   EATOM  =   276.8230 eV,   20.3459 Ry                                                             
                                                                                                    
   TITEL  = PAW_PBE S_GW 19Mar2012                                                                  
   LULTRA =        F    use ultrasoft PP ?                                                          
   IUNSCR =        1    unscreen: 0-lin 1-nonlin 2-no                                               
   RPACOR =    1.400    partial core radius                                                         
   POMASS =   32.066; ZVAL   =    6.000    mass and valenz                                          
   RCORE  =    1.900    outmost cutoff radius                                                       
   RWIGS  =    1.900; RWIGS  =    1.005    wigner-seitz radius (au A)                               
   ENMAX  =  258.689; ENMIN  =  194.016 eV                                                          
   ICORE  =        3    local potential                                                             
   LCOR   =        T    correct aug charges                                                         
   LPAW   =        T    paw PP                                                                      
   EAUG   =  488.319                                                                                
   DEXC   =    0.000                                                                                
   RMAX   =    1.942    core radius for proj-oper                                                   
   RAUG   =    1.300    factor for augmentation sphere                                              
   RDEP   =    1.954    radius for radial grids                                                     
   RDEPT  =    1.900    core radius for aug-charge                                                  
                                                                                                    
   Atomic configuration                                                                             
    7 entries                                                                                       
     n  l   j            E        occ.                                                              
     1  0  0.50     -2405.8406   2.0000                                                             
     2  0  0.50      -211.7007   2.0000                                                             
     2  1  1.50      -156.4958   6.0000                                                             
     3  0  0.50       -17.2562   2.0000                                                             
     3  1  0.50        -7.0085   4.0000                                                             
     3  2  1.50        -8.1635   0.0000                                                             
     4  3  2.50        -1.3606   0.0000                                                             
   Description                                                                                      
     l       E           TYP  RCUT    TYP  RCUT                                                     
     0    -17.2561639     23  1.700                                                                 
     0     88.4378690     23  1.900                                                                 
     1     -7.0085399     23  1.900                                                                 
     1     88.4378690     23  1.900                                                                 
     2    -10.8846608     23  1.900                                                                 
     2     54.4233040     23  1.900                                                                 
     3     27.2116520     23  1.800                                                                 
  local pseudopotential read in
  partial core-charges read in
  partial kinetic energy density read in
  kinetic energy density of atom read in
  atomic valenz-charges read in
  non local Contribution for L=           0  read in
    real space projection operators read in
  non local Contribution for L=           0  read in
    real space projection operators read in
  non local Contribution for L=           1  read in
    real space projection operators read in
  non local Contribution for L=           1  read in
    real space projection operators read in
  non local Contribution for L=           2  read in
    real space projection operators read in
  non local Contribution for L=           2  read in
    real space projection operators read in
    PAW grid and wavefunctions read in
 
   number of l-projection  operators is LMAX  =           6
   number of lm-projection operators is LMMAX =          18
 
 POTCAR:    PAW_PBE Cl_GW 19Mar2012               
   SHA256 =  3ef3b3169d6a9a89979f58b4cf17d927a58518fc660d8883d88cacaee8175441 Cl_GW/POTCAR          
   COPYR  = (c) Copyright 19Mar2012 Georg Kresse                                                    
   COPYR  = This file is part of the software VASP. Any use, copying, and all other rights are regul
   COPYR  = If you do not have a valid VASP license, you may not use, copy or distribute this file. 
   VRHFIN =Cl: s2p5                                                                                 
   LEXCH  = PE                                                                                      
   EATOM  =   409.7259 eV,   30.1140 Ry                                                             
                                                                                                    
   TITEL  = PAW_PBE Cl_GW 19Mar2012                                                                 
   LULTRA =        F    use ultrasoft PP ?                                                          
   IUNSCR =        1    unscreen: 0-lin 1-nonlin 2-no                                               
   RPACOR =    1.400    partial core radius                                                         
   POMASS =   35.453; ZVAL   =    7.000    mass and valenz                                          
   RCORE  =    1.900    outmost cutoff radius                                                       
   RWIGS  =    1.900; RWIGS  =    1.005    wigner-seitz radius (au A)                               
   ENMAX  =  262.472; ENMIN  =  196.854 eV                                                          
   ICORE  =        3    local potential                                                             
   LCOR   =        T    correct aug charges                                                         
   LPAW   =        T    paw PP                                                                      
   EAUG   =  456.703                                                                                
   DEXC   =    0.000                                                                                
   RMAX   =    1.945    core radius for proj-oper                                                   
   RAUG   =    1.300    factor for augmentation sphere                                              
   RDEP   =    2.020    radius for radial grids                                                     
   RDEPT  =    1.900    core radius for aug-charge                                                  
                                                                                                    
   Atomic configuration                                                                             
    7 entries                                                                                       
     n  l   j            E        occ.                                                              
     1  0  0.50     -2751.1850   2.0000                                                             
     2  0  0.50      -252.6861   2.0000                                                             
     2  1  1.50      -191.6157   6.0000                                                             
     3  0  0.50       -20.6916   2.0000                                                             
     3  1  0.50        -8.5949   5.0000                                                             
     3  2  1.50        -9.5241   0.0000                                                             
     4  3  2.50        -9.5241   0.0000                                                             
   Description                                                                                      
     l       E           TYP  RCUT    TYP  RCUT                                                     
     0    -20.6915657     23  1.700                                                                 
     0     95.2407820     23  1.800                                                                 
     1     -8.5948577     23  1.900                                                                 
     1     95.2407820     23  1.900                                                                 
     2    -10.8846608     23  1.900                                                                 
     2     54.4233040     23  1.900                                                                 
     3     27.2116520     23  1.900                                                                 
  local pseudopotential read in
  partial core-charges read in
  partial kinetic energy density read in
  kinetic energy density of atom read in
  atomic valenz-charges read in
  non local Contribution for L=           0  read in
    real space projection operators read in
  non local Contribution for L=           0  read in
    real space projection operators read in
  non local Contribution for L=           1  read in
    real space projection operators read in
  non local Contribution for L=           1  read in
    real space projection operators read in
  non local Contribution for L=           2  read in
    real space projection operators read in
  non local Contribution for L=           2  read in
    real space projection operators read in
    PAW grid and wavefunctions read in
 
   number of l-projection  operators is LMAX  =           6
   number of lm-projection operators is LMMAX =          18
 
 Optimization of the real space projectors (new method)

 maximal supplied QI-value         = 25.13
 optimisation between [QCUT,QGAM] = [ 11.56, 23.12] = [ 37.43,149.72] Ry 
 Optimized for a Real-space Cutoff    1.28 Angstroem

   l    n(q)    QCUT    max X(q) W(low)/X(q) W(high)/X(q)  e(spline) 
   0      9    11.561    87.733    0.11E-03    0.32E-04    0.56E-06
   0      9    11.561    82.800    0.11E-03    0.35E-04    0.56E-06
   0      9    11.561     2.509    0.22E-03    0.42E-04    0.79E-06
   1      8    11.561    12.580    0.94E-04    0.26E-03    0.21E-06
   1      8    11.561     1.319    0.33E-04    0.15E-03    0.19E-06
   2      8    11.561     1.993    0.36E-04    0.89E-04    0.26E-06
 Optimization of the real space projectors (new method)

 maximal supplied QI-value         = 18.90
 optimisation between [QCUT,QGAM] = [ 11.53, 23.24] = [ 37.21,151.29] Ry 
 Optimized for a Real-space Cutoff    1.21 Angstroem

   l    n(q)    QCUT    max X(q) W(low)/X(q) W(high)/X(q)  e(spline) 
   0      8    11.527     8.355    0.73E-04    0.70E-04    0.26E-07
   0      8    11.527     1.401    0.17E-03    0.17E-03    0.63E-07
   1      8    11.527     4.747    0.13E-03    0.17E-03    0.11E-06
   1      8    11.527     2.025    0.16E-03    0.18E-03    0.12E-06
   2      7    11.527     3.169    0.51E-04    0.25E-03    0.60E-07
   2      7    11.527     3.441    0.82E-04    0.22E-03    0.14E-06
 Optimization of the real space projectors (new method)

 maximal supplied QI-value         = 19.84
 optimisation between [QCUT,QGAM] = [ 11.51, 23.22] = [ 37.09,150.92] Ry 
 Optimized for a Real-space Cutoff    1.49 Angstroem

   l    n(q)    QCUT    max X(q) W(low)/X(q) W(high)/X(q)  e(spline) 
   0     10    11.508     7.541    0.34E-04    0.13E-04    0.69E-07
   0     10    11.508     1.809    0.49E-04    0.27E-04    0.14E-06
   1     10    11.508     4.107    0.27E-05    0.41E-05    0.14E-06
   1     10    11.508     2.196    0.26E-05    0.25E-05    0.22E-06
   2      9    11.508     4.265    0.18E-03    0.11E-03    0.81E-06
   2      9    11.508     1.925    0.97E-04    0.76E-04    0.47E-06
 Optimization of the real space projectors (new method)

 maximal supplied QI-value         = 19.84
 optimisation between [QCUT,QGAM] = [ 11.51, 23.22] = [ 37.09,150.92] Ry 
 Optimized for a Real-space Cutoff    1.21 Angstroem

   l    n(q)    QCUT    max X(q) W(low)/X(q) W(high)/X(q)  e(spline) 
   0      8    11.508     6.761    0.57E-04    0.57E-04    0.35E-07
   0      8    11.508     1.642    0.14E-03    0.14E-03    0.91E-07
   1      8    11.508     3.519    0.20E-04    0.72E-04    0.47E-07
   1      8    11.508     2.150    0.27E-04    0.11E-03    0.89E-07
   2      7    11.508     2.976    0.19E-03    0.33E-03    0.16E-06
   2      7    11.508     1.494    0.14E-03    0.29E-03    0.14E-06
  PAW_PBE Li_sv_GW 25Mar2010            :
 energy of atom  1       EATOM= -200.9989
 kinetic energy error for atom=    0.0127 (will be added to EATOM!!)
  PAW_PBE P_GW 19Mar2012                :
 energy of atom  2       EATOM= -176.0430
 kinetic energy error for atom=    0.0011 (will be added to EATOM!!)
  PAW_PBE S_GW 19Mar2012                :
 energy of atom  3       EATOM= -276.8230
 kinetic energy error for atom=    0.0024 (will be added to EATOM!!)
  PAW_PBE Cl_GW 19Mar2012               :
 energy of atom  4       EATOM= -409.7259
 kinetic energy error for atom=    0.0030 (will be added to EATOM!!)
 
 
 POSCAR: Li24 P4 S20 Cl4
  positions in direct lattice
  velocities in cartesian coordinates
 exchange correlation table for  LEXCH =        8
   RHO(1)=    0.500       N(1)  =     2000
   RHO(2)=  100.500       N(2)  =     4000

 VTST: version 4.1, (05/19/21)

 CHAIN: initializing optimizer
 
 OPT: Using VASP Conjugate-Gradient optimizer
 CHAIN: Read ICHAIN            0
 
 POSCAR: Li24 P4 S20 Cl4
  positions in direct lattice
  velocities in cartesian coordinates
 


--------------------------------------------------------------------------------------------------------


 ion  position               nearest neighbor table
   1  0.950  0.340  0.322-
   2  0.979  0.698  0.704-
   3  0.151  0.217  0.969-
   4  0.004  0.709  0.285-
   5  0.032  0.334  0.673-
   6  0.181  0.790  0.014-
   7  0.681  0.290  0.014-
   8  0.651  0.717  0.969-
   9  0.189  0.988  0.204-
  10  0.200  0.013  0.785-
  11  0.831  0.960  0.822-
  12  0.825  0.041  0.173-
  13  0.207  0.660  0.469-
  14  0.280  0.190  0.514-
  15  0.780  0.690  0.514-
  16  0.707  0.160  0.469-
  17  0.331  0.460  0.822-
  18  0.325  0.541  0.173-
  19  0.689  0.488  0.204-
  20  0.700  0.513  0.785-
  21  0.479  0.198  0.704-
  22  0.450  0.840  0.322-
  23  0.504  0.209  0.285-
  24  0.532  0.834  0.673-
  25  0.492  0.501  0.498-  43 2.05  42 2.05  44 2.05  41 2.06
  26  0.491  0.001  0.998-  38 2.05  39 2.05  40 2.05  37 2.06
  27  0.991  0.501  0.998-  36 2.05  33 2.05  34 2.05  35 2.06
  28  0.992  0.001  0.498-  32 2.05  29 2.05  31 2.05  30 2.06
  29  0.127  0.872  0.600-  28 2.05
  30  0.094  0.137  0.369-  28 2.06
  31  0.855  0.890  0.379-  28 2.05
  32  0.886  0.122  0.637-  28 2.05
  33  0.862  0.636  0.101-  27 2.05
  34  0.880  0.364  0.879-  27 2.05
  35  0.127  0.604  0.869-  27 2.06
  36  0.113  0.396  0.137-  27 2.05
  37  0.627  0.104  0.869-  26 2.06
  38  0.613  0.896  0.137-  26 2.05
  39  0.362  0.136  0.101-  26 2.05
  40  0.380  0.864  0.879-  26 2.05
  41  0.594  0.637  0.369-  25 2.06
  42  0.627  0.372  0.600-  25 2.05
  43  0.386  0.622  0.637-  25 2.05
  44  0.355  0.390  0.379-  25 2.05
  45  0.748  0.746  0.746-
  46  0.736  0.257  0.246-
  47  0.236  0.757  0.246-
  48  0.248  0.246  0.746-
  49  0.024  0.995  0.994-
  50  0.986  0.533  0.494-
  51  0.486  0.033  0.494-
  52  0.524  0.495  0.994-
 
  LATTYP: Found a simple cubic cell.
 ALAT       =     9.6342552309
  
  Lattice vectors:
  
 A1 = (   9.6342552309,   0.0000000000,   0.0000000000)
 A2 = (   0.0000000000,   9.6342552309,   0.0000000000)
 A3 = (   0.0000000000,   0.0000000000,   9.6342552309)


Analysis of symmetry for initial positions (statically):
=====================================================================
 Subroutine PRICEL returns following result:
 
  LATTYP: Found a simple tetragonal cell.
 ALAT       =     6.8124408980
 C/A-ratio  =     1.4142148718
  
  Lattice vectors:
  
 A1 = (   4.8171260484,  -4.8171202624,   0.0000000000)
 A2 = (   4.8171260484,   4.8171349684,   0.0000000000)
 A3 = (   0.0000000000,   0.0000000000,   9.6342552309)
 
   2 primitive cells build up your supercell.
 

 Routine SETGRP: Setting up the symmetry group for a 
 simple cubic supercell.


 Subroutine GETGRP returns: Found  1 space group operations
 (whereof  1 operations were pure point group operations)
 out of a pool of 48 trial point group operations.


The static configuration has the point symmetry C_1 .


Analysis of symmetry for dynamics (positions and initial velocities):
=====================================================================
 Subroutine PRICEL returns following result:
 
  LATTYP: Found a simple tetragonal cell.
 ALAT       =     6.8124408980
 C/A-ratio  =     1.4142148718
  
  Lattice vectors:
  
 A1 = (   4.8171260484,  -4.8171202624,   0.0000000000)
 A2 = (   4.8171260484,   4.8171349684,   0.0000000000)
 A3 = (   0.0000000000,   0.0000000000,   9.6342552309)
 
   2 primitive cells build up your supercell.
 

 Routine SETGRP: Setting up the symmetry group for a 
 simple cubic supercell.


 Subroutine GETGRP returns: Found  1 space group operations
 (whereof  1 operations were pure point group operations)
 out of a pool of 48 trial point group operations.


The dynamic configuration has the point symmetry C_1 .


Analysis of structural, dynamic, and magnetic symmetry:
=====================================================================
 Subroutine PRICEL returns following result:
 
  LATTYP: Found a simple tetragonal cell.
 ALAT       =     6.8124408980
 C/A-ratio  =     1.4142148718
  
  Lattice vectors:
  
 A1 = (   4.8171260484,  -4.8171202624,   0.0000000000)
 A2 = (   4.8171260484,   4.8171349684,   0.0000000000)
 A3 = (   0.0000000000,   0.0000000000,   9.6342552309)
 
   2 primitive cells build up your supercell.
 

 Routine SETGRP: Setting up the symmetry group for a 
 simple cubic supercell.


 Subroutine GETGRP returns: Found  1 space group operations
 (whereof  1 operations were pure point group operations)
 out of a pool of 48 trial point group operations.


The overall configuration has the point symmetry C_1 .


 Subroutine INISYM returns: Found  1 space group operations
 (whereof  1 operations are pure point group operations),
 and found     2 'primitive' translations


----------------------------------------------------------------------------------------

                                     Primitive cell                                     

  volume of cell :     447.1202

  direct lattice vectors                    reciprocal lattice vectors
     4.817126048 -4.817120262  0.000000000     0.103796487 -0.103796295  0.000000000
     4.817126048  4.817134968  0.000000000     0.103796171  0.103796295  0.000000000
     0.000000000  0.000000000  9.634255231     0.000000000  0.000000000  0.103796295

  length of vectors
     6.812440898  6.812451297  9.634255231     0.146790264  0.146790040  0.103796295

  position of ions in fractional coordinates (direct lattice)
     0.610014983  0.290763420  0.322318534
     0.280735173  0.676513993  0.703838338
     0.934169387  0.367583770  0.969066561
     0.294840626  0.712997837  0.285306645
     0.697571617  0.366135671  0.673336972
     0.391209700  0.970976091  0.014198308
     0.200556949  0.176633092  0.203847378
     0.186301787  0.212875861  0.785267765
     0.871240100  0.790766351  0.822310034
     0.783662545  0.866101219  0.173313332
     0.547065244  0.867509377  0.469034275
     0.090044597  0.470899555  0.514199999
     0.990996855  0.992600620  0.498333274
     0.490112671  0.492707221  0.998336663
     0.255150681  0.998638261  0.600466707
     0.957941444  0.230983342  0.369004064
     0.965337013  0.744582371  0.378643466
     0.763873038  0.008431546  0.637118937
     0.225988766  0.498773348  0.100506396
     0.515751926  0.244692453  0.878632199
     0.523264916  0.731072103  0.869011150
     0.717260500  0.508445457  0.137114992
     0.002069524  0.493215531  0.745849837
     0.479173301  0.993229119  0.245839321
     0.028402676  0.018705033  0.993797376
     0.452841974  0.518596286  0.493843241

  ion indices of the primitive-cell ions
   primitive index   ion index
                 1           1
                 2           2
                 3           3
                 4           4
                 5           5
                 6           7
                 7          19
                 8          20
                 9          11
                10          12
                11          16
                12          14
                13          28
                14          27
                15          42
                16          30
                17          44
                18          32
                19          33
                20          34
                21          35
                22          36
                23          48
                24          46
                25          49
                26          50

----------------------------------------------------------------------------------------

 
 
 KPOINTS: Automatic mesh                          

Automatic generation of k-mesh.
 Grid dimensions read from file:
 generate k-points for:    2    2    2

 Generating k-lattice:

  Cartesian coordinates                     Fractional coordinates (reciprocal lattice)
     0.051898148  0.000000000  0.000000000     0.500000000  0.000000000  0.000000000
     0.000000000  0.051898148  0.000000000     0.000000000  0.500000000  0.000000000
     0.000000000  0.000000000  0.051898148     0.000000000  0.000000000  0.500000000

  Length of vectors
     0.051898148  0.051898148  0.051898148

  Shift w.r.t. Gamma in fractional coordinates (k-lattice)
     0.000000000  0.000000000  0.000000000

 
 Subroutine IBZKPT returns following result:
 ===========================================
 
 Found      8 irreducible k-points:
 
 Following reciprocal coordinates:
            Coordinates               Weight
  0.000000  0.000000  0.000000      1.000000
  0.500000  0.000000  0.000000      1.000000
  0.000000  0.500000  0.000000      1.000000
  0.000000  0.000000  0.500000      1.000000
  0.500000  0.500000  0.000000      1.000000
  0.000000  0.500000  0.500000      1.000000
  0.500000  0.000000  0.500000      1.000000
  0.500000  0.500000  0.500000      1.000000
 
 Following cartesian coordinates:
            Coordinates               Weight
  0.000000  0.000000  0.000000      1.000000
  0.051898  0.000000  0.000000      1.000000
  0.000000  0.051898  0.000000      1.000000
  0.000000  0.000000  0.051898      1.000000
  0.051898  0.051898  0.000000      1.000000
  0.000000  0.051898  0.051898      1.000000
  0.051898  0.000000  0.051898      1.000000
  0.051898  0.051898  0.051898      1.000000
 


--------------------------------------------------------------------------------------------------------




 Dimension of arrays:
   k-points           NKPTS =      8   k-points in BZ     NKDIM =      8   number of bands    NBANDS=    176
   number of dos      NEDOS =    301   number of ions     NIONS =     52
   non local maximal  LDIM  =      6   non local SUM 2l+1 LMDIM =     18
   total plane-waves  NPLWV = 373248
   max r-space proj   IRMAX =   5823   max aug-charges    IRDMAX=  17814
   dimension x,y,z NGX =    72 NGY =   72 NGZ =   72
   dimension x,y,z NGXF=   144 NGYF=  144 NGZF=  144
   support grid    NGXF=   144 NGYF=  144 NGZF=  144
   ions per type =              24   4  20   4
   NGX,Y,Z   is equivalent  to a cutoff of  12.42, 12.42, 12.42 a.u.
   NGXF,Y,Z  is equivalent  to a cutoff of  24.85, 24.85, 24.85 a.u.

 SYSTEM =  unknown system                          
 POSCAR =  Li24 P4 S20 Cl4                         

 Startparameter for this run:
   NWRITE =      2    write-flag & timer
   PREC   = accu      normal or accurate (medium, high low for compatibility)
   ISTART =      0    job   : 0-new  1-cont  2-samecut
   ICHARG =      2    charge: 1-file 2-atom 10-const
   ISPIN  =      2    spin polarized calculation?
   LNONCOLLINEAR =      F non collinear calculations
   LSORBIT =      F    spin-orbit coupling
   INIWAV =      1    electr: 0-lowe 1-rand  2-diag
   LASPH  =      T    aspherical Exc in radial PAW
 Electronic Relaxation 1
   ENCUT  =  520.0 eV  38.22 Ry    6.18 a.u.  17.91 17.91 17.91*2*pi/ulx,y,z
   ENINI  =  520.0     initial cutoff
   ENAUG  = 1041.7 eV  augmentation charge cutoff
   NELM   =    100;   NELMIN=  2; NELMDL=-10     # of ELM steps 
   EDIFF  = 0.1E-05   stopping-criterion for ELM
   LREAL  =      T    real-space projection
   NLSPLINE    = F    spline interpolate recip. space projectors
   LCOMPAT=      F    compatible to vasp.4.4
   GGA_COMPAT  = T    GGA compatible to vasp.4.4-vasp.4.6
   LMAXPAW     = -100 max onsite density
   LMAXMIX     =    4 max onsite mixed and CHGCAR
   VOSKOWN=      0    Vosko Wilk Nusair interpolation
   ROPT   =   -0.00025  -0.00025  -0.00025  -0.00025
 Ionic relaxation
   EDIFFG = -.1E-02   stopping-criterion for IOM
   NSW    =   1000    number of steps for IOM
   NBLOCK =      1;   KBLOCK =   1000    inner block; outer block 
   IBRION =      2    ionic relax: 0-MD 1-quasi-New 2-CG
   NFREE  =      1    steps in history (QN), initial steepest desc. (CG)
   ISIF   =      2    stress and relaxation
   IWAVPR =     11    prediction:  0-non 1-charg 2-wave 3-comb
   ISYM   =      2    0-nonsym 1-usesym 2-fastsym
   LCORR  =      T    Harris-Foulkes like correction to forces

   POTIM  = 0.2000    time-step for ionic-motion
   TEIN   =    0.0    initial temperature
   TEBEG  =    0.0;   TEEND  =   0.0 temperature during run
   SMASS  =  -3.00    Nose mass-parameter (am)
   estimated Nose-frequenzy (Omega)   =  0.10E-29 period in steps = 0.31E+47 mass=  -0.212E-26a.u.
   SCALEE = 1.0000    scale energy and forces
   NPACO  =    256;   APACO  = 10.0  distance and # of slots for P.C.
   PSTRESS=    0.0 pullay stress

  Mass of Ions in am
   POMASS =   7.01 30.97 32.07 35.45
  Ionic Valenz
   ZVAL   =   3.00  5.00  6.00  7.00
  Atomic Wigner-Seitz radii
   RWIGS  =  -1.00 -1.00 -1.00 -1.00
  virtual crystal weights 
   VCA    =   1.00  1.00  1.00  1.00
   NELECT =     240.0000    total number of electrons
   NUPDOWN=      -1.0000    fix difference up-down

 DOS related values:
   EMIN   =  10.00;   EMAX   =-10.00  energy-range for DOS
   EFERMI =   0.00;   METHOD = LEGACY      
   ISMEAR =     0;   SIGMA  =   0.03  broadening in eV -4-tet -1-fermi 0-gaus

 Electronic relaxation 2 (details)
   IALGO  =     68    algorithm
   LDIAG  =      T    sub-space diagonalisation (order eigenvalues)
   LSUBROT=      F    optimize rotation matrix (better conditioning)
   TURBO    =      0    0=normal 1=particle mesh
   IRESTART =      0    0=no restart 2=restart with 2 vectors
   NREBOOT  =      0    no. of reboots
   NMIN     =      0    reboot dimension
   EREF     =   0.00    reference energy to select bands
   IMIX   =      4    mixing-type and parameters
     AMIX     =   0.40;   BMIX     =  1.00
     AMIX_MAG =   1.60;   BMIX_MAG =  1.00
     AMIN     =   0.10
     WC   =   100.;   INIMIX=   1;  MIXPRE=   1;  MAXMIX= -45

 Intra band minimization:
   WEIMIN = 0.0010     energy-eigenvalue tresh-hold
   EBREAK =  0.14E-08  absolut break condition
   DEPER  =   0.30     relativ break condition  

   TIME   =   0.40     timestep for ELM

  volume/ion in A,a.u.               =      17.20       116.05
  Fermi-wavevector in a.u.,A,eV,Ry     =   1.055992  1.995535 15.172103  1.115118
  Thomas-Fermi vector in A             =   2.191211
 
 Write flags
   LWAVE        =      F    write WAVECAR
   LDOWNSAMPLE  =      F    k-point downsampling of WAVECAR
   LCHARG       =      F    write CHGCAR
   LVTOT        =      F    write LOCPOT, total local potential
   LVHAR        =      F    write LOCPOT, Hartree potential only
   LELF         =      F    write electronic localiz. function (ELF)
   LORBIT       =      0    0 simple, 1 ext, 2 COOP (PROOUT), +10 PAW based schemes


 Dipole corrections
   LMONO  =      F    monopole corrections only (constant potential shift)
   LDIPOL =      F    correct potential (dipole corrections)
   IDIPOL =      0    1-x, 2-y, 3-z, 4-all directions 
   EPSILON=  1.0000000 bulk dielectric constant

 Exchange correlation treatment:
   GGA     =    PE    GGA type
   LEXCH   =     8    internal setting for exchange type
   LIBXC   =     F    Libxc                    
   VOSKOWN =     0    Vosko Wilk Nusair interpolation
   LHFCALC =     F    Hartree Fock is set to
   LHFONE  =     F    Hartree Fock one center treatment
   AEXX    =    0.0000 exact exchange contribution

 Linear response parameters
   LEPSILON=     F    determine dielectric tensor
   LRPA    =     F    only Hartree local field effects (RPA)
   LNABLA  =     F    use nabla operator in PAW spheres
   LVEL    =     F    velocity operator in full k-point grid
   CSHIFT  =0.1000    complex shift for real part using Kramers Kronig
   OMEGAMAX=  -1.0    maximum frequency
   DEG_THRESHOLD= 0.2000000E-02 threshold for treating states as degnerate
   RTIME   =   -0.100 relaxation time in fs
  (WPLASMAI=    0.000 imaginary part of plasma frequency in eV, 0.658/RTIME)
   DFIELD  = 0.0000000 0.0000000 0.0000000 field for delta impulse in time
 
  Optional k-point grid parameters
   LKPOINTS_OPT  =     F    use optional k-point grid
   KPOINTS_OPT_MODE=     1    mode for optional k-point grid
 
 Orbital magnetization related:
   ORBITALMAG=     F  switch on orbital magnetization
   LCHIMAG   =     F  perturbation theory with respect to B field
   DQ        =  0.001000  dq finite difference perturbation B field
   LLRAUG    =     F  two centre corrections for induced B field
   LBONE     =     F  B-component reconstruction in AE one-centre
   LVGVCALC  =     T  calculate vGv susceptibility
   LVGVAPPL  =     F  apply vGv susceptibility instead of pGv for G=0

 Random number generation:
   RANDOM_GENERATOR = DEFAULT
   PCG_SEED         = not used


--------------------------------------------------------------------------------------------------------


 conjugate gradient relaxation of ions
 charge density and potential will be updated during run
 spin polarized calculation
 RMM-DIIS sequential band-by-band and
  variant of blocked Davidson during initial phase
 perform sub-space diagonalisation
    before iterative eigenvector-optimisation
 modified Broyden-mixing scheme, WC =      100.0
 initial mixing is a Kerker type mixing with AMIX =  0.4000 and BMIX =      1.0000
 Hartree-type preconditioning will be used
 using additional bands           56
 real space projection scheme for non local part
 use partial core corrections
 calculate Harris-corrections to forces 
   (improved forces if not selfconsistent)
 use gradient corrections 
 use of overlap-Matrix (Vanderbilt PP)
 Gauss-broadening in eV      SIGMA  =   0.03


--------------------------------------------------------------------------------------------------------


  energy-cutoff  :      520.00
  volume of cell :      894.24
      direct lattice vectors                 reciprocal lattice vectors
     9.634255231  0.000000000  0.000000000     0.103796295  0.000000000  0.000000000
     0.000000000  9.634255231  0.000000000     0.000000000  0.103796295  0.000000000
     0.000000000  0.000000000  9.634255231     0.000000000  0.000000000  0.103796295

  length of vectors
     9.634255231  9.634255231  9.634255231     0.103796295  0.103796295  0.103796295


 
 k-points in units of 2pi/SCALE and weight: Automatic mesh                          
   0.00000000  0.00000000  0.00000000       0.125
   0.05189815  0.00000000  0.00000000       0.125
   0.00000000  0.05189815  0.00000000       0.125
   0.00000000  0.00000000  0.05189815       0.125
   0.05189815  0.05189815  0.00000000       0.125
   0.00000000  0.05189815  0.05189815       0.125
   0.05189815  0.00000000  0.05189815       0.125
   0.05189815  0.05189815  0.05189815       0.125
 
 k-points in reciprocal lattice and weights: Automatic mesh                          
   0.00000000  0.00000000  0.00000000       0.125
   0.50000000  0.00000000  0.00000000       0.125
   0.00000000  0.50000000  0.00000000       0.125
   0.00000000  0.00000000  0.50000000       0.125
   0.50000000  0.50000000  0.00000000       0.125
   0.00000000  0.50000000  0.50000000       0.125
   0.50000000  0.00000000  0.50000000       0.125
   0.50000000  0.50000000  0.50000000       0.125
 
 position of ions in fractional coordinates (direct lattice) 
   0.95038889  0.34037567  0.32231853
   0.97862426  0.69789090  0.70383834
   0.15087653  0.21670742  0.96906656
   0.00391923  0.70907861  0.28530665
   0.03185363  0.33428208  0.67333697
   0.18109102  0.78988520  0.01419838
   0.68109267  0.28988423  0.01419831
   0.65087416  0.71670717  0.96906584
   0.18859390  0.98803917  0.20384669
   0.19959023  0.01328840  0.78526665
   0.83100295  0.95976439  0.82231003
   0.82488161  0.04122060  0.17331333
   0.20728625  0.66022372  0.46903385
   0.28047198  0.19042791  0.51420000
   0.78047116  0.69042506  0.51420008
   0.70728708  0.16022315  0.46903427
   0.33100313  0.45976521  0.82230863
   0.32488038  0.54122088  0.17331150
   0.68859480  0.48803912  0.20384738
   0.69958860  0.51328810  0.78526776
   0.47862552  0.19789273  0.70383835
   0.45038826  0.84037699  0.32231770
   0.50391999  0.20907946  0.28530688
   0.53185408  0.83428422  0.67333635
   0.49179790  0.50080418  0.49833348
   0.49140979  0.00129803  0.99833694
   0.99140962  0.50129879  0.99833666
   0.99179841  0.00080340  0.49833327
   0.12689357  0.87174347  0.60046768
   0.09446236  0.13652109  0.36900406
   0.85495914  0.88962219  0.37864442
   0.88615200  0.12228061  0.63711894
   0.86238078  0.63639361  0.10050640
   0.88022190  0.36447161  0.87863220
   0.12716847  0.60390379  0.86901115
   0.11285294  0.39559265  0.13711499
   0.62716793  0.10390322  0.86901106
   0.61285391  0.89559257  0.13711504
   0.36238141  0.13639276  0.10050719
   0.38022177  0.86447049  0.87863273
   0.59446120  0.63652167  0.36900349
   0.62689427  0.37174475  0.60046671
   0.38615130  0.62228212  0.63711875
   0.35495958  0.38962322  0.37864347
   0.74764156  0.74557298  0.74584962
   0.73620097  0.25702903  0.24583932
   0.23620021  0.75702922  0.24583902
   0.24764245  0.24557338  0.74584984
   0.02355385  0.99515121  0.99379738
   0.98571881  0.53287866  0.49384324
   0.48571898  0.03287976  0.49384339
   0.52355383  0.49514993  0.99379766
 
 position of ions in cartesian coordinates  (Angst):
   9.15628916  3.27926607  3.10529902
   9.42831594  6.72365909  6.78095819
   1.45358299  2.08781461  9.33623458
   0.03775887  6.83144432  2.74871704
   0.30688604  3.22055884  6.48710024
   1.74467712  7.60995557  0.13679081
   6.56182066  2.79281870  0.13679013
   6.27068774  6.90493978  9.33622766
   1.81696174  9.51902152  1.96391099
   1.92290319  0.12802384  7.56545937
   8.00609456  9.24661513  7.92234475
   7.94712000  0.39712974  1.66974487
   1.99704860  6.36076378  4.51879181
   2.70213869  1.83463106  4.95393403
   7.51925835  6.65173125  4.95393481
   6.81418425  1.54363068  4.51879592
   3.18896862  4.42949542  7.92233119
   3.12998053  5.21426006  1.66972719
   6.63409802  4.70189347  1.96391767
   6.74001509  4.94514861  7.56547007
   4.61120045  1.90654909  6.78095827
   4.33915540  8.09640643  3.10529103
   4.85489377  2.01432493  2.74871934
   5.12401800  8.03770707  6.48709424
   4.73810649  4.82487534  4.80107198
   4.73436730  0.01250550  9.61823286
   9.55149335  4.82964047  9.61823022
   9.55523906  0.00774013  4.80106996
   1.22252503  8.39859905  5.78505890
   0.91007451  1.31527905  3.55507933
   8.23689460  8.57084727  3.64795700
   8.53741458  1.17808257  6.13816645
   8.30839651  6.13117844  0.96830427
   8.48028247  3.51141249  8.46496686
   1.22517348  5.81816322  8.37227522
   1.08725405  3.81124056  1.32100083
   6.04229593  1.00103016  8.37227431
   5.90439098  8.62836741  1.32100129
   3.49127498  1.31404269  0.96831188
   3.66315353  8.32852932  8.46497201
   5.72719092  6.13241219  3.55507379
   6.03965937  3.58148377  5.78504951
   3.72028019  5.99522475  6.13816469
   3.41977116  3.75372955  3.64794780
   7.20296961  7.18304036  7.18570563
   7.09274805  2.47628330  2.36847876
   2.27561309  7.29341270  2.36847589
   2.38585054  2.36591663  7.18570769
   0.22692377  9.58754079  9.57449757
   9.49666659  5.13388903  4.75781183
   4.67954062  0.31677203  4.75781325
   5.04405120  4.77040083  9.57450026
 


--------------------------------------------------------------------------------------------------------


 k-point   1 :   0.0000 0.0000 0.0000  plane waves:   23871
 k-point   2 :   0.5000 0.0000 0.0000  plane waves:   24076
 k-point   3 :   0.0000 0.5000 0.0000  plane waves:   24076
 k-point   4 :   0.0000 0.0000 0.5000  plane waves:   24076
 k-point   5 :   0.5000 0.5000 0.0000  plane waves:   24028
 k-point   6 :   0.0000 0.5000 0.5000  plane waves:   24028
 k-point   7 :   0.5000 0.0000 0.5000  plane waves:   24028
 k-point   8 :   0.5000 0.5000 0.5000  plane waves:   24248

 maximum and minimum number of plane-waves per node :       776      724

 maximum number of plane-waves:     24248
 maximum index in each direction: 
   IXMAX=   17   IYMAX=   17   IZMAX=   17
   IXMIN=  -18   IYMIN=  -18   IZMIN=  -18


 real space projection operators:
  total allocation   :      28577.62 KBytes
  max/ min on nodes  :       1202.00        727.45


 parallel 3D FFT for wavefunctions:
    minimum data exchange during FFTs selected (reduces bandwidth)
 parallel 3D FFT for charge:
    minimum data exchange during FFTs selected (reduces bandwidth)


 total amount of memory used by VASP MPI-rank0    52535. kBytes
=======================================================================

   base      :      30000. kBytes
   nonlr-proj:       6572. kBytes
   fftplans  :       1747. kBytes
   grid      :       5278. kBytes
   one-center:         62. kBytes
   wavefun   :       8876. kBytes
 
     INWAV:  cpu time      0.0001: real time      0.0000
 Broyden mixing: mesh for mixing (old mesh)
   NGX = 35   NGY = 35   NGZ = 35
  (NGX  =144   NGY  =144   NGZ  =144)
  gives a total of  42875 points

 initial charge density was supplied:
 charge density of overlapping atoms calculated
 number of electron     240.0000000 magnetization      52.0000000
 keeping initial charge density in first step


--------------------------------------------------------------------------------------------------------


 Maximum index for non-local projection operator          553
 Maximum index for augmentation-charges          975 (set IRDMAX)


--------------------------------------------------------------------------------------------------------


 First call to EWALD:  gamma=   0.184
 Maximum number of real-space cells 3x 3x 3
 Maximum number of reciprocal cells 3x 3x 3

    FEWALD:  cpu time      0.0030: real time      0.0035


--------------------------------------- Ionic step        1  -------------------------------------------




--------------------------------------- Iteration      1(   1)  ---------------------------------------


    POTLOK:  cpu time      0.0570: real time      0.0715
    SETDIJ:  cpu time      0.4250: real time      0.4348
     EDDAV:  cpu time      4.5974: real time      4.7055
       DOS:  cpu time      0.0036: real time      0.0051
    --------------------------------------------
      LOOP:  cpu time      5.0829: real time      5.2169

 eigenvalue-minimisations  :  6160
 total energy-change (2. order) : 0.1596838E+04  (-0.1136683E+05)
 number of electron     240.0000000 magnetization      52.0000000
 augmentation part      240.0000000 magnetization      52.0000000

 Free energy of the ion-electron system (eV)
  ---------------------------------------------------
  alpha Z        PSCENC =       303.56200218
  Ewald energy   TEWEN  =     -8874.54081707
  -Hartree energ DENC   =     -2076.24239163
  -exchange      EXHF   =         0.00000000
  -V(xc)+E(xc)   XCENC  =       534.58971876
  PAW double counting   =      8141.38806575    -8271.61346273
  entropy T*S    EENTRO =        -0.00626101
  eigenvalues    EBANDS =      -863.43912864
  atomic energy  EATOM  =     12703.13999606
  Solvation  Ediel_sol  =         0.00000000
  ---------------------------------------------------
  free energy    TOTEN  =      1596.83772167 eV

  energy without entropy =     1596.84398268  energy(sigma->0) =     1596.84085218


--------------------------------------------------------------------------------------------------------




--------------------------------------- Iteration      1(   2)  ---------------------------------------


     EDDAV:  cpu time      5.2997: real time      5.3472
       DOS:  cpu time      0.0009: real time      0.0009
    --------------------------------------------
      LOOP:  cpu time      5.3006: real time      5.3481

 eigenvalue-minimisations  :  7696
 total energy-change (2. order) :-0.1652783E+04  (-0.1553890E+04)
 number of electron     240.0000000 magnetization      52.0000000
 augmentation part      240.0000000 magnetization      52.0000000

 Free energy of the ion-electron system (eV)
  ---------------------------------------------------
  alpha Z        PSCENC =       303.56200218
  Ewald energy   TEWEN  =     -8874.54081707
  -Hartree energ DENC   =     -2076.24239163
  -exchange      EXHF   =         0.00000000
  -V(xc)+E(xc)   XCENC  =       534.58971876
  PAW double counting   =      8141.38806575    -8271.61346273
  entropy T*S    EENTRO =        -0.00000000
  eigenvalues    EBANDS =     -2516.22873582
  atomic energy  EATOM  =     12703.13999606
  Solvation  Ediel_sol  =         0.00000000
  ---------------------------------------------------
  free energy    TOTEN  =       -55.94562449 eV

  energy without entropy =      -55.94562449  energy(sigma->0) =      -55.94562449


--------------------------------------------------------------------------------------------------------




--------------------------------------- Iteration      1(   3)  ---------------------------------------


     EDDAV:  cpu time      5.2721: real time      5.3160
       DOS:  cpu time      0.0008: real time      0.0008
    --------------------------------------------
      LOOP:  cpu time      5.2729: real time      5.3169

 eigenvalue-minimisations  :  7600
 total energy-change (2. order) :-0.1721386E+03  (-0.1701283E+03)
 number of electron     240.0000000 magnetization      52.0000000
 augmentation part      240.0000000 magnetization      52.0000000

 Free energy of the ion-electron system (eV)
  ---------------------------------------------------
  alpha Z        PSCENC =       303.56200218
  Ewald energy   TEWEN  =     -8874.54081707
  -Hartree energ DENC   =     -2076.24239163
  -exchange      EXHF   =         0.00000000
  -V(xc)+E(xc)   XCENC  =       534.58971876
  PAW double counting   =      8141.38806575    -8271.61346273
  entropy T*S    EENTRO =        -0.00000000
  eigenvalues    EBANDS =     -2688.36734250
  atomic energy  EATOM  =     12703.13999606
  Solvation  Ediel_sol  =         0.00000000
  ---------------------------------------------------
  free energy    TOTEN  =      -228.08423117 eV

  energy without entropy =     -228.08423117  energy(sigma->0) =     -228.08423117


--------------------------------------------------------------------------------------------------------




--------------------------------------- Iteration      1(   4)  ---------------------------------------


     EDDAV:  cpu time      6.3022: real time      6.3614
       DOS:  cpu time      0.0007: real time      0.0007
    --------------------------------------------
      LOOP:  cpu time      6.3030: real time      6.3622

 eigenvalue-minimisations  :  9472
 total energy-change (2. order) :-0.1358926E+02  (-0.1356643E+02)
 number of electron     240.0000000 magnetization      52.0000000
 augmentation part      240.0000000 magnetization      52.0000000

 Free energy of the ion-electron system (eV)
  ---------------------------------------------------
  alpha Z        PSCENC =       303.56200218
  Ewald energy   TEWEN  =     -8874.54081707
  -Hartree energ DENC   =     -2076.24239163
  -exchange      EXHF   =         0.00000000
  -V(xc)+E(xc)   XCENC  =       534.58971876
  PAW double counting   =      8141.38806575    -8271.61346273
  entropy T*S    EENTRO =        -0.00000000
  eigenvalues    EBANDS =     -2701.95660315
  atomic energy  EATOM  =     12703.13999606
  Solvation  Ediel_sol  =         0.00000000
  ---------------------------------------------------
  free energy    TOTEN  =      -241.67349183 eV

  energy without entropy =     -241.67349183  energy(sigma->0) =     -241.67349183


--------------------------------------------------------------------------------------------------------




--------------------------------------- Iteration      1(   5)  ---------------------------------------


     EDDAV:  cpu time      5.9629: real time      6.0088
       DOS:  cpu time      0.0009: real time      0.0009
    --------------------------------------------
      LOOP:  cpu time      5.9638: real time      6.0097

 eigenvalue-minimisations  :  8880
 total energy-change (2. order) :-0.2261856E+00  (-0.2260824E+00)
 number of electron     240.0000000 magnetization      52.0000000
 augmentation part      240.0000000 magnetization      52.0000000

 Free energy of the ion-electron system (eV)
  ---------------------------------------------------
  alpha Z        PSCENC =       303.56200218
  Ewald energy   TEWEN  =     -8874.54081707
  -Hartree energ DENC   =     -2076.24239163
  -exchange      EXHF   =         0.00000000
  -V(xc)+E(xc)   XCENC  =       534.58971876
  PAW double counting   =      8141.38806575    -8271.61346273
  entropy T*S    EENTRO =        -0.00000000
  eigenvalues    EBANDS =     -2702.18278877
  atomic energy  EATOM  =     12703.13999606
  Solvation  Ediel_sol  =         0.00000000
  ---------------------------------------------------
  free energy    TOTEN  =      -241.89967744 eV

  energy without entropy =     -241.89967744  energy(sigma->0) =     -241.89967744


--------------------------------------------------------------------------------------------------------




--------------------------------------- Iteration      1(   6)  ---------------------------------------


     EDDAV:  cpu time      6.1948: real time      6.2420
       DOS:  cpu time      0.0009: real time      0.0009
    --------------------------------------------
      LOOP:  cpu time      6.1956: real time      6.2429

 eigenvalue-minimisations  :  9304
 total energy-change (2. order) :-0.1310629E-01  (-0.1310508E-01)
 number of electron     240.0000000 magnetization      52.0000000
 augmentation part      240.0000000 magnetization      52.0000000

 Free energy of the ion-electron system (eV)
  ---------------------------------------------------
  alpha Z        PSCENC =       303.56200218
  Ewald energy   TEWEN  =     -8874.54081707
  -Hartree energ DENC   =     -2076.24239163
  -exchange      EXHF   =         0.00000000
  -V(xc)+E(xc)   XCENC  =       534.58971876
  PAW double counting   =      8141.38806575    -8271.61346273
  entropy T*S    EENTRO =        -0.00000000
  eigenvalues    EBANDS =     -2702.19589505
  atomic energy  EATOM  =     12703.13999606
  Solvation  Ediel_sol  =         0.00000000
  ---------------------------------------------------
  free energy    TOTEN  =      -241.91278373 eV

  energy without entropy =     -241.91278373  energy(sigma->0) =     -241.91278373


--------------------------------------------------------------------------------------------------------




--------------------------------------- Iteration      1(   7)  ---------------------------------------


     EDDAV:  cpu time      6.1527: real time      6.2024
       DOS:  cpu time      0.0008: real time      0.0008
    --------------------------------------------
      LOOP:  cpu time      6.1535: real time      6.2032

 eigenvalue-minimisations  :  9208
 total energy-change (2. order) :-0.3855909E-03  (-0.3855663E-03)
 number of electron     240.0000000 magnetization      52.0000000
 augmentation part      240.0000000 magnetization      52.0000000

 Free energy of the ion-electron system (eV)
  ---------------------------------------------------
  alpha Z        PSCENC =       303.56200218
  Ewald energy   TEWEN  =     -8874.54081707
  -Hartree energ DENC   =     -2076.24239163
  -exchange      EXHF   =         0.00000000
  -V(xc)+E(xc)   XCENC  =       534.58971876
  PAW double counting   =      8141.38806575    -8271.61346273
  entropy T*S    EENTRO =        -0.00000000
  eigenvalues    EBANDS =     -2702.19628064
  atomic energy  EATOM  =     12703.13999606
  Solvation  Ediel_sol  =         0.00000000
  ---------------------------------------------------
  free energy    TOTEN  =      -241.91316932 eV

  energy without entropy =     -241.91316932  energy(sigma->0) =     -241.91316932


--------------------------------------------------------------------------------------------------------




--------------------------------------- Iteration      1(   8)  ---------------------------------------


     EDDAV:  cpu time      6.0666: real time      6.1122
       DOS:  cpu time      0.0009: real time      0.0009
    --------------------------------------------
      LOOP:  cpu time      6.0675: real time      6.1131

 eigenvalue-minimisations  :  9056
 total energy-change (2. order) :-0.2199661E-04  (-0.2199595E-04)
 number of electron     240.0000000 magnetization      52.0000000
 augmentation part      240.0000000 magnetization      52.0000000

 Free energy of the ion-electron system (eV)
  ---------------------------------------------------
  alpha Z        PSCENC =       303.56200218
  Ewald energy   TEWEN  =     -8874.54081707
  -Hartree energ DENC   =     -2076.24239163
  -exchange      EXHF   =         0.00000000
  -V(xc)+E(xc)   XCENC  =       534.58971876
  PAW double counting   =      8141.38806575    -8271.61346273
  entropy T*S    EENTRO =        -0.00000000
  eigenvalues    EBANDS =     -2702.19630264
  atomic energy  EATOM  =     12703.13999606
  Solvation  Ediel_sol  =         0.00000000
  ---------------------------------------------------
  free energy    TOTEN  =      -241.91319132 eV

  energy without entropy =     -241.91319132  energy(sigma->0) =     -241.91319132


--------------------------------------------------------------------------------------------------------




--------------------------------------- Iteration      1(   9)  ---------------------------------------


     EDDAV:  cpu time      6.0352: real time      6.0841
       DOS:  cpu time      0.0009: real time      0.0009
    --------------------------------------------
      LOOP:  cpu time      6.0361: real time      6.0850

 eigenvalue-minimisations  :  8976
 total energy-change (2. order) :-0.1409990E-05  (-0.1409951E-05)
 number of electron     240.0000000 magnetization      52.0000000
 augmentation part      240.0000000 magnetization      52.0000000

 Free energy of the ion-electron system (eV)
  ---------------------------------------------------
  alpha Z        PSCENC =       303.56200218
  Ewald energy   TEWEN  =     -8874.54081707
  -Hartree energ DENC   =     -2076.24239163
  -exchange      EXHF   =         0.00000000
  -V(xc)+E(xc)   XCENC  =       534.58971876
  PAW double counting   =      8141.38806575    -8271.61346273
  entropy T*S    EENTRO =        -0.00000000
  eigenvalues    EBANDS =     -2702.19630405
  atomic energy  EATOM  =     12703.13999606
  Solvation  Ediel_sol  =         0.00000000
  ---------------------------------------------------
  free energy    TOTEN  =      -241.91319273 eV

  energy without entropy =     -241.91319273  energy(sigma->0) =     -241.91319273


--------------------------------------------------------------------------------------------------------




--------------------------------------- Iteration      1(  10)  ---------------------------------------


     EDDAV:  cpu time      4.0017: real time      4.0322
       DOS:  cpu time      0.0007: real time      0.0007
    CHARGE:  cpu time      0.1184: real time      0.1252
    MIXING:  cpu time      0.0016: real time      0.0038
    --------------------------------------------
      LOOP:  cpu time      4.1224: real time      4.1619

 eigenvalue-minimisations  :  5280
 total energy-change (2. order) :-0.6094888E-07  (-0.6103979E-07)
 number of electron     239.9999979 magnetization      27.1725503
 augmentation part        1.4925462 magnetization      27.6151752

 Broyden mixing:
  rms(total) = 0.64147E+01    rms(broyden)= 0.64142E+01
  rms(prec ) = 0.66516E+01
  weight for this iteration     100.00

 Free energy of the ion-electron system (eV)
  ---------------------------------------------------
  alpha Z        PSCENC =       303.56200218
  Ewald energy   TEWEN  =     -8874.54081707
  -Hartree energ DENC   =     -2076.24239163
  -exchange      EXHF   =         0.00000000
  -V(xc)+E(xc)   XCENC  =       534.58971876
  PAW double counting   =      8141.38806575    -8271.61346273
  entropy T*S    EENTRO =        -0.00000000
  eigenvalues    EBANDS =     -2702.19630411
  atomic energy  EATOM  =     12703.13999606
  Solvation  Ediel_sol  =         0.00000000
  ---------------------------------------------------
  free energy    TOTEN  =      -241.91319279 eV

  energy without entropy =     -241.91319279  energy(sigma->0) =     -241.91319279


--------------------------------------------------------------------------------------------------------




--------------------------------------- Iteration      1(  11)  ---------------------------------------


    POTLOK:  cpu time      0.0547: real time      0.0560
    SETDIJ:  cpu time      0.4013: real time      0.4045
    EDDIAG:  cpu time      0.7225: real time      0.7286
  RMM-DIIS:  cpu time      2.3466: real time      2.3672
    ORTHCH:  cpu time      0.1239: real time      0.1246
       DOS:  cpu time      0.0010: real time      0.0010
    CHARGE:  cpu time      0.1191: real time      0.1220
    MIXING:  cpu time      0.0012: real time      0.0191
    --------------------------------------------
      LOOP:  cpu time      3.7704: real time      3.8231

 eigenvalue-minimisations  :  5632
 total energy-change (2. order) : 0.4948516E+01  (-0.4598008E+01)
 number of electron     239.9999979 magnetization      16.2493292
 augmentation part        1.7067678 magnetization      16.4303290

 Broyden mixing:
  rms(total) = 0.33056E+01    rms(broyden)= 0.33054E+01
  rms(prec ) = 0.34180E+01
  weight for this iteration     100.00

 eigenvalues of (default mixing * dielectric matrix)
  average eigenvalue GAMMA=   0.7251
  0.7251

 Free energy of the ion-electron system (eV)
  ---------------------------------------------------
  alpha Z        PSCENC =       303.56200218
  Ewald energy   TEWEN  =     -8874.54081707
  -Hartree energ DENC   =     -2122.95201485
  -exchange      EXHF   =         0.00000000
  -V(xc)+E(xc)   XCENC  =       542.65567550
  PAW double counting   =      8926.48579345    -9062.75980459
  entropy T*S    EENTRO =        -0.00000000
  eigenvalues    EBANDS =     -2652.55550742
  atomic energy  EATOM  =     12703.13999606
  Solvation  Ediel_sol  =         0.00000000
  ---------------------------------------------------
  free energy    TOTEN  =      -236.96467672 eV

  energy without entropy =     -236.96467672  energy(sigma->0) =     -236.96467672


--------------------------------------------------------------------------------------------------------




--------------------------------------- Iteration      1(  12)  ---------------------------------------


    POTLOK:  cpu time      0.0530: real time      0.0538
    SETDIJ:  cpu time      0.3978: real time      0.3999
    EDDIAG:  cpu time      0.7170: real time      0.7213
  RMM-DIIS:  cpu time      2.4417: real time      2.4626
    ORTHCH:  cpu time      0.1235: real time      0.1242
       DOS:  cpu time      0.0008: real time      0.0009
    CHARGE:  cpu time      0.1179: real time      0.1200
    MIXING:  cpu time      0.0011: real time      0.0011
    --------------------------------------------
      LOOP:  cpu time      3.8528: real time      3.8838

 eigenvalue-minimisations  :  5858
 total energy-change (2. order) :-0.1919133E+02  (-0.2023552E+01)
 number of electron     239.9999979 magnetization       0.3512369
 augmentation part        1.8012966 magnetization       0.6894818

 Broyden mixing:
  rms(total) = 0.20162E+01    rms(broyden)= 0.20162E+01
  rms(prec ) = 0.20765E+01
  weight for this iteration     100.00

 eigenvalues of (default mixing * dielectric matrix)
  average eigenvalue GAMMA=   1.1659
  1.6603  0.6715

 Free energy of the ion-electron system (eV)
  ---------------------------------------------------
  alpha Z        PSCENC =       303.56200218
  Ewald energy   TEWEN  =     -8874.54081707
  -Hartree energ DENC   =     -2145.93010164
  -exchange      EXHF   =         0.00000000
  -V(xc)+E(xc)   XCENC  =       536.35436978
  PAW double counting   =      9277.80507368    -9417.65298670
  entropy T*S    EENTRO =        -0.00000000
  eigenvalues    EBANDS =     -2638.89354231
  atomic energy  EATOM  =     12703.13999606
  Solvation  Ediel_sol  =         0.00000000
  ---------------------------------------------------
  free energy    TOTEN  =      -256.15600603 eV

  energy without entropy =     -256.15600603  energy(sigma->0) =     -256.15600603


--------------------------------------------------------------------------------------------------------




--------------------------------------- Iteration      1(  13)  ---------------------------------------


    POTLOK:  cpu time      0.0538: real time      0.0547
    SETDIJ:  cpu time      0.3995: real time      0.4012
    EDDIAG:  cpu time      0.7126: real time      0.7175
  RMM-DIIS:  cpu time      2.4284: real time      2.4507
    ORTHCH:  cpu time      0.1243: real time      0.1249
       DOS:  cpu time      0.0008: real time      0.0008
    CHARGE:  cpu time      0.1194: real time      0.1213
    MIXING:  cpu time      0.0011: real time      0.0011
    --------------------------------------------
      LOOP:  cpu time      3.8397: real time      3.8722

 eigenvalue-minimisations  :  5812
 total energy-change (2. order) :-0.2500936E+01  (-0.8789950E+00)
 number of electron     239.9999979 magnetization      -1.8679565
 augmentation part        1.9026688 magnetization      -1.7657859

 Broyden mixing:
  rms(total) = 0.65573E+00    rms(broyden)= 0.65573E+00
  rms(prec ) = 0.68798E+00
  weight for this iteration     100.00

 eigenvalues of (default mixing * dielectric matrix)
  average eigenvalue GAMMA=   1.3011
  2.5017  0.7487  0.6531

 Free energy of the ion-electron system (eV)
  ---------------------------------------------------
  alpha Z        PSCENC =       303.56200218
  Ewald energy   TEWEN  =     -8874.54081707
  -Hartree energ DENC   =     -2172.67678583
  -exchange      EXHF   =         0.00000000
  -V(xc)+E(xc)   XCENC  =       537.94824919
  PAW double counting   =      9783.98814972    -9927.82226404
  entropy T*S    EENTRO =        -0.00000000
  eigenvalues    EBANDS =     -2612.25547198
  atomic energy  EATOM  =     12703.13999606
  Solvation  Ediel_sol  =         0.00000000
  ---------------------------------------------------
  free energy    TOTEN  =      -258.65694178 eV

  energy without entropy =     -258.65694178  energy(sigma->0) =     -258.65694178


--------------------------------------------------------------------------------------------------------




--------------------------------------- Iteration      1(  14)  ---------------------------------------


    POTLOK:  cpu time      0.0518: real time      0.0526
    SETDIJ:  cpu time      0.3985: real time      0.4001
    EDDIAG:  cpu time      0.7137: real time      0.7183
  RMM-DIIS:  cpu time      3.1544: real time      3.1804
    ORTHCH:  cpu time      0.1241: real time      0.1265
       DOS:  cpu time      0.0007: real time      0.0008
    CHARGE:  cpu time      0.1190: real time      0.1212
    MIXING:  cpu time      0.0011: real time      0.0011
    --------------------------------------------
      LOOP:  cpu time      4.5632: real time      4.6010

 eigenvalue-minimisations  :  7513
 total energy-change (2. order) :-0.1886665E+00  (-0.1874123E+00)
 number of electron     239.9999979 magnetization      -0.8524562
 augmentation part        1.8690714 magnetization      -0.8258352

 Broyden mixing:
  rms(total) = 0.31878E+00    rms(broyden)= 0.31878E+00
  rms(prec ) = 0.35243E+00
  weight for this iteration     100.00

 eigenvalues of (default mixing * dielectric matrix)
  average eigenvalue GAMMA=   1.2657
  2.6091  1.1731  0.6896  0.5911

 Free energy of the ion-electron system (eV)
  ---------------------------------------------------
  alpha Z        PSCENC =       303.56200218
  Ewald energy   TEWEN  =     -8874.54081707
  -Hartree energ DENC   =     -2173.54510294
  -exchange      EXHF   =         0.00000000
  -V(xc)+E(xc)   XCENC  =       538.35193712
  PAW double counting   =      9856.78717769   -10001.38399446
  entropy T*S    EENTRO =        -0.00000000
  eigenvalues    EBANDS =     -2611.21680683
  atomic energy  EATOM  =     12703.13999606
  Solvation  Ediel_sol  =         0.00000000
  ---------------------------------------------------
  free energy    TOTEN  =      -258.84560824 eV

  energy without entropy =     -258.84560824  energy(sigma->0) =     -258.84560824


--------------------------------------------------------------------------------------------------------




--------------------------------------- Iteration      1(  15)  ---------------------------------------


    POTLOK:  cpu time      0.0521: real time      0.0531
    SETDIJ:  cpu time      0.3997: real time      0.4017
    EDDIAG:  cpu time      0.7125: real time      0.7170
  RMM-DIIS:  cpu time      2.5807: real time      2.6026
    ORTHCH:  cpu time      0.1236: real time      0.1255
       DOS:  cpu time      0.0008: real time      0.0008
    CHARGE:  cpu time      0.1188: real time      0.1204
    MIXING:  cpu time      0.0012: real time      0.0012
    --------------------------------------------
      LOOP:  cpu time      3.9893: real time      4.0223

 eigenvalue-minimisations  :  6176
 total energy-change (2. order) : 0.2310392E-01  (-0.3187903E-01)
 number of electron     239.9999979 magnetization      -0.2329494
 augmentation part        1.8215682 magnetization      -0.2066205

 Broyden mixing:
  rms(total) = 0.67977E-01    rms(broyden)= 0.67974E-01
  rms(prec ) = 0.79939E-01
  weight for this iteration     100.00

 eigenvalues of (default mixing * dielectric matrix)
  average eigenvalue GAMMA=   1.2724
  2.5363  1.5889  0.9502  0.6850  0.6013

 Free energy of the ion-electron system (eV)
  ---------------------------------------------------
  alpha Z        PSCENC =       303.56200218
  Ewald energy   TEWEN  =     -8874.54081707
  -Hartree energ DENC   =     -2169.11280884
  -exchange      EXHF   =         0.00000000
  -V(xc)+E(xc)   XCENC  =       538.00568077
  PAW double counting   =      9829.68236994    -9974.09762692
  entropy T*S    EENTRO =        -0.00000000
  eigenvalues    EBANDS =     -2615.46130045
  atomic energy  EATOM  =     12703.13999606
  Solvation  Ediel_sol  =         0.00000000
  ---------------------------------------------------
  free energy    TOTEN  =      -258.82250433 eV

  energy without entropy =     -258.82250433  energy(sigma->0) =     -258.82250433


--------------------------------------------------------------------------------------------------------




--------------------------------------- Iteration      1(  16)  ---------------------------------------


    POTLOK:  cpu time      0.0517: real time      0.0626
    SETDIJ:  cpu time      0.3988: real time      0.4001
    EDDIAG:  cpu time      0.7107: real time      0.7148
  RMM-DIIS:  cpu time      2.5637: real time      2.5859
    ORTHCH:  cpu time      0.1247: real time      0.1254
       DOS:  cpu time      0.0009: real time      0.0009
    CHARGE:  cpu time      0.1185: real time      0.1197
    MIXING:  cpu time      0.0012: real time      0.0012
    --------------------------------------------
      LOOP:  cpu time      3.9702: real time      4.0104

 eigenvalue-minimisations  :  6131
 total energy-change (2. order) :-0.1910837E-01  (-0.9901455E-02)
 number of electron     239.9999979 magnetization      -0.1086200
 augmentation part        1.7997446 magnetization      -0.0941852

 Broyden mixing:
  rms(total) = 0.30517E-01    rms(broyden)= 0.30515E-01
  rms(prec ) = 0.36692E-01
  weight for this iteration     100.00

 eigenvalues of (default mixing * dielectric matrix)
  average eigenvalue GAMMA=   1.2513
  2.4623  1.9405  1.0389  0.6208  0.6987  0.7468

 Free energy of the ion-electron system (eV)
  ---------------------------------------------------
  alpha Z        PSCENC =       303.56200218
  Ewald energy   TEWEN  =     -8874.54081707
  -Hartree energ DENC   =     -2168.57061936
  -exchange      EXHF   =         0.00000000
  -V(xc)+E(xc)   XCENC  =       537.92443927
  PAW double counting   =      9818.74555055    -9962.93789815
  entropy T*S    EENTRO =        -0.00000000
  eigenvalues    EBANDS =     -2616.16426618
  atomic energy  EATOM  =     12703.13999606
[...]
 -0.005   0.004   0.000   0.000   0.003   0.000   0.000   0.000   0.000  -0.000   0.000  -0.000   0.000  -0.000
 -0.001   0.001   0.000   0.000   0.000   0.005   0.000   0.000   0.000  -0.000  -0.000   0.000  -0.000  -0.000
  0.009  -0.009  -0.000   0.003  -0.004  -0.007   0.000  -0.000  -0.000   0.000   0.000   0.000  -0.000   0.000
  0.003  -0.003  -0.000   0.003   0.002  -0.004   0.000   0.000  -0.000   0.000   0.000   0.000   0.000  -0.000
 -0.011   0.011   0.000   0.005  -0.002   0.004   0.000  -0.000   0.000   0.000   0.000   0.000  -0.000  -0.000
  0.004  -0.004  -0.000  -0.004   0.004  -0.008  -0.000   0.000  -0.000  -0.000   0.000  -0.000   0.000  -0.000
  0.014  -0.014  -0.000  -0.000  -0.005  -0.006  -0.000  -0.000  -0.000   0.000  -0.000  -0.000  -0.000   0.000
 total augmentation occupancy for first ion, spin component:           2
 -0.000   0.000   0.000   0.000   0.000  -0.000   0.000   0.000  -0.000   0.000   0.000   0.000   0.000  -0.000
  0.000  -0.000  -0.000  -0.000  -0.000   0.000  -0.000  -0.000   0.000  -0.000  -0.000  -0.000  -0.000   0.000
  0.000  -0.000  -0.000   0.000  -0.000   0.000   0.000  -0.000   0.000   0.000  -0.000   0.000   0.000   0.000
  0.000  -0.000   0.000   0.000  -0.000   0.000   0.000  -0.000   0.000   0.000  -0.000   0.000  -0.000   0.000
  0.000  -0.000  -0.000  -0.000   0.000   0.000  -0.000  -0.000   0.000   0.000   0.000  -0.000  -0.000  -0.000
 -0.000   0.000   0.000   0.000   0.000   0.000   0.000   0.000   0.000   0.000  -0.000  -0.000  -0.000   0.000
  0.000  -0.000   0.000   0.000  -0.000   0.000  -0.000  -0.000   0.000   0.000  -0.000  -0.000  -0.000   0.000
  0.000  -0.000  -0.000  -0.000  -0.000   0.000  -0.000  -0.000   0.000  -0.000  -0.000  -0.000  -0.000   0.000
 -0.000   0.000   0.000   0.000   0.000   0.000   0.000   0.000  -0.000   0.000   0.000  -0.000  -0.000  -0.000
  0.000  -0.000   0.000   0.000   0.000   0.000   0.000  -0.000   0.000   0.000   0.000   0.000   0.000  -0.000
  0.000  -0.000  -0.000  -0.000   0.000  -0.000  -0.000  -0.000   0.000   0.000   0.000   0.000   0.000  -0.000
  0.000  -0.000   0.000   0.000  -0.000  -0.000  -0.000  -0.000  -0.000   0.000   0.000   0.000   0.000  -0.000
  0.000  -0.000   0.000  -0.000  -0.000  -0.000  -0.000  -0.000  -0.000   0.000   0.000   0.000   0.000  -0.000
 -0.000   0.000   0.000   0.000  -0.000   0.000   0.000   0.000  -0.000  -0.000  -0.000  -0.000  -0.000   0.000


------------------------ aborting loop because EDIFF is reached ----------------------------------------


    CHARGE:  cpu time      0.1180: real time      0.1193
    FORLOC:  cpu time      0.0037: real time      0.0037
    FORNL :  cpu time      0.7726: real time      0.7774
    STRESS:  cpu time      2.3015: real time      2.3158
    FORCOR:  cpu time      0.0507: real time      0.0510
    FORHAR:  cpu time      0.0085: real time      0.0085
    MIXING:  cpu time      0.0008: real time      0.0008
    OFIELD:  cpu time      0.0000: real time      0.0000

 ---------------------------------------------------------------------------------------------

         DFTD3 V3.0 Rev 1        
 Edisp (eV)  -13.70081

 E6    (eV) :    -8.4397
 E8    (eV) :    -5.2611
 % E8        : 38.40
    FORVDW:  cpu time      0.2901: real time      0.2922

  FORCE on cell =-STRESS in cart. coord.  units (eV):
  Direction    XX          YY          ZZ          XY          YZ          ZX
  --------------------------------------------------------------------------------------
  Alpha Z   303.56200   303.56200   303.56200
  Ewald   -2976.98852 -2977.05934 -2920.28102   -12.49851    53.72373    53.70584
  Hartree   712.30568   712.28453   746.65829     1.87433    20.06612    20.12178
  E(xc)    -947.84678  -947.84691  -947.83469    -0.05353     0.13217     0.13170
  Local   -1447.20125 -1447.11169 -1534.74577     6.09155   -69.66682   -69.72873
  n-local  1481.64388  1481.68285  1481.40634     0.02452     0.66449     0.64519
  augment  -356.88318  -356.88034  -356.99739    -0.27363     0.09160     0.08863
  Kinetic  3244.66046  3244.65296  3245.18810     5.93278    -2.81128    -2.77481
  Fock        0.00000     0.00000     0.00000     0.00000     0.00000     0.00000
  vdW       -14.49339   -14.49337   -14.42089    -0.00042     0.00797     0.00785
  -------------------------------------------------------------------------------------
  Total      -1.24110    -1.20933     2.53496     1.09710     2.20798     2.19743
  in kB      -2.22364    -2.16671     4.54179     1.96563     3.95596     3.93705
  external pressure =        0.05 kB  Pullay stress =        0.00 kB


 VOLUME and BASIS-vectors are now :
 -----------------------------------------------------------------------------
  energy-cutoff  :      520.00
  volume of cell :      894.24
      direct lattice vectors                 reciprocal lattice vectors
     9.634255231  0.000000000  0.000000000     0.103796295  0.000000000  0.000000000
     0.000000000  9.634255231  0.000000000     0.000000000  0.103796295  0.000000000
     0.000000000  0.000000000  9.634255231     0.000000000  0.000000000  0.103796295

  length of vectors
     9.634255231  9.634255231  9.634255231     0.103796295  0.103796295  0.103796295


 FORCES acting on ions
    electron-ion (+dipol)            ewald-force                    non-local-force                 convergence-correction
 -----------------------------------------------------------------------------------------------
   0.121E+01 -.659E+01 -.113E+02   -.191E+01 0.538E+01 0.992E+01   0.705E+00 0.121E+01 0.142E+01   0.622E-06 -.229E-05 -.575E-05
   -.306E+01 0.786E+00 -.517E+01   0.241E+01 -.112E+00 0.626E+01   0.646E+00 -.677E+00 -.109E+01   -.124E-04 -.130E-04 0.315E-05
   0.603E+01 -.293E+01 -.309E+01   -.492E+01 0.363E+01 0.251E+01   -.111E+01 -.693E+00 0.575E+00   -.627E-04 0.130E-04 -.399E-04
   0.483E+01 0.338E+01 0.178E+01   -.396E+01 -.236E+01 -.297E+01   -.859E+00 -.102E+01 0.119E+01   -.278E-04 -.621E-05 -.968E-05
   0.179E+01 -.121E+02 0.154E+02   -.789E+00 0.105E+02 -.140E+02   -.100E+01 0.160E+01 -.142E+01   0.216E-04 0.460E-04 0.255E-04
   0.288E+01 0.302E+01 0.368E+01   -.196E+01 -.421E+01 -.292E+01   -.929E+00 0.119E+01 -.753E+00   0.789E-04 0.773E-04 0.177E-04
   0.288E+01 0.302E+01 0.368E+01   -.196E+01 -.421E+01 -.292E+01   -.929E+00 0.119E+01 -.753E+00   0.793E-04 0.775E-04 0.179E-04
   0.603E+01 -.293E+01 -.309E+01   -.492E+01 0.362E+01 0.251E+01   -.111E+01 -.693E+00 0.575E+00   -.624E-04 0.130E-04 -.399E-04
   0.791E+00 -.305E+01 -.518E+01   -.119E+00 0.240E+01 0.627E+01   -.674E+00 0.646E+00 -.109E+01   -.358E-04 0.496E-05 0.418E-04
   0.338E+01 0.483E+01 0.180E+01   -.236E+01 -.396E+01 -.299E+01   -.102E+01 -.859E+00 0.119E+01   0.894E-05 -.563E-04 -.284E-04
   -.658E+01 0.120E+01 -.114E+02   0.538E+01 -.191E+01 0.994E+01   0.121E+01 0.706E+00 0.142E+01   0.136E-04 -.578E-04 0.418E-04
   -.122E+02 0.179E+01 0.154E+02   0.106E+02 -.790E+00 -.140E+02   0.160E+01 -.100E+01 -.142E+01   0.297E-04 0.155E-04 0.460E-04
   -.290E+01 0.602E+01 -.308E+01   0.360E+01 -.491E+01 0.251E+01   -.694E+00 -.111E+01 0.574E+00   -.180E-04 -.481E-04 -.101E-03
   0.303E+01 0.290E+01 0.369E+01   -.421E+01 -.197E+01 -.294E+01   0.119E+01 -.928E+00 -.753E+00   0.548E-04 0.570E-04 -.206E-04
   0.303E+01 0.290E+01 0.369E+01   -.421E+01 -.197E+01 -.294E+01   0.119E+01 -.928E+00 -.753E+00   0.550E-04 0.571E-04 -.205E-04
   -.290E+01 0.602E+01 -.308E+01   0.360E+01 -.491E+01 0.251E+01   -.694E+00 -.111E+01 0.574E+00   -.181E-04 -.481E-04 -.101E-03
   -.658E+01 0.120E+01 -.114E+02   0.538E+01 -.191E+01 0.994E+01   0.121E+01 0.706E+00 0.142E+01   0.134E-04 -.578E-04 0.417E-04
   -.122E+02 0.179E+01 0.154E+02   0.106E+02 -.790E+00 -.140E+02   0.160E+01 -.100E+01 -.142E+01   0.294E-04 0.155E-04 0.461E-04
   0.790E+00 -.305E+01 -.518E+01   -.119E+00 0.240E+01 0.627E+01   -.674E+00 0.646E+00 -.109E+01   -.356E-04 0.513E-05 0.417E-04
   0.338E+01 0.483E+01 0.180E+01   -.236E+01 -.396E+01 -.299E+01   -.102E+01 -.859E+00 0.119E+01   0.929E-05 -.561E-04 -.284E-04
   -.306E+01 0.786E+00 -.517E+01   0.241E+01 -.112E+00 0.626E+01   0.646E+00 -.677E+00 -.109E+01   -.124E-04 -.131E-04 0.292E-05
   0.121E+01 -.659E+01 -.113E+02   -.191E+01 0.538E+01 0.992E+01   0.705E+00 0.121E+01 0.142E+01   0.579E-06 -.223E-05 -.570E-05
   0.483E+01 0.338E+01 0.178E+01   -.396E+01 -.236E+01 -.297E+01   -.859E+00 -.102E+01 0.119E+01   -.279E-04 -.604E-05 -.951E-05
   0.179E+01 -.121E+02 0.154E+02   -.789E+00 0.105E+02 -.140E+02   -.100E+01 0.160E+01 -.142E+01   0.218E-04 0.460E-04 0.255E-04
   -.168E+01 0.218E+01 -.187E+01   0.145E+01 -.202E+01 0.201E+01   0.220E+00 -.157E+00 -.137E+00   -.101E-03 0.922E-05 -.121E-03
   0.219E+01 -.168E+01 -.188E+01   -.202E+01 0.145E+01 0.201E+01   -.159E+00 0.224E+00 -.137E+00   0.431E-04 -.114E-03 -.730E-04
   0.219E+01 -.168E+01 -.188E+01   -.202E+01 0.145E+01 0.201E+01   -.159E+00 0.224E+00 -.137E+00   0.427E-04 -.114E-03 -.735E-04
   -.168E+01 0.218E+01 -.187E+01   0.146E+01 -.202E+01 0.201E+01   0.220E+00 -.157E+00 -.137E+00   -.100E-03 0.936E-05 -.120E-03
   -.584E+02 0.316E+02 -.256E+02   0.627E+02 -.344E+02 0.279E+02   -.428E+01 0.288E+01 -.233E+01   0.260E-04 0.225E-04 0.121E-03
   -.261E+02 -.470E+02 0.415E+02   0.282E+02 0.505E+02 -.448E+02   -.210E+01 -.344E+01 0.328E+01   -.774E-04 0.189E-04 -.455E-04
   0.577E+02 0.244E+02 0.376E+02   -.618E+02 -.264E+02 -.404E+02   0.410E+01 0.194E+01 0.282E+01   -.957E-04 0.110E-03 -.384E-04
   0.344E+02 -.420E+02 -.485E+02   -.367E+02 0.450E+02 0.520E+02   0.229E+01 -.296E+01 -.345E+01   0.367E-04 -.129E-03 -.133E-03
   0.315E+02 -.584E+02 -.256E+02   -.344E+02 0.627E+02 0.280E+02   0.288E+01 -.428E+01 -.234E+01   -.815E-05 0.790E-05 0.150E-03
   0.244E+02 0.577E+02 0.376E+02   -.263E+02 -.618E+02 -.404E+02   0.194E+01 0.410E+01 0.282E+01   0.666E-04 -.909E-04 -.149E-04
   -.471E+02 -.261E+02 0.415E+02   0.505E+02 0.282E+02 -.448E+02   -.344E+01 -.210E+01 0.328E+01   -.836E-04 -.114E-03 0.917E-04
   -.420E+02 0.344E+02 -.485E+02   0.450E+02 -.367E+02 0.520E+02   -.296E+01 0.230E+01 -.346E+01   -.775E-04 -.460E-04 0.183E-04
   -.471E+02 -.261E+02 0.415E+02   0.505E+02 0.282E+02 -.448E+02   -.344E+01 -.210E+01 0.328E+01   -.826E-04 -.114E-03 0.913E-04
   -.420E+02 0.344E+02 -.485E+02   0.450E+02 -.367E+02 0.520E+02   -.296E+01 0.230E+01 -.346E+01   -.775E-04 -.460E-04 0.183E-04
   0.315E+02 -.584E+02 -.256E+02   -.344E+02 0.627E+02 0.280E+02   0.288E+01 -.428E+01 -.234E+01   -.834E-05 0.824E-05 0.150E-03
   0.244E+02 0.577E+02 0.376E+02   -.263E+02 -.618E+02 -.404E+02   0.194E+01 0.410E+01 0.282E+01   0.666E-04 -.917E-04 -.152E-04
   -.261E+02 -.470E+02 0.415E+02   0.282E+02 0.505E+02 -.448E+02   -.210E+01 -.344E+01 0.328E+01   -.776E-04 0.189E-04 -.456E-04
   -.584E+02 0.316E+02 -.256E+02   0.627E+02 -.344E+02 0.279E+02   -.428E+01 0.288E+01 -.233E+01   0.266E-04 0.219E-04 0.121E-03
   0.344E+02 -.420E+02 -.485E+02   -.367E+02 0.450E+02 0.520E+02   0.229E+01 -.296E+01 -.345E+01   0.364E-04 -.129E-03 -.134E-03
   0.577E+02 0.244E+02 0.376E+02   -.618E+02 -.264E+02 -.404E+02   0.410E+01 0.194E+01 0.282E+01   -.955E-04 0.110E-03 -.384E-04
   0.206E+01 -.155E+02 -.233E+01   -.220E+01 0.158E+02 0.243E+01   0.132E+00 -.313E+00 -.108E+00   -.451E-04 0.128E-03 -.202E-04
   -.155E+02 0.204E+01 -.232E+01   0.158E+02 -.218E+01 0.243E+01   -.314E+00 0.133E+00 -.107E+00   0.180E-03 -.487E-04 -.767E-05
   -.155E+02 0.204E+01 -.232E+01   0.158E+02 -.218E+01 0.243E+01   -.314E+00 0.133E+00 -.107E+00   0.180E-03 -.487E-04 -.762E-05
   0.206E+01 -.155E+02 -.233E+01   -.220E+01 0.158E+02 0.244E+01   0.132E+00 -.313E+00 -.108E+00   -.454E-04 0.127E-03 -.204E-04
   0.394E+02 0.174E+01 -.204E+01   -.400E+02 -.183E+01 0.207E+01   0.597E+00 0.979E-01 -.325E-01   -.118E-03 0.484E-04 0.674E-04
   0.176E+01 0.393E+02 -.197E+01   -.185E+01 -.399E+02 0.200E+01   0.979E-01 0.598E+00 -.317E-01   0.617E-04 -.106E-03 -.528E-04
   0.176E+01 0.393E+02 -.197E+01   -.185E+01 -.399E+02 0.200E+01   0.979E-01 0.598E+00 -.317E-01   0.620E-04 -.106E-03 -.529E-04
   0.394E+02 0.174E+01 -.204E+01   -.400E+02 -.184E+01 0.208E+01   0.597E+00 0.979E-01 -.325E-01   -.118E-03 0.485E-04 0.675E-04
 -----------------------------------------------------------------------------------------------
   0.385E+01 0.384E+01 0.175E+00   -.711E-13 0.657E-13 0.515E-13   -.385E+01 -.382E+01 -.203E+00   -.279E-03 -.548E-03 -.177E-03
 
 
 POSITION                                       TOTAL-FORCE (eV/Angst)
 -----------------------------------------------------------------------------------
      9.15630      3.27926      3.10527         0.000083     -0.000037     -0.000161
      9.42829      6.72360      6.78101        -0.000083     -0.000321      0.000265
      1.45372      2.08778      9.33627         0.000801     -0.000194      0.000195
      0.03779      6.83141      2.74868         0.000157     -0.000176     -0.000158
      0.30688      3.22047      6.48708        -0.000078     -0.000498     -0.000122
      1.74473      7.60998      0.13680         0.000316      0.000204     -0.000002
      6.56187      2.79285      0.13680         0.000316      0.000204     -0.000002
      6.27082      6.90490      9.33626         0.000801     -0.000194      0.000195
      1.81690      9.51900      1.96396        -0.000346     -0.000047      0.000250
      1.92288      0.12806      7.56544        -0.000152      0.000196     -0.000081
      8.00608      9.24662      7.92231        -0.000090      0.000084     -0.000156
      7.94703      0.39712      1.66974        -0.000505     -0.000074     -0.000038
      1.99702      6.36092      4.51883        -0.000178      0.000930      0.000257
      2.70217      1.83468      4.95394         0.000187      0.000320      0.000009
      7.51929      6.65178      4.95394         0.000187      0.000320      0.000009
      6.81415      1.54379      4.51884        -0.000178      0.000930      0.000257
      3.18895      4.42950      7.92230        -0.000090      0.000084     -0.000156
      3.12989      5.21425      1.66972        -0.000505     -0.000074     -0.000038
      6.63404      4.70188      1.96396        -0.000346     -0.000047      0.000250
      6.73999      4.94519      7.56545        -0.000152      0.000196     -0.000081
      4.61118      1.90649      6.78101        -0.000083     -0.000321      0.000265
      4.33916      8.09640      3.10526         0.000083     -0.000037     -0.000161
      4.85493      2.01429      2.74869         0.000157     -0.000176     -0.000158
      5.12401      8.03762      6.48707        -0.000078     -0.000498     -0.000122
      4.73810      4.82489      4.80107        -0.000152      0.000018     -0.000094
      4.73440      0.01253      9.61820         0.000108     -0.000117     -0.000229
      9.55152      4.82966      9.61819         0.000108     -0.000117     -0.000229
      9.55523      0.00776      4.80107        -0.000152      0.000018     -0.000094
      1.22234      8.39872      5.78503         0.000041     -0.000318      0.000562
      0.91001      1.31518      3.55525         0.000392      0.000313      0.000015
      8.23706      8.57093      3.64801        -0.000105     -0.000379     -0.000573
      8.53747      1.17795      6.13801        -0.000389      0.000126      0.000103
      8.30852      6.13097      0.96826        -0.000261     -0.000005      0.000446
      8.48038      3.51157      8.46502        -0.000343     -0.000108     -0.000630
      1.22508      5.81811      8.37243         0.000305      0.000419     -0.000006
      1.08713      3.81129      1.32083         0.000240     -0.000435      0.000141
      6.04221      1.00098      8.37243         0.000305      0.000419     -0.000006
      5.90427      8.62842      1.32083         0.000240     -0.000435      0.000141
      3.49140      1.31384      0.96826        -0.000261     -0.000005      0.000446
      3.66325      8.32869      8.46502        -0.000343     -0.000108     -0.000630
      5.72713      6.13231      3.55524         0.000392      0.000313      0.000015
      6.03947      3.58160      5.78502         0.000041     -0.000318      0.000562
      3.72033      5.99509      6.13800        -0.000389      0.000126      0.000103
      3.41994      3.75381      3.64800        -0.000105     -0.000379     -0.000573
      7.20296      7.18304      7.18570        -0.000007      0.000021      0.000025
      7.09274      2.47628      2.36847        -0.000005      0.000013      0.000025
      2.27561      7.29341      2.36847        -0.000005      0.000013      0.000025
      2.38584      2.36591      7.18570        -0.000007      0.000021      0.000025
      0.22692      9.58756      9.57450         0.000052      0.000080      0.000001
      9.49668      5.13389      4.75782         0.000011     -0.000016     -0.000041
      4.67955      0.31677      4.75782         0.000011     -0.000016     -0.000041
      5.04405      4.77042      9.57450         0.000052      0.000080      0.000001
 -----------------------------------------------------------------------------------
    total drift:                               -0.000470      0.015217     -0.027741


--------------------------------------------------------------------------------------------------------



  FREE ENERGIE OF THE ION-ELECTRON SYSTEM (eV)
  ---------------------------------------------------
  free  energy   TOTEN  =      -272.54991638 eV

  energy  without entropy=     -272.54991638  energy(sigma->0) =     -272.54991638
 
 d Force = 0.8091264E-06[ 0.494E-06, 0.112E-05]  d Energy = 0.1177746E-05-0.369E-06
 d Force =-0.9306687E-02[-0.931E-02,-0.931E-02]  d Ewald  =-0.9306687E-02 0.600E-10


--------------------------------------------------------------------------------------------------------


    POTLOK:  cpu time      0.4503: real time      0.4517


--------------------------------------------------------------------------------------------------------


 stress matrix after NEB project (eV)
     -1.24110      1.09710      2.19743
      1.09710     -1.20933      2.20798
      2.19743      2.20798      2.53496
  FORCES: max atom, RMS     0.000981    0.000475
  FORCE total and by dimension    0.003423    0.000930
  Stress total and by dimension    5.589621    2.534961
 Conjugate gradient step on ions:
 trial-energy change:   -0.000001  1 .order   -0.000001   -0.000001   -0.000000
  (g-gl).g = 0.911E-06      g.g   = 0.849E-06  gl.gl    = 0.526E-05
 g(Force)  = 0.849E-06   g(Stress)= 0.000E+00 ortho     =-0.625E-07
 gamma     =   0.17341
 trial     =   1.34166
 opt step  =   2.39357  (harmonic =   2.39357) maximal distance =0.00009496
 next E    =  -272.549916   (d E  =  -0.00000)


--------------------------------------------------------------------------------------------------------


  
 reached required accuracy - stopping structural energy minimisation
     LOOP+:  cpu time     12.4565: real time     12.5627
    4ORBIT:  cpu time      0.0000: real time      0.0000

 total amount of memory used by VASP MPI-rank0    52535. kBytes
=======================================================================

   base      :      30000. kBytes
   nonlr-proj:       6572. kBytes
   fftplans  :       1747. kBytes
   grid      :       5278. kBytes
   one-center:         62. kBytes
   wavefun   :       8876. kBytes
 
  
  
 General timing and accounting informations for this job:
 ========================================================
  
                  Total CPU time used (sec):      203.414
                            User time (sec):      202.174
                          System time (sec):        1.240
                         Elapsed time (sec):      208.495
  
                   Maximum memory used (kb):      386736.
                   Average memory used (kb):          N/A
  
                          Minor page faults:        58970
                          Major page faults:          133
                 Voluntary context switches:         6014
