<?xml version="1.0" encoding="ISO-8859-1"?>
<modeling>
 <generator>
  <i name="program" type="string">vasp </i>
  <i name="version" type="string">6.4.1  </i>
  <i name="subversion" type="string">05Apr23 (build Jun 07 2023 15:38:11) complex                          parallel </i>
  <i name="platform" type="string">LinuxIFC </i>
  <i name="date" type="string">2023 10 30 </i>
  <i name="time" type="string">11:54:41 </i>
 </generator>
 <incar>
  <i type="string" name="PREC">Accu</i>
  <i type="string" name="ALGO">F</i>
  <i type="logical" name="LDIAG"> T  </i>
  <i type="int" name="ISPIN">     2</i>
  <i type="int" name="NELM">   100</i>
  <i type="int" name="NELMDL">   -10</i>
  <i type="int" name="IBRION">     2</i>
  <i name="EDIFF">      0.00000100</i>
  <i name="EDIFFG">     -0.00100000</i>
  <i type="int" name="NSW">  1000</i>
  <i type="int" name="ISIF">     2</i>
  <i name="ENCUT">    520.00000000</i>
  <i name="POTIM">      0.20000000</i>
  <i type="string" name="LREAL">Auto</i>
  <i type="logical" name="LPLANE"> T  </i>
  <i type="int" name="ISMEAR">     0</i>
  <i name="SIGMA">      0.03000000</i>
  <i type="int" name="LMAXMIX">     4</i>
  <i type="logical" name="LWAVE"> F  </i>
  <i type="logical" name="LCHARG"> F  </i>
  <i type="logical" name="LASPH"> T  </i>
  <i type="string" name="GGA">PE</i>
  <i type="int" name="IVDW">    12</i>
 </incar>
 <primitive_cell>
  <structure name="primitive_cell" >
   <crystal>
    <varray name="basis" >
     <v>       4.81712605      -4.81712026       0.00000000 </v>
     <v>       4.81712605       4.81713497       0.00000000 </v>
     <v>       0.00000000       0.00000000       9.63425523 </v>
    </varray>
    <i name="volume">    447.12021502 </i>
    <varray name="rec_basis" >
     <v>       0.10379649      -0.10379630       0.00000000 </v>
     <v>       0.10379617       0.10379630       0.00000000 </v>
     <v>       0.00000000       0.00000000       0.10379630 </v>
    </varray>
   </crystal>
   <varray name="positions" >
    <v>       0.61001498       0.29076342       0.32231853 </v>
    <v>       0.28073517       0.67651399       0.70383834 </v>
    <v>       0.93416939       0.36758377       0.96906656 </v>
    <v>       0.29484063       0.71299784       0.28530665 </v>
    <v>       0.69757162       0.36613567       0.67333697 </v>
    <v>       0.39120970       0.97097609       0.01419831 </v>
    <v>       0.20055695       0.17663309       0.20384738 </v>
    <v>       0.18630179       0.21287586       0.78526776 </v>
    <v>       0.87124010       0.79076635       0.82231003 </v>
    <v>       0.78366255       0.86610122       0.17331333 </v>
    <v>       0.54706524       0.86750938       0.46903427 </v>
    <v>       0.09004460       0.47089955       0.51420000 </v>
    <v>       0.99099685       0.99260062       0.49833327 </v>
    <v>       0.49011267       0.49270722       0.99833666 </v>
    <v>       0.25515068       0.99863826       0.60046671 </v>
    <v>       0.95794144       0.23098334       0.36900406 </v>
    <v>       0.96533701       0.74458237       0.37864347 </v>
    <v>       0.76387304       0.00843155       0.63711894 </v>
    <v>       0.22598877       0.49877335       0.10050640 </v>
    <v>       0.51575193       0.24469245       0.87863220 </v>
    <v>       0.52326492       0.73107210       0.86901115 </v>
    <v>       0.71726050       0.50844546       0.13711499 </v>
    <v>       0.00206952       0.49321553       0.74584984 </v>
    <v>       0.47917330       0.99322912       0.24583932 </v>
    <v>       0.02840268       0.01870503       0.99379738 </v>
    <v>       0.45284197       0.51859629       0.49384324 </v>
   </varray>
  </structure>
  <varray name="primitive_index" >
   <v type="int" >        1 </v>
   <v type="int" >        2 </v>
   <v type="int" >        3 </v>
   <v type="int" >        4 </v>
   <v type="int" >        5 </v>
   <v type="int" >        7 </v>
   <v type="int" >       19 </v>
   <v type="int" >       20 </v>
   <v type="int" >       11 </v>
   <v type="int" >       12 </v>
   <v type="int" >       16 </v>
   <v type="int" >       14 </v>
   <v type="int" >       28 </v>
   <v type="int" >       27 </v>
   <v type="int" >       42 </v>
   <v type="int" >       30 </v>
   <v type="int" >       44 </v>
   <v type="int" >       32 </v>
   <v type="int" >       33 </v>
   <v type="int" >       34 </v>
   <v type="int" >       35 </v>
   <v type="int" >       36 </v>
   <v type="int" >       48 </v>
   <v type="int" >       46 </v>
   <v type="int" >       49 </v>
   <v type="int" >       50 </v>
  </varray>
 </primitive_cell>
 <kpoints>
  <generation param="Gamma">
   <v type="int" name="divisions">       2        2        2 </v>
   <v name="usershift">      0.00000000       0.00000000       0.00000000 </v>
   <v name="genvec1">      0.50000000       0.00000000       0.00000000 </v>
   <v name="genvec2">      0.00000000       0.50000000       0.00000000 </v>
   <v name="genvec3">      0.00000000       0.00000000       0.50000000 </v>
   <v name="shift">      0.00000000       0.00000000       0.00000000 </v>
  </generation>
  <varray name="kpointlist" >
   <v>       0.00000000       0.00000000       0.00000000 </v>
   <v>       0.50000000       0.00000000       0.00000000 </v>
   <v>       0.00000000       0.50000000       0.00000000 </v>
   <v>       0.00000000       0.00000000       0.50000000 </v>
   <v>       0.50000000       0.50000000       0.00000000 </v>
   <v>       0.00000000       0.50000000       0.50000000 </v>
   <v>       0.50000000       0.00000000       0.50000000 </v>
   <v>       0.50000000       0.50000000       0.50000000 </v>
  </varray>
  <varray name="weights" >
   <v>       0.12500000 </v>
   <v>       0.12500000 </v>
   <v>       0.12500000 </v>
   <v>       0.12500000 </v>
   <v>       0.12500000 </v>
   <v>       0.12500000 </v>
   <v>       0.12500000 </v>
   <v>       0.12500000 </v>
  </varray>
 </kpoints>
 <parameters>
  <separator name="general" >
   <i type="string" name="SYSTEM">unknown system</i>
   <i type="logical" name="LCOMPAT"> F  </i>
  </separator>
  <separator name="electronic" >
   <i type="string" name="PREC">accu</i>
   <i name="ENMAX">    520.00000000</i>
   <i name="ENAUG">   1041.69900000</i>
   <i name="EDIFF">      0.00000100</i>
   <i type="int" name="IALGO">    68</i>
   <i type="int" name="IWAVPR">    11</i>
   <i type="int" name="NBANDS">   176</i>
   <i type="int" name="NBANDSLOW">    -1</i>
   <i type="int" name="NBANDSHIGH">    -1</i>
   <i name="NELECT">    240.00000000</i>
   <i type="int" name="TURBO">     0</i>
   <i type="int" name="IRESTART">     0</i>
   <i type="int" name="NREBOOT">     0</i>
   <i type="int" name="NMIN">     0</i>
   <i name="EREF">      0.00000000</i>
   <separator name="electronic smearing" >
    <i type="int" name="ISMEAR">     0</i>
    <i name="SIGMA">      0.03000000</i>
    <i name="KSPACING">      0.50000000</i>
    <i type="logical" name="KGAMMA"> T  </i>
    <i type="logical" name="KBLOWUP"> T  </i>
   </separator>
   <separator name="electronic projectors" >
    <i type="logical" name="LREAL"> T  </i>
    <v name="ROPT">     -0.00025000     -0.00025000     -0.00025000     -0.00025000</v>
    <i type="int" name="LMAXPAW">  -100</i>
    <i type="int" name="LMAXMIX">     4</i>
    <i type="logical" name="NLSPLINE"> F  </i>
   </separator>
   <separator name="electronic startup" >
    <i type="int" name="ISTART">     0</i>
    <i type="int" name="ICHARG">     2</i>
    <i type="int" name="INIWAV">     1</i>
   </separator>
   <separator name="electronic spin" >
    <i type="int" name="ISPIN">     2</i>
    <i type="logical" name="LNONCOLLINEAR"> F  </i>
    <v name="MAGMOM">      1.00000000      1.00000000      1.00000000      1.00000000      1.00000000      1.00000000      1.00000000      1.00000000      1.00000000      1.00000000      1.00000000      1.00000000      1.00000000      1.00000000      1.00000000      1.00000000      1.00000000      1.00000000      1.00000000      1.00000000
      1.00000000      1.00000000      1.00000000      1.00000000      1.00000000      1.00000000      1.00000000      1.00000000      1.00000000      1.00000000      1.00000000      1.00000000      1.00000000      1.00000000      1.00000000      1.00000000      1.00000000      1.00000000      1.00000000      1.00000000
      1.00000000      1.00000000      1.00000000      1.00000000      1.00000000      1.00000000      1.00000000      1.00000000      1.00000000      1.00000000      1.00000000      1.00000000</v>
    <i name="NUPDOWN">     -1.00000000</i>
    <i type="logical" name="LSORBIT"> F  </i>
    <v name="SAXIS">      0.00000000      0.00000000      1.00000000</v>
    <i type="logical" name="LSPIRAL"> F  </i>
    <v name="QSPIRAL">      0.00000000      0.00000000      0.00000000</v>
    <i type="logical" name="LZEROZ"> F  </i>
   </separator>
   <separator name="electronic exchange-correlation" >
    <i type="logical" name="LASPH"> T  </i>
    <i type="logical" name="LMETAGGA"> F  </i>
   </separator>
   <separator name="electronic convergence" >
    <i type="int" name="NELM">   100</i>
    <i type="int" name="NELMDL">   -10</i>
    <i type="int" name="NELMIN">     2</i>
    <i name="ENINI">    520.00000000</i>
    <separator name="electronic convergence detail" >
     <i type="logical" name="LDIAG"> T  </i>
     <i type="logical" name="LSUBROT"> F  </i>
     <i name="WEIMIN">      0.00100000</i>
     <i name="EBREAK">      0.00000000</i>
     <i name="DEPER">      0.30000000</i>
     <i type="int" name="NRMM">     4</i>
     <i name="TIME">      0.40000000</i>
    </separator>
   </separator>
   <separator name="electronic mixer" >
    <i name="AMIX">      0.40000000</i>
    <i name="BMIX">      1.00000000</i>
    <i name="AMIN">      0.10000000</i>
    <i name="AMIX_MAG">      1.60000000</i>
    <i name="BMIX_MAG">      1.00000000</i>
    <separator name="electronic mixer details" >
     <i type="int" name="IMIX">     4</i>
     <i type="logical" name="MIXFIRST"> F  </i>
     <i type="int" name="MAXMIX">   -45</i>
     <i name="WC">    100.00000000</i>
     <i type="int" name="INIMIX">     1</i>
     <i type="int" name="MIXPRE">     1</i>
     <i type="int" name="MREMOVE">     5</i>
    </separator>
   </separator>
   <separator name="electronic dipolcorrection" >
    <i type="logical" name="LDIPOL"> F  </i>
    <i type="logical" name="LMONO"> F  </i>
    <i type="int" name="IDIPOL">     0</i>
    <i name="EPSILON">      1.00000000</i>
    <v name="DIPOL">   -100.00000000   -100.00000000   -100.00000000</v>
    <i name="EFIELD">      0.00000000</i>
   </separator>
  </separator>
  <separator name="grids" >
   <i type="int" name="NGX">    72</i>
   <i type="int" name="NGY">    72</i>
   <i type="int" name="NGZ">    72</i>
   <i type="int" name="NGXF">   144</i>
   <i type="int" name="NGYF">   144</i>
   <i type="int" name="NGZF">   144</i>
   <i type="logical" name="ADDGRID"> F  </i>
  </separator>
  <separator name="ionic" >
   <i type="int" name="NSW">  1000</i>
   <i type="int" name="IBRION">     2</i>
   <i type="int" name="MDALGO">     0</i>
   <i type="int" name="ISIF">     2</i>
   <i name="PSTRESS">      0.00000000</i>
   <i name="EDIFFG">     -0.00100000</i>
   <i type="int" name="NFREE">     1</i>
   <i name="POTIM">      0.20000000</i>
   <i name="SMASS">     -3.00000000</i>
   <i name="SCALEE">      1.00000000</i>
  </separator>
  <separator name="ionic md" >
   <i name="TEBEG">      0.00010000</i>
   <i name="TEEND">      0.00010000</i>
   <i type="int" name="NBLOCK">     1</i>
   <i type="int" name="KBLOCK">  1000</i>
   <i type="int" name="NPACO">   256</i>
   <i name="APACO">     10.00000000</i>
  </separator>
  <separator name="symmetry" >
   <i type="int" name="ISYM">     2</i>
   <i name="SYMPREC">      0.00001000</i>
  </separator>
  <separator name="dos" >
   <i type="int" name="LORBIT">     0</i>
   <v name="RWIGS">     -1.00000000     -1.00000000     -1.00000000     -1.00000000</v>
   <i type="int" name="NEDOS">   301</i>
   <i name="EMIN">     10.00000000</i>
   <i name="EMAX">    -10.00000000</i>
   <i name="EFERMI">      0.00000000</i>
  </separator>
  <separator name="writing" >
   <i type="int" name="NWRITE">     2</i>
   <i type="logical" name="LWAVE"> F  </i>
   <i type="logical" name="LDOWNSAMPLE"> F  </i>
   <i type="logical" name="LCHARG"> F  </i>
   <i type="logical" name="LPARD"> F  </i>
   <i type="logical" name="LVTOT"> F  </i>
   <i type="logical" name="LVHAR"> F  </i>
   <i type="logical" name="LELF"> F  </i>
   <i type="logical" name="LOPTICS"> F  </i>
   <v name="STM">      0.00000000      0.00000000      0.00000000      0.00000000      0.00000000      0.00000000      0.00000000</v>
  </separator>
  <separator name="performance" >
   <i type="int" name="NPAR">     4</i>
   <i type="int" name="NSIM">     4</i>
   <i type="int" name="NBLK">    -1</i>
   <i type="logical" name="LPLANE"> T  </i>
   <i type="logical" name="LSCALAPACK"> T  </i>
   <i type="logical" name="LSCAAWARE"> F  </i>
   <i type="logical" name="LSCALU"> F  </i>
   <i type="logical" name="LASYNC"> F  </i>
   <i type="logical" name="LORBITALREAL"> F  </i>
  </separator>
  <separator name="miscellaneous" >
   <i type="int" name="IDIOT">     3</i>
   <i type="int" name="PHON_NSTRUCT">    -1</i>
   <i type="logical" name="LMUSIC"> F  </i>
   <v name="POMASS">      7.01000000     30.97400000     32.06600000     35.45300000</v>
   <v name="DARWINR">      0.00000000      0.00000000      0.00000000      0.00000000</v>
   <v name="DARWINV">      1.00000000      1.00000000      1.00000000      1.00000000</v>
   <i type="logical" name="LCORR"> T  </i>
  </separator>
  <i type="logical" name="GGA_COMPAT"> T  </i>
  <i type="logical" name="LBERRY"> F  </i>
  <i type="int" name="ICORELEVEL">     0</i>
  <i type="logical" name="LDAU"> F  </i>
  <i type="int" name="I_CONSTRAINED_M">     0</i>
  <separator name="electronic exchange-correlation" >
   <i type="string" name="GGA">PE</i>
   <i type="int" name="VOSKOWN">     0</i>
   <i type="logical" name="LHFCALC"> F  </i>
   <i type="string" name="PRECFOCK"></i>
   <i type="logical" name="LSYMGRAD"> F  </i>
   <i type="logical" name="LHFONE"> F  </i>
   <i type="logical" name="LRHFCALC"> F  </i>
   <i type="logical" name="LTHOMAS"> F  </i>
   <i type="logical" name="LMODELHF"> F  </i>
   <i type="logical" name="LFOCKACE"> F  </i>
   <i name="ENCUT4O">     -1.00000000</i>
   <i type="int" name="EXXOEP">     0</i>
   <i type="int" name="FOURORBIT">     0</i>
   <i name="AEXX">      0.00000000</i>
   <i name="HFALPHA">      0.00000000</i>
   <i name="MCALPHA">      0.00000000</i>
   <i name="ALDAX">      1.00000000</i>
   <i name="AGGAX">      1.00000000</i>
   <i name="ALDAC">      1.00000000</i>
   <i name="AGGAC">      1.00000000</i>
   <i type="int" name="NKREDX">     1</i>
   <i type="int" name="NKREDY">     1</i>
   <i type="int" name="NKREDZ">     1</i>
   <i type="logical" name="SHIFTRED"> F  </i>
   <i type="logical" name="ODDONLY"> F  </i>
   <i type="logical" name="EVENONLY"> F  </i>
   <i type="int" name="LMAXFOCK">     0</i>
   <i type="int" name="NMAXFOCKAE">     0</i>
   <i type="logical" name="LFOCKAEDFT"> F  </i>
   <i name="HFSCREEN">      0.00000000</i>
   <i name="HFSCREENC">      0.00000000</i>
   <i type="int" name="NBANDSGWLOW">     0</i>
  </separator>
  <separator name="vdW DFT" >
   <i type="logical" name="LUSE_VDW"> F  </i>
   <i type="int" name="IVDW_NL">     1</i>
   <i type="logical" name="LSPIN_VDW"> F  </i>
   <i name="Zab_VDW">     -0.84910000</i>
   <i name="PARAM1">      0.12340000</i>
   <i name="PARAM2">      1.00000000</i>
   <i name="PARAM3">      0.00000000</i>
  </separator>
  <separator name="model GW" >
   <i type="int" name="MODEL_GW">     0</i>
   <i name="MODEL_EPS0">     10.31816216</i>
   <i name="MODEL_ALPHA">      1.00000000</i>
  </separator>
  <separator name="linear response parameters" >
   <i type="logical" name="LEPSILON"> F  </i>
   <i type="logical" name="LRPA"> F  </i>
   <i type="logical" name="LNABLA"> F  </i>
   <i type="logical" name="LVEL"> F  </i>
   <i name="CSHIFT">      0.10000000</i>
   <i name="OMEGAMAX">     -1.00000000</i>
   <i name="DEG_THRESHOLD">      0.00200000</i>
   <i name="RTIME">     -0.10000000</i>
   <i name="WPLASMAI">      0.00000000</i>
   <v name="DFIELD">      0.00000000      0.00000000      0.00000000</v>
   <v name="WPLASMA">      0.00000000      0.00000000      0.00000000      0.00000000      0.00000000      0.00000000      0.00000000      0.00000000      0.00000000</v>
  </separator>
  <separator name="orbital magnetization" >
   <i type="logical" name="NUCIND"> F  </i>
   <v name="MAGPOS">      0.00000000      0.00000000      0.00000000</v>
   <i type="logical" name="LNICSALL"> T  </i>
   <i type="logical" name="ORBITALMAG"> F  </i>
   <i type="logical" name="LMAGBLOCH"> F  </i>
   <i type="logical" name="LCHIMAG"> F  </i>
   <i type="logical" name="LGAUGE"> T  </i>
   <i type="int" name="MAGATOM">     0</i>
   <v name="MAGDIPOL">      0.00000000      0.00000000      0.00000000</v>
   <v name="AVECCONST">      0.00000000      0.00000000      0.00000000</v>
  </separator>
  <separator name="response functions" >
   <i type="logical" name="LALL_IN_ONE"> F  </i>
   <i type="int" name="IALL_IN_ONE">    -1</i>
   <i type="int" name="NBANDS_WAVE">    -1</i>
   <i type="logical" name="LFINITE_TEMPERATURE"> F  </i>
   <i type="logical" name="LADDER"> F  </i>
   <i type="logical" name="LRPAFORCE"> F  </i>
   <i type="logical" name="LFXC"> F  </i>
   <i type="logical" name="LHARTREE"> T  </i>
   <i type="int" name="IBSE">     0</i>
   <v type="int" name="KPOINT">    -1     0     0     0</v>
   <i type="logical" name="LTCTC"> F  </i>
   <i type="logical" name="LTCTE"> F  </i>
   <i type="logical" name="LTETE"> F  </i>
   <i type="logical" name="LTRIPLET"> F  </i>
   <i type="logical" name="LFXCEPS"> F  </i>
   <i type="logical" name="LFXHEG"> F  </i>
   <i type="int" name="NATURALO">     2</i>
   <i type="logical" name="LHOLEGF"> F  </i>
   <i type="logical" name="L2ORDER"> F  </i>
   <i type="logical" name="LDMP1"> F  </i>
   <i type="logical" name="LMP2LT"> F  </i>
   <i type="logical" name="LSMP2LT"> F  </i>
   <i type="logical" name="LGWLF"> F  </i>
   <i name="ENCUTGW">     -1.60000002</i>
   <i name="ENCUTGWSOFT">     -1.60000002</i>
   <i name="ENCUTLF">     -1.00000000</i>
   <i type="logical" name="LESF_SPLINES"> F  </i>
   <i type="int" name="LMAXMP2">    -1</i>
   <i name="SCISSOR">      0.00000000</i>
   <i type="int" name="NOMEGA">     0</i>
   <i type="int" name="NOMEGAR">     0</i>
   <i type="int" name="NBANDSGW">    -1</i>
   <i type="int" name="NBANDSO">    -1</i>
   <i type="int" name="NBANDSV">    -1</i>
   <i type="int" name="NELMGW">     1</i>
   <i type="int" name="NELMHF">     1</i>
   <i type="int" name="DIM">     3</i>
   <i type="int" name="IESPILON">     4</i>
   <i type="int" name="ANTIRES">     0</i>
   <i name="OMEGAMAX">    -30.00000000</i>
   <i name="OMEGAMIN">    -30.00000000</i>
   <i name="OMEGATL">   -200.00000000</i>
   <i type="int" name="OMEGAGRID">     0</i>
   <i name="CSHIFT">     -0.10000000</i>
   <i type="logical" name="LSELFENERGY"> F  </i>
   <i type="logical" name="LSPECTRAL"> F  </i>
   <i type="logical" name="LSPECTRALGW"> F  </i>
   <i type="logical" name="LSINGLES"> F  </i>
   <i type="logical" name="LFERMIGW"> F  </i>
   <i type="logical" name="ODDONLYGW"> F  </i>
   <i type="logical" name="EVENONLYGW"> F  </i>
   <i type="int" name="NKREDLFX">     1</i>
   <i type="int" name="NKREDLFY">     1</i>
   <i type="int" name="NKREDLFZ">     1</i>
   <i type="int" name="MAXMEM">  2800</i>
   <i type="int" name="TELESCOPE">     0</i>
   <i type="int" name="NTAUPAR">    -1</i>
   <i type="int" name="NOMEGAPAR">    -1</i>
   <i name="DAMP_NEWTON">      0.80000001</i>
   <i name="LAMBDA">      1.00000000</i>
  </separator>
  <separator name="External order field" >
   <i name="OFIELD_KAPPA">      0.00000000</i>
   <v name="OFIELD_K">      0.00000000      0.00000000      0.00000000</v>
   <i name="OFIELD_Q6_NEAR">      0.00000000</i>
   <i name="OFIELD_Q6_FAR">      0.00000000</i>
   <i name="OFIELD_A">      0.00000000</i>
  </separator>
  <separator name="optional k-points parameters" >
   <i type="int" name="KPOINTS_OPT_MODE">     1</i>
   <i type="logical" name="LKPOINTS_OPT"> F  </i>
  </separator>
 </parameters>
 <atominfo>
  <atoms>      52 </atoms>
  <types>       4 </types>
  <array name="atoms" >
   <dimension dim="1">ion</dimension>
   <field type="string">element</field>
   <field type="int">atomtype</field>
   <set>
    <rc><c>Li</c><c>   1</c></rc>
    <rc><c>Li</c><c>   1</c></rc>
    <rc><c>Li</c><c>   1</c></rc>
    <rc><c>Li</c><c>   1</c></rc>
    <rc><c>Li</c><c>   1</c></rc>
    <rc><c>Li</c><c>   1</c></rc>
    <rc><c>Li</c><c>   1</c></rc>
    <rc><c>Li</c><c>   1</c></rc>
    <rc><c>Li</c><c>   1</c></rc>
    <rc><c>Li</c><c>   1</c></rc>
    <rc><c>Li</c><c>   1</c></rc>
    <rc><c>Li</c><c>   1</c></rc>
    <rc><c>Li</c><c>   1</c></rc>
    <rc><c>Li</c><c>   1</c></rc>
    <rc><c>Li</c><c>   1</c></rc>
    <rc><c>Li</c><c>   1</c></rc>
    <rc><c>Li</c><c>   1</c></rc>
    <rc><c>Li</c><c>   1</c></rc>
    <rc><c>Li</c><c>   1</c></rc>
    <rc><c>Li</c><c>   1</c></rc>
    <rc><c>Li</c><c>   1</c></rc>
    <rc><c>Li</c><c>   1</c></rc>
    <rc><c>Li</c><c>   1</c></rc>
    <rc><c>Li</c><c>   1</c></rc>
    <rc><c>P </c><c>   2</c></rc>
    <rc><c>P </c><c>   2</c></rc>
    <rc><c>P </c><c>   2</c></rc>
    <rc><c>P </c><c>   2</c></rc>
    <rc><c>S </c><c>   3</c></rc>
    <rc><c>S </c><c>   3</c></rc>
    <rc><c>S </c><c>   3</c></rc>
    <rc><c>S </c><c>   3</c></rc>
    <rc><c>S </c><c>   3</c></rc>
    <rc><c>S </c><c>   3</c></rc>
    <rc><c>S </c><c>   3</c></rc>
    <rc><c>S </c><c>   3</c></rc>
    <rc><c>S </c><c>   3</c></rc>
    <rc><c>S </c><c>   3</c></rc>
    <rc><c>S </c><c>   3</c></rc>
    <rc><c>S </c><c>   3</c></rc>
    <rc><c>S </c><c>   3</c></rc>
    <rc><c>S </c><c>   3</c></rc>
    <rc><c>S </c><c>   3</c></rc>
    <rc><c>S </c><c>   3</c></rc>
    <rc><c>S </c><c>   3</c></rc>
    <rc><c>S </c><c>   3</c></rc>
    <rc><c>S </c><c>   3</c></rc>
    <rc><c>S </c><c>   3</c></rc>
    <rc><c>Cl</c><c>   4</c></rc>
    <rc><c>Cl</c><c>   4</c></rc>
    <rc><c>Cl</c><c>   4</c></rc>
    <rc><c>Cl</c><c>   4</c></rc>
   </set>
  </array>
  <array name="atomtypes" >
   <dimension dim="1">type</dimension>
   <field type="int">atomspertype</field>
   <field type="string">element</field>
   <field>mass</field>
   <field>valence</field>
   <field type="string">pseudopotential</field>
   <set>
    <rc><c>  24</c><c>Li</c><c>      7.01000000</c><c>      3.00000000</c><c>  PAW_PBE Li_sv_GW 25Mar2010            </c></rc>
    <rc><c>   4</c><c>P </c><c>     30.97400000</c><c>      5.00000000</c><c>  PAW_PBE P_GW 19Mar2012                </c></rc>
    <rc><c>  20</c><c>S </c><c>     32.06600000</c><c>      6.00000000</c><c>  PAW_PBE S_GW 19Mar2012                </c></rc>
    <rc><c>   4</c><c>Cl</c><c>     35.45300000</c><c>      7.00000000</c><c>  PAW_PBE Cl_GW 19Mar2012               </c></rc>
   </set>
  </array>
 </atominfo>
 <structure name="initialpos" >
  <crystal>
   <varray name="basis" >
    <v>       9.63425523       0.00000000       0.00000000 </v>
    <v>       0.00000000       9.63425523       0.00000000 </v>
    <v>       0.00000000       0.00000000       9.63425523 </v>
   </varray>
   <i name="volume">    894.24072094 </i>
   <varray name="rec_basis" >
    <v>       0.10379630       0.00000000       0.00000000 </v>
    <v>       0.00000000       0.10379630       0.00000000 </v>
    <v>       0.00000000       0.00000000       0.10379630 </v>
   </varray>
  </crystal>
  <varray name="positions" >
   <v>       0.95038889       0.34037567       0.32231853 </v>
   <v>       0.97862426       0.69789090       0.70383834 </v>
   <v>       0.15087653       0.21670742       0.96906656 </v>
   <v>       0.00391923       0.70907861       0.28530665 </v>
   <v>       0.03185363       0.33428208       0.67333697 </v>
   <v>       0.18109102       0.78988520       0.01419838 </v>
   <v>       0.68109267       0.28988423       0.01419831 </v>
   <v>       0.65087416       0.71670717       0.96906584 </v>
   <v>       0.18859390       0.98803917       0.20384669 </v>
   <v>       0.19959023       0.01328840       0.78526665 </v>
   <v>       0.83100295       0.95976439       0.82231003 </v>
   <v>       0.82488161       0.04122060       0.17331333 </v>
   <v>       0.20728625       0.66022372       0.46903385 </v>
   <v>       0.28047198       0.19042791       0.51420000 </v>
   <v>       0.78047116       0.69042506       0.51420008 </v>
   <v>       0.70728708       0.16022315       0.46903427 </v>
   <v>       0.33100313       0.45976521       0.82230863 </v>
   <v>       0.32488038       0.54122088       0.17331150 </v>
   <v>       0.68859480       0.48803912       0.20384738 </v>
   <v>       0.69958860       0.51328810       0.78526776 </v>
   <v>       0.47862552       0.19789273       0.70383835 </v>
   <v>       0.45038826       0.84037699       0.32231770 </v>
   <v>       0.50391999       0.20907946       0.28530688 </v>
   <v>       0.53185408       0.83428422       0.67333635 </v>
   <v>       0.49179790       0.50080418       0.49833348 </v>
   <v>       0.49140979       0.00129803       0.99833694 </v>
   <v>       0.99140962       0.50129879       0.99833666 </v>
   <v>       0.99179841       0.00080340       0.49833327 </v>
   <v>       0.12689357       0.87174347       0.60046768 </v>
   <v>       0.09446236       0.13652109       0.36900406 </v>
   <v>       0.85495914       0.88962219       0.37864442 </v>
   <v>       0.88615200       0.12228061       0.63711894 </v>
   <v>       0.86238078       0.63639361       0.10050640 </v>
   <v>       0.88022190       0.36447161       0.87863220 </v>
   <v>       0.12716847       0.60390379       0.86901115 </v>
   <v>       0.11285294       0.39559265       0.13711499 </v>
   <v>       0.62716793       0.10390322       0.86901106 </v>
   <v>       0.61285391       0.89559257       0.13711504 </v>
   <v>       0.36238141       0.13639276       0.10050719 </v>
   <v>       0.38022177       0.86447049       0.87863273 </v>
   <v>       0.59446120       0.63652167       0.36900349 </v>
   <v>       0.62689427       0.37174475       0.60046671 </v>
   <v>       0.38615130       0.62228212       0.63711875 </v>
   <v>       0.35495958       0.38962322       0.37864347 </v>
   <v>       0.74764156       0.74557298       0.74584962 </v>
   <v>       0.73620097       0.25702903       0.24583932 </v>
   <v>       0.23620021       0.75702922       0.24583902 </v>
   <v>       0.24764245       0.24557338       0.74584984 </v>
   <v>       0.02355385       0.99515121       0.99379738 </v>
   <v>       0.98571881       0.53287866       0.49384324 </v>
   <v>       0.48571898       0.03287976       0.49384339 </v>
   <v>       0.52355383       0.49514993       0.99379766 </v>
  </varray>
 </structure>
 <calculation>
  <scstep>
   <time name="dav">    4.60    4.71</time>
   <time name="total">    5.08    5.22</time>
   <energy>
    <i name="alphaZ">    303.56200218 </i>
    <i name="ewald">  -8874.54081707 </i>
    <i name="hartreedc">  -2076.24239163 </i>
    <i name="XCdc">    534.58971876 </i>
    <i name="pawpsdc">   8141.38806575 </i>
    <i name="pawaedc">  -8271.61346273 </i>
    <i name="eentropy">     -0.00626101 </i>
    <i name="bandstr">   -863.43912864 </i>
    <i name="atom">  12703.13999606 </i>
    <i name="e_fr_energy">   1596.83772167 </i>
    <i name="e_wo_entrp">   1596.84398268 </i>
    <i name="e_0_energy">   1596.84085218 </i>
   </energy>
  </scstep>
  <scstep>
   <time name="dav">    5.30    5.35</time>
   <time name="total">    5.30    5.35</time>
   <energy>
    <i name="e_fr_energy">    -55.94562449 </i>
    <i name="e_wo_entrp">    -55.94562449 </i>
    <i name="e_0_energy">    -55.94562449 </i>
   </energy>
  </scstep>
  <scstep>
   <time name="dav">    5.27    5.32</time>
   <time name="total">    5.27    5.32</time>
   <energy>
    <i name="e_fr_energy">   -228.08423117 </i>
    <i name="e_wo_entrp">   -228.08423117 </i>
    <i name="e_0_energy">   -228.08423117 </i>
   </energy>
  </scstep>
  <scstep>
   <time name="dav">    6.30    6.36</time>
   <time name="total">    6.30    6.36</time>
   <energy>
    <i name="e_fr_energy">   -241.67349183 </i>
    <i name="e_wo_entrp">   -241.67349183 </i>
    <i name="e_0_energy">   -241.67349183 </i>
   </energy>
  </scstep>
  <scstep>
   <time name="dav">    5.96    6.01</time>
   <time name="total">    5.96    6.01</time>
   <energy>
    <i name="e_fr_energy">   -241.89967744 </i>
    <i name="e_wo_entrp">   -241.89967744 </i>
    <i name="e_0_energy">   -241.89967744 </i>
   </energy>
  </scstep>
  <scstep>
   <time name="dav">    6.19    6.24</time>
   <time name="total">    6.20    6.24</time>
   <energy>
    <i name="e_fr_energy">   -241.91278373 </i>
    <i name="e_wo_entrp">   -241.91278373 </i>
    <i name="e_0_energy">   -241.91278373 </i>
   </energy>
  </scstep>
  <scstep>
   <time name="dav">    6.15    6.20</time>
   <time name="total">    6.15    6.20</time>
   <energy>
    <i name="e_fr_energy">   -241.91316932 </i>
    <i name="e_wo_entrp">   -241.91316932 </i>
    <i name="e_0_energy">   -241.91316932 </i>
   </energy>
  </scstep>
  <scstep>
   <time name="dav">    6.07    6.11</time>
   <time name="total">    6.07    6.11</time>
   <energy>
    <i name="e_fr_energy">   -241.91319132 </i>
    <i name="e_wo_entrp">   -241.91319132 </i>
    <i name="e_0_energy">   -241.91319132 </i>
   </energy>
  </scstep>
  <scstep>
   <time name="dav">    6.04    6.08</time>
   <time name="total">    6.04    6.09</time>
   <energy>
    <i name="e_fr_energy">   -241.91319273 </i>
    <i name="e_wo_entrp">   -241.91319273 </i>
    <i name="e_0_energy">   -241.91319273 </i>
   </energy>
  </scstep>
  <scstep>
   <time name="dav">    4.00    4.03</time>
   <time name="total">    4.12    4.16</time>
   <energy>
    <i name="e_fr_energy">   -241.91319279 </i>
    <i name="e_wo_entrp">   -241.91319279 </i>
    <i name="e_0_energy">   -241.91319279 </i>
   </energy>
  </scstep>
  <scstep>
   <time name="diag">    0.72    0.73</time>
   <time name="diis">    2.35    2.37</time>
   <time name="orth">    0.12    0.12</time>
   <time name="total">    3.77    3.82</time>
   <energy>
    <i name="e_fr_energy">   -236.96467672 </i>
    <i name="e_wo_entrp">   -236.96467672 </i>
    <i name="e_0_energy">   -236.96467672 </i>
   </energy>
  </scstep>
  <scstep>
   <time name="diag">    0.72    0.72</time>
   <time name="diis">    2.44    2.46</time>
   <time name="orth">    0.12    0.12</time>
   <time name="total">    3.85    3.88</time>
   <energy>
    <i name="e_fr_energy">   -256.15600603 </i>
    <i name="e_wo_entrp">   -256.15600603 </i>
    <i name="e_0_energy">   -256.15600603 </i>
   </energy>
  </scstep>
  <scstep>
   <time name="diag">    0.71    0.72</time>
   <time name="diis">    2.43    2.45</time>
   <time name="orth">    0.12    0.12</time>
   <time name="total">    3.84    3.87</time>
   <energy>
    <i name="e_fr_energy">   -258.65694178 </i>
    <i name="e_wo_entrp">   -258.65694178 </i>
    <i name="e_0_energy">   -258.65694178 </i>
   </energy>
  </scstep>
  <scstep>
   <time name="diag">    0.71    0.72</time>
   <time name="diis">    3.15    3.18</time>
   <time name="orth">    0.12    0.13</time>
   <time name="total">    4.56    4.60</time>
   <energy>
    <i name="e_fr_energy">   -258.84560824 </i>
    <i name="e_wo_entrp">   -258.84560824 </i>
    <i name="e_0_energy">   -258.84560824 </i>
   </energy>
  </scstep>
  <scstep>
   <time name="diag">    0.71    0.72</time>
   <time name="diis">    2.58    2.60</time>
   <time name="orth">    0.12    0.13</time>
   <time name="total">    3.99    4.02</time>
   <energy>
    <i name="e_fr_energy">   -258.82250433 </i>
    <i name="e_wo_entrp">   -258.82250433 </i>
    <i name="e_0_energy">   -258.82250433 </i>
   </energy>
  </scstep>
  <scstep>
   <time name="diag">    0.71    0.71</time>
   <time name="diis">    2.56    2.59</time>
   <time name="orth">    0.12    0.13</time>
   <time name="total">    3.97    4.01</time>
   <energy>
    <i name="e_fr_energy">   -258.84161269 </i>
    <i name="e_wo_entrp">   -258.84161269 </i>
    <i name="e_0_energy">   -258.84161269 </i>
   </energy>
  </scstep>
  <scstep>
   <time name="diag">    0.71    0.72</time>
   <time name="diis">    2.92    2.94</time>
   <time name="orth">    0.13    0.13</time>
   <time name="total">    4.33    4.36</time>
   <energy>
    <i name="e_fr_energy">   -258.84736595 </i>
    <i name="e_wo_entrp">   -258.84736595 </i>
    <i name="e_0_energy">   -258.84736595 </i>
   </energy>
  </scstep>
  <scstep>
   <time name="diag">    1.00    1.02</time>
   <time name="diis">    2.91    2.94</time>
   <time name="orth">    0.13    0.13</time>
   <time name="total">    4.62    4.67</time>
   <energy>
    <i name="e_fr_energy">   -258.84855160 </i>
    <i name="e_wo_entrp">   -258.84855160 </i>
    <i name="e_0_energy">   -258.84855160 </i>
   </energy>
  </scstep>
  <scstep>
   <time name="diag">    0.72    0.72</time>
   <time name="diis">    3.28    3.31</time>
   <time name="orth">    0.13    0.13</time>
   <time name="total">    4.70    4.74</time>
   <energy>
    <i name="e_fr_energy">   -258.84897085 </i>
    <i name="e_wo_entrp">   -258.84897085 </i>
    <i name="e_0_energy">   -258.84897085 </i>
   </energy>
  </scstep>
  <scstep>
   <time name="diag">    0.72    0.72</time>
   <time name="diis">    3.31    3.35</time>
   <time name="orth">    0.12    0.12</time>
   <time name="total">    4.73    4.78</time>
   <energy>
    <i name="e_fr_energy">   -258.84905978 </i>
    <i name="e_wo_entrp">   -258.84905978 </i>
    <i name="e_0_energy">   -258.84905978 </i>
   </energy>
  </scstep>
  <scstep>
   <time name="diag">    0.72    0.72</time>
   <time name="diis">    2.93    2.95</time>
   <time name="orth">    0.12    0.13</time>
   <time name="total">    4.34    4.38</time>
   <energy>
    <i name="e_fr_energy">   -258.84907492 </i>
    <i name="e_wo_entrp">   -258.84907492 </i>
    <i name="e_0_energy">   -258.84907492 </i>
   </energy>
  </scstep>
  <scstep>
   <time name="diag">    0.72    0.72</time>
   <time name="diis">    3.22    3.25</time>
   <time name="orth">    0.13    0.13</time>
   <time name="total">    4.64    4.67</time>
   <energy>
    <i name="e_fr_energy">   -258.84907963 </i>
    <i name="e_wo_entrp">   -258.84907963 </i>
    <i name="e_0_energy">   -258.84907963 </i>
   </energy>
  </scstep>
  <scstep>
   <time name="diag">    0.72    0.72</time>
   <time name="diis">    2.46    2.49</time>
   <time name="orth">    0.13    0.13</time>
   <time name="total">    3.89    3.92</time>
   <energy>
    <i name="e_fr_energy">   -258.84907913 </i>
    <i name="e_wo_entrp">   -258.84907913 </i>
    <i name="e_0_energy">   -258.84907913 </i>
   </energy>
  </scstep>
  <scstep>
   <time name="diag">    0.73    0.73</time>
   <time name="diis">    1.87    1.89</time>
   <time name="orth">    0.13    0.13</time>
   <time name="total">    3.18    3.21</time>
   <energy>
    <i name="alphaZ">    303.56200218 </i>
    <i name="ewald">  -8874.54081707 </i>
    <i name="hartreedc">  -2171.02154029 </i>
    <i name="XCdc">    538.01264255 </i>
    <i name="pawpsdc">   9816.22406655 </i>
    <i name="pawaedc">  -9960.17679039 </i>
    <i name="eentropy">     -0.00000000 </i>
    <i name="bandstr">  -2614.04863816 </i>
    <i name="atom">  12703.13999606 </i>
    <i name="e_fr_energy">   -258.84907857 </i>
    <i name="e_wo_entrp">   -258.84907857 </i>
    <i name="e_0_energy">   -258.84907857 </i>
   </energy>
  </scstep>
  <structure>
   <crystal>
    <varray name="basis" >
     <v>       9.63425523       0.00000000       0.00000000 </v>
     <v>       0.00000000       9.63425523       0.00000000 </v>
     <v>       0.00000000       0.00000000       9.63425523 </v>
    </varray>
    <i name="volume">    894.24072094 </i>
    <varray name="rec_basis" >
     <v>       0.10379630       0.00000000       0.00000000 </v>
     <v>       0.00000000       0.10379630       0.00000000 </v>
     <v>       0.00000000       0.00000000       0.10379630 </v>
    </varray>
   </crystal>
   <varray name="positions" >
    <v>       0.95038889       0.34037567       0.32231853 </v>
    <v>       0.97862426       0.69789090       0.70383834 </v>
    <v>       0.15087653       0.21670742       0.96906656 </v>
    <v>       0.00391923       0.70907861       0.28530665 </v>
    <v>       0.03185363       0.33428208       0.67333697 </v>
    <v>       0.18109102       0.78988520       0.01419838 </v>
    <v>       0.68109267       0.28988423       0.01419831 </v>
    <v>       0.65087416       0.71670717       0.96906584 </v>
    <v>       0.18859390       0.98803917       0.20384669 </v>
    <v>       0.19959023       0.01328840       0.78526665 </v>
    <v>       0.83100295       0.95976439       0.82231003 </v>
    <v>       0.82488161       0.04122060       0.17331333 </v>
    <v>       0.20728625       0.66022372       0.46903385 </v>
    <v>       0.28047198       0.19042791       0.51420000 </v>
    <v>       0.78047116       0.69042506       0.51420008 </v>
    <v>       0.70728708       0.16022315       0.46903427 </v>
    <v>       0.33100313       0.45976521       0.82230863 </v>
    <v>       0.32488038       0.54122088       0.17331150 </v>
    <v>       0.68859480       0.48803912       0.20384738 </v>
    <v>       0.69958860       0.51328810       0.78526776 </v>
    <v>       0.47862552       0.19789273       0.70383835 </v>
    <v>       0.45038826       0.84037699       0.32231770 </v>
    <v>       0.50391999       0.20907946       0.28530688 </v>
    <v>       0.53185408       0.83428422       0.67333635 </v>
    <v>       0.49179790       0.50080418       0.49833348 </v>
    <v>       0.49140979       0.00129803       0.99833694 </v>
    <v>       0.99140962       0.50129879       0.99833666 </v>
    <v>       0.99179841       0.00080340       0.49833327 </v>
    <v>       0.12689357       0.87174347       0.60046768 </v>
    <v>       0.09446236       0.13652109       0.36900406 </v>
    <v>       0.85495914       0.88962219       0.37864442 </v>
    <v>       0.88615200       0.12228061       0.63711894 </v>
    <v>       0.86238078       0.63639361       0.10050640 </v>
    <v>       0.88022190       0.36447161       0.87863220 </v>
    <v>       0.12716847       0.60390379       0.86901115 </v>
    <v>       0.11285294       0.39559265       0.13711499 </v>
    <v>       0.62716793       0.10390322       0.86901106 </v>
    <v>       0.61285391       0.89559257       0.13711504 </v>
    <v>       0.36238141       0.13639276       0.10050719 </v>
    <v>       0.38022177       0.86447049       0.87863273 </v>
    <v>       0.59446120       0.63652167       0.36900349 </v>
    <v>       0.62689427       0.37174475       0.60046671 </v>
    <v>       0.38615130       0.62228212       0.63711875 </v>
    <v>       0.35495958       0.38962322       0.37864347 </v>
    <v>       0.74764156       0.74557298       0.74584962 </v>
    <v>       0.73620097       0.25702903       0.24583932 </v>
    <v>       0.23620021       0.75702922       0.24583902 </v>
    <v>       0.24764245       0.24557338       0.74584984 </v>
    <v>       0.02355385       0.99515121       0.99379738 </v>
    <v>       0.98571881       0.53287866       0.49384324 </v>
    <v>       0.48571898       0.03287976       0.49384339 </v>
    <v>       0.52355383       0.49514993       0.99379766 </v>
   </varray>
  </structure>
  <varray name="forces" >
   <v>       0.00007412      -0.00010633      -0.00035674 </v>
   <v>      -0.00028829      -0.00071536       0.00059947 </v>
   <v>       0.00171724      -0.00046943       0.00041867 </v>
   <v>       0.00044335      -0.00041078      -0.00041981 </v>
   <v>      -0.00005840      -0.00109948      -0.00027470 </v>
   <v>       0.00065985       0.00032601       0.00010859 </v>
   <v>       0.00065985       0.00032601       0.00010859 </v>
   <v>       0.00171724      -0.00046943       0.00041867 </v>
   <v>      -0.00073940      -0.00024028       0.00056193 </v>
   <v>      -0.00033971       0.00050357      -0.00025232 </v>
   <v>      -0.00021029       0.00004425      -0.00037298 </v>
   <v>      -0.00110299      -0.00008715      -0.00009785 </v>
   <v>      -0.00038351       0.00197451       0.00053933 </v>
   <v>       0.00034683       0.00065543       0.00012254 </v>
   <v>       0.00034683       0.00065543       0.00012254 </v>
   <v>      -0.00038351       0.00197451       0.00053933 </v>
   <v>      -0.00021029       0.00004425      -0.00037298 </v>
   <v>      -0.00110299      -0.00008715      -0.00009785 </v>
   <v>      -0.00073940      -0.00024028       0.00056193 </v>
   <v>      -0.00033971       0.00050357      -0.00025232 </v>
   <v>      -0.00028829      -0.00071536       0.00059947 </v>
   <v>       0.00007412      -0.00010633      -0.00035674 </v>
   <v>       0.00044335      -0.00041078      -0.00041981 </v>
   <v>      -0.00005840      -0.00109948      -0.00027470 </v>
   <v>      -0.00020649       0.00058712       0.00007656 </v>
   <v>       0.00069993       0.00066971      -0.00055373 </v>
   <v>       0.00069993       0.00066971      -0.00055373 </v>
   <v>      -0.00020649       0.00058712       0.00007656 </v>
   <v>      -0.00309375       0.00219359      -0.00094571 </v>
   <v>      -0.00145493      -0.00206257       0.00288324 </v>
   <v>       0.00282141       0.00165209       0.00135934 </v>
   <v>       0.00145002      -0.00250179      -0.00302949 </v>
   <v>       0.00234880      -0.00340254      -0.00119494 </v>
   <v>       0.00176320       0.00264927       0.00125462 </v>
   <v>      -0.00199242      -0.00146469       0.00278773 </v>
   <v>      -0.00226138       0.00128844      -0.00297084 </v>
   <v>      -0.00199242      -0.00146469       0.00278773 </v>
   <v>      -0.00226138       0.00128844      -0.00297084 </v>
   <v>       0.00234880      -0.00340254      -0.00119494 </v>
   <v>       0.00176320       0.00264927       0.00125462 </v>
   <v>      -0.00145493      -0.00206257       0.00288324 </v>
   <v>      -0.00309375       0.00219359      -0.00094571 </v>
   <v>       0.00145002      -0.00250179      -0.00302949 </v>
   <v>       0.00282141       0.00165209       0.00135934 </v>
   <v>      -0.00008739      -0.00003656      -0.00015166 </v>
   <v>      -0.00005215      -0.00005377      -0.00012990 </v>
   <v>      -0.00005215      -0.00005377      -0.00012990 </v>
   <v>      -0.00008739      -0.00003656      -0.00015166 </v>
   <v>      -0.00023027       0.00030554      -0.00003159 </v>
   <v>       0.00017663      -0.00019881       0.00007023 </v>
   <v>       0.00017663      -0.00019881       0.00007023 </v>
   <v>      -0.00023027       0.00030554      -0.00003159 </v>
  </varray>
  <varray name="stress" >
   <v>      -2.27550080       1.96964086       3.93867894 </v>
   <v>       1.96964123      -2.21888025       3.95504792 </v>
   <v>       3.93867969       3.95504873       4.48947413 </v>
  </varray>
  <energy>
   <i name="e_fr_energy">   -272.54990684 </i>
   <i name="e_wo_entrp">   -272.54990684 </i>
   <i name="e_0_energy">   -272.54990684 </i>
  </energy>
  <time name="totalsc">  119.73  120.88</time>
 </calculation>
 <calculation>
  <scstep>
   <time name="dav">    4.62    4.67</time>
   <time name="total">    5.19    5.24</time>
   <energy>
    <i name="alphaZ">    303.56200218 </i>
    <i name="ewald">  -8874.44981322 </i>
    <i name="hartreedc">  -2171.09604330 </i>
    <i name="XCdc">    538.01482539 </i>
    <i name="pawpsdc">   9816.22033753 </i>
    <i name="pawaedc">  -9960.17290761 </i>
    <i name="eentropy">     -0.00000000 </i>
    <i name="bandstr">  -2614.06748564 </i>
    <i name="atom">  12703.13999606 </i>
    <i name="e_fr_energy">   -258.84908861 </i>
    <i name="e_wo_entrp">   -258.84908861 </i>
    <i name="e_0_energy">   -258.84908861 </i>
   </energy>
  </scstep>
  <scstep>
   <time name="diag">    0.72    0.73</time>
   <time name="diis">    2.17    2.19</time>
   <time name="orth">    0.13    0.13</time>
   <time name="total">    3.59    3.63</time>
   <energy>
    <i name="e_fr_energy">   -258.84908962 </i>
    <i name="e_wo_entrp">   -258.84908962 </i>
    <i name="e_0_energy">   -258.84908962 </i>
   </energy>
  </scstep>
  <scstep>
   <time name="diag">    0.72    0.72</time>
   <time name="diis">    1.82    1.83</time>
   <time name="orth">    0.13    0.13</time>
   <time name="total">    3.11    3.14</time>
   <energy>
    <i name="alphaZ">    303.56200218 </i>
    <i name="ewald">  -8874.44981322 </i>
    <i name="hartreedc">  -2171.10669796 </i>
    <i name="XCdc">    538.01500424 </i>
    <i name="pawpsdc">   9816.32240671 </i>
    <i name="pawaedc">  -9960.27461075 </i>
    <i name="eentropy">     -0.00000000 </i>
    <i name="bandstr">  -2614.05737734 </i>
    <i name="atom">  12703.13999606 </i>
    <i name="e_fr_energy">   -258.84909009 </i>
    <i name="e_wo_entrp">   -258.84909009 </i>
    <i name="e_0_energy">   -258.84909009 </i>
   </energy>
  </scstep>
  <structure>
   <crystal>
    <varray name="basis" >
     <v>       9.63425523       0.00000000       0.00000000 </v>
     <v>       0.00000000       9.63425523       0.00000000 </v>
     <v>       0.00000000       0.00000000       9.63425523 </v>
    </varray>
    <i name="volume">    894.24072094 </i>
    <varray name="rec_basis" >
     <v>       0.10379630       0.00000000       0.00000000 </v>
     <v>       0.00000000       0.10379630       0.00000000 </v>
     <v>       0.00000000       0.00000000       0.10379630 </v>
    </varray>
   </crystal>
   <varray name="positions" >
    <v>       0.95038904       0.34037546       0.32231782 </v>
    <v>       0.97862369       0.69788947       0.70383954 </v>
    <v>       0.15087997       0.21670648       0.96906740 </v>
    <v>       0.00392012       0.70907779       0.28530580 </v>
    <v>       0.03185352       0.33427987       0.67333642 </v>
    <v>       0.18109234       0.78988585       0.01419860 </v>
    <v>       0.68109400       0.28988489       0.01419853 </v>
    <v>       0.65087760       0.71670623       0.96906668 </v>
    <v>       0.18859242       0.98803869       0.20384781 </v>
    <v>       0.19958955       0.01328941       0.78526615 </v>
    <v>       0.83100253       0.95976448       0.82230929 </v>
    <v>       0.82487940       0.04122042       0.17331314 </v>
    <v>       0.20728548       0.66022767       0.46903493 </v>
    <v>       0.28047268       0.19042922       0.51420024 </v>
    <v>       0.78047185       0.69042637       0.51420033 </v>
    <v>       0.70728631       0.16022710       0.46903536 </v>
    <v>       0.33100271       0.45976530       0.82230788 </v>
    <v>       0.32487817       0.54122070       0.17331130 </v>
    <v>       0.68859332       0.48803864       0.20384850 </v>
    <v>       0.69958792       0.51328911       0.78526726 </v>
    <v>       0.47862495       0.19789130       0.70383955 </v>
    <v>       0.45038840       0.84037678       0.32231699 </v>
    <v>       0.50392088       0.20907864       0.28530604 </v>
    <v>       0.53185397       0.83428201       0.67333580 </v>
    <v>       0.49179749       0.50080536       0.49833364 </v>
    <v>       0.49141119       0.00129937       0.99833583 </v>
    <v>       0.99141103       0.50130013       0.99833555 </v>
    <v>       0.99179800       0.00080457       0.49833343 </v>
    <v>       0.12688737       0.87174786       0.60046579 </v>
    <v>       0.09445945       0.13651696       0.36900984 </v>
    <v>       0.85496479       0.88962550       0.37864714 </v>
    <v>       0.88615491       0.12227560       0.63711287 </v>
    <v>       0.86238548       0.63638679       0.10050400 </v>
    <v>       0.88022543       0.36447691       0.87863471 </v>
    <v>       0.12716448       0.60390085       0.86901673 </v>
    <v>       0.11284841       0.39559523       0.13710904 </v>
    <v>       0.62716394       0.10390029       0.86901664 </v>
    <v>       0.61284938       0.89559515       0.13710909 </v>
    <v>       0.36238611       0.13638595       0.10050479 </v>
    <v>       0.38022530       0.86447579       0.87863525 </v>
    <v>       0.59445828       0.63651753       0.36900926 </v>
    <v>       0.62688807       0.37174914       0.60046481 </v>
    <v>       0.38615421       0.62227711       0.63711269 </v>
    <v>       0.35496523       0.38962653       0.37864619 </v>
    <v>       0.74764139       0.74557290       0.74584932 </v>
    <v>       0.73620087       0.25702892       0.24583906 </v>
    <v>       0.23620010       0.75702911       0.24583876 </v>
    <v>       0.24764227       0.24557331       0.74584953 </v>
    <v>       0.02355339       0.99515183       0.99379731 </v>
    <v>       0.98571916       0.53287826       0.49384338 </v>
    <v>       0.48571933       0.03287936       0.49384353 </v>
    <v>       0.52355337       0.49515054       0.99379759 </v>
   </varray>
  </structure>
  <varray name="forces" >
   <v>       0.00004270      -0.00009571      -0.00024157 </v>
   <v>      -0.00018418      -0.00045845       0.00036191 </v>
   <v>       0.00105057      -0.00032250       0.00025461 </v>
   <v>       0.00025941      -0.00027548      -0.00025096 </v>
   <v>      -0.00006946      -0.00071395      -0.00015858 </v>
   <v>       0.00040703       0.00019355       0.00005445 </v>
   <v>       0.00040703       0.00019355       0.00005445 </v>
   <v>       0.00105057      -0.00032250       0.00025461 </v>
   <v>      -0.00047641      -0.00017185       0.00035543 </v>
   <v>      -0.00021191       0.00025957      -0.00015415 </v>
   <v>      -0.00013598      -0.00001503      -0.00023132 </v>
   <v>      -0.00070941      -0.00010277      -0.00004542 </v>
   <v>      -0.00033876       0.00159445       0.00042147 </v>
   <v>       0.00019891       0.00037700       0.00005487 </v>
   <v>       0.00019891       0.00037700       0.00005487 </v>
   <v>      -0.00033876       0.00159445       0.00042147 </v>
   <v>      -0.00013598      -0.00001503      -0.00023132 </v>
   <v>      -0.00070941      -0.00010277      -0.00004542 </v>
   <v>      -0.00047641      -0.00017185       0.00035543 </v>
   <v>      -0.00021191       0.00025957      -0.00015415 </v>
   <v>      -0.00018418      -0.00045845       0.00036191 </v>
   <v>       0.00004270      -0.00009571      -0.00024157 </v>
   <v>       0.00025941      -0.00027548      -0.00025096 </v>
   <v>      -0.00006946      -0.00071395      -0.00015858 </v>
   <v>      -0.00013178       0.00005834      -0.00006246 </v>
   <v>       0.00024151       0.00017444      -0.00040332 </v>
   <v>       0.00024151       0.00017444      -0.00040332 </v>
   <v>      -0.00013178       0.00005834      -0.00006246 </v>
   <v>      -0.00183845       0.00108553      -0.00017968 </v>
   <v>      -0.00045415      -0.00096670       0.00157335 </v>
   <v>       0.00161903       0.00063949       0.00045423 </v>
   <v>       0.00038883      -0.00123870      -0.00149366 </v>
   <v>       0.00114684      -0.00199405      -0.00035336 </v>
   <v>       0.00078140       0.00155343       0.00040954 </v>
   <v>      -0.00079444      -0.00035285       0.00138104 </v>
   <v>      -0.00114787       0.00036552      -0.00160540 </v>
   <v>      -0.00079444      -0.00035285       0.00138104 </v>
   <v>      -0.00114787       0.00036552      -0.00160540 </v>
   <v>       0.00114684      -0.00199405      -0.00035336 </v>
   <v>       0.00078140       0.00155343       0.00040954 </v>
   <v>      -0.00045415      -0.00096670       0.00157335 </v>
   <v>      -0.00183845       0.00108553      -0.00017968 </v>
   <v>       0.00038883      -0.00123870      -0.00149366 </v>
   <v>       0.00161903       0.00063949       0.00045423 </v>
   <v>      -0.00002055      -0.00016619      -0.00011888 </v>
   <v>      -0.00016478      -0.00001281      -0.00011070 </v>
   <v>      -0.00016478      -0.00001281      -0.00011070 </v>
   <v>      -0.00002055      -0.00016619      -0.00011888 </v>
   <v>       0.00050482       0.00011118       0.00001106 </v>
   <v>       0.00003707       0.00047453       0.00007752 </v>
   <v>       0.00003707       0.00047453       0.00007752 </v>
   <v>       0.00050482       0.00011118       0.00001106 </v>
  </varray>
  <varray name="stress" >
   <v>      -2.26359474       1.96832023       3.93704784 </v>
   <v>       1.96832010      -2.20689799       3.95509094 </v>
   <v>       3.93704850       3.95509159       4.50175342 </v>
  </varray>
  <energy>
   <i name="e_fr_energy">   -272.54991144 </i>
   <i name="e_wo_entrp">   -272.54991144 </i>
   <i name="e_0_energy">   -272.54991144 </i>
  </energy>
  <time name="totalsc">   16.72   16.88</time>
 </calculation>
 <calculation>
  <scstep>
   <time name="dav">    4.85    4.88</time>
   <time name="total">    5.42    5.46</time>
   <energy>
    <i name="alphaZ">    303.56200218 </i>
    <i name="ewald">  -8874.35395912 </i>
    <i name="hartreedc">  -2171.18014613 </i>
    <i name="XCdc">    538.01714760 </i>
    <i name="pawpsdc">   9816.32268889 </i>
    <i name="pawaedc">  -9960.27488950 </i>
    <i name="eentropy">     -0.00000000 </i>
    <i name="bandstr">  -2614.08193904 </i>
    <i name="atom">  12703.13999606 </i>
    <i name="e_fr_energy">   -258.84909907 </i>
    <i name="e_wo_entrp">   -258.84909907 </i>
    <i name="e_0_energy">   -258.84909907 </i>
   </energy>
  </scstep>
  <scstep>
   <time name="diag">    0.72    0.73</time>
   <time name="diis">    2.19    2.21</time>
   <time name="orth">    0.13    0.13</time>
   <time name="total">    3.61    3.64</time>
   <energy>
    <i name="e_fr_energy">   -258.84910010 </i>
    <i name="e_wo_entrp">   -258.84910010 </i>
    <i name="e_0_energy">   -258.84910010 </i>
   </energy>
  </scstep>
  <scstep>
   <time name="diag">    0.72    0.73</time>
   <time name="diis">    1.93    1.95</time>
   <time name="orth">    0.13    0.13</time>
   <time name="total">    3.24    3.26</time>
   <energy>
    <i name="alphaZ">    303.56200218 </i>
    <i name="ewald">  -8874.35395912 </i>
    <i name="hartreedc">  -2171.18918523 </i>
    <i name="XCdc">    538.01742024 </i>
    <i name="pawpsdc">   9816.45810225 </i>
    <i name="pawaedc">  -9960.41056463 </i>
    <i name="eentropy">     -0.00000000 </i>
    <i name="bandstr">  -2614.07291236 </i>
    <i name="atom">  12703.13999606 </i>
    <i name="e_fr_energy">   -258.84910061 </i>
    <i name="e_wo_entrp">   -258.84910061 </i>
    <i name="e_0_energy">   -258.84910061 </i>
   </energy>
  </scstep>
  <structure>
   <crystal>
    <varray name="basis" >
     <v>       9.63425523       0.00000000       0.00000000 </v>
     <v>       0.00000000       9.63425523       0.00000000 </v>
     <v>       0.00000000       0.00000000       9.63425523 </v>
    </varray>
    <i name="volume">    894.24072094 </i>
    <varray name="rec_basis" >
     <v>       0.10379630       0.00000000       0.00000000 </v>
     <v>       0.00000000       0.10379630       0.00000000 </v>
     <v>       0.00000000       0.00000000       0.10379630 </v>
    </varray>
   </crystal>
   <varray name="positions" >
    <v>       0.95038920       0.34037523       0.32231707 </v>
    <v>       0.97862308       0.69788796       0.70384080 </v>
    <v>       0.15088359       0.21670549       0.96906828 </v>
    <v>       0.00392105       0.70907692       0.28530492 </v>
    <v>       0.03185339       0.33427755       0.67333584 </v>
    <v>       0.18109373       0.78988654       0.01419883 </v>
    <v>       0.68109539       0.28988558       0.01419875 </v>
    <v>       0.65088122       0.71670524       0.96906756 </v>
    <v>       0.18859086       0.98803818       0.20384900 </v>
    <v>       0.19958883       0.01329047       0.78526562 </v>
    <v>       0.83100209       0.95976458       0.82230850 </v>
    <v>       0.82487708       0.04122024       0.17331293 </v>
    <v>       0.20728467       0.66023183       0.46903607 </v>
    <v>       0.28047341       0.19043060       0.51420050 </v>
    <v>       0.78047259       0.69042776       0.51420058 </v>
    <v>       0.70728550       0.16023127       0.46903649 </v>
    <v>       0.33100226       0.45976540       0.82230709 </v>
    <v>       0.32487585       0.54122052       0.17331109 </v>
    <v>       0.68859176       0.48803813       0.20384969 </v>
    <v>       0.69958720       0.51329018       0.78526673 </v>
    <v>       0.47862434       0.19788979       0.70384081 </v>
    <v>       0.45038856       0.84037655       0.32231624 </v>
    <v>       0.50392181       0.20907778       0.28530516 </v>
    <v>       0.53185384       0.83427969       0.67333522 </v>
    <v>       0.49179705       0.50080660       0.49833380 </v>
    <v>       0.49141266       0.00130078       0.99833466 </v>
    <v>       0.99141250       0.50130154       0.99833439 </v>
    <v>       0.99179757       0.00080581       0.49833359 </v>
    <v>       0.12688085       0.87175249       0.60046379 </v>
    <v>       0.09445638       0.13651261       0.36901592 </v>
    <v>       0.85497075       0.88962899       0.37865001 </v>
    <v>       0.88615797       0.12227032       0.63710648 </v>
    <v>       0.86239044       0.63637962       0.10050148 </v>
    <v>       0.88022915       0.36448250       0.87863736 </v>
    <v>       0.12716027       0.60389776       0.86902261 </v>
    <v>       0.11284364       0.39559795       0.13710278 </v>
    <v>       0.62715974       0.10389720       0.86902252 </v>
    <v>       0.61284461       0.89559787       0.13710282 </v>
    <v>       0.36239107       0.13637877       0.10050227 </v>
    <v>       0.38022902       0.86448138       0.87863789 </v>
    <v>       0.59445522       0.63651318       0.36901534 </v>
    <v>       0.62688155       0.37175377       0.60046282 </v>
    <v>       0.38615726       0.62227183       0.63710630 </v>
    <v>       0.35497118       0.38963001       0.37864906 </v>
    <v>       0.74764120       0.74557283       0.74584900 </v>
    <v>       0.73620076       0.25702881       0.24583879 </v>
    <v>       0.23619999       0.75702900       0.24583849 </v>
    <v>       0.24764209       0.24557323       0.74584921 </v>
    <v>       0.02355290       0.99515247       0.99379725 </v>
    <v>       0.98571954       0.53287784       0.49384353 </v>
    <v>       0.48571971       0.03287895       0.49384368 </v>
    <v>       0.52355288       0.49515119       0.99379753 </v>
   </varray>
  </structure>
  <varray name="forces" >
   <v>       0.00006595      -0.00009110      -0.00026182 </v>
   <v>      -0.00015703      -0.00042334       0.00034654 </v>
   <v>       0.00117754      -0.00032247       0.00028088 </v>
   <v>       0.00020772      -0.00023730      -0.00024717 </v>
   <v>      -0.00010691      -0.00064361      -0.00012903 </v>
   <v>       0.00043446       0.00021980       0.00001679 </v>
   <v>       0.00043446       0.00021980       0.00001679 </v>
   <v>       0.00117754      -0.00032247       0.00028088 </v>
   <v>      -0.00046839      -0.00013350       0.00035475 </v>
   <v>      -0.00018996       0.00020342      -0.00016408 </v>
   <v>      -0.00013596       0.00000524      -0.00023593 </v>
   <v>      -0.00066494      -0.00012412      -0.00002329 </v>
   <v>      -0.00031837       0.00143418       0.00035009 </v>
   <v>       0.00019229       0.00041014       0.00000999 </v>
   <v>       0.00019229       0.00041014       0.00000999 </v>
   <v>      -0.00031837       0.00143418       0.00035009 </v>
   <v>      -0.00013596       0.00000524      -0.00023593 </v>
   <v>      -0.00066494      -0.00012412      -0.00002329 </v>
   <v>      -0.00046839      -0.00013350       0.00035475 </v>
   <v>      -0.00018996       0.00020342      -0.00016408 </v>
   <v>      -0.00015703      -0.00042334       0.00034654 </v>
   <v>       0.00006595      -0.00009110      -0.00026182 </v>
   <v>       0.00020772      -0.00023730      -0.00024717 </v>
   <v>      -0.00010691      -0.00064361      -0.00012903 </v>
   <v>      -0.00003497      -0.00043540      -0.00023409 </v>
   <v>      -0.00020481      -0.00034438      -0.00023904 </v>
   <v>      -0.00020481      -0.00034438      -0.00023904 </v>
   <v>      -0.00003497      -0.00043540      -0.00023409 </v>
   <v>      -0.00087643       0.00020775       0.00052442 </v>
   <v>       0.00040021       0.00007971       0.00053791 </v>
   <v>       0.00065493      -0.00013404      -0.00039788 </v>
   <v>      -0.00059664      -0.00012781      -0.00016871 </v>
   <v>       0.00015778      -0.00086286       0.00039356 </v>
   <v>       0.00003882       0.00068853      -0.00041833 </v>
   <v>       0.00032251       0.00063607       0.00023611 </v>
   <v>      -0.00019520      -0.00043950      -0.00048033 </v>
   <v>       0.00032251       0.00063607       0.00023611 </v>
   <v>      -0.00019520      -0.00043950      -0.00048033 </v>
   <v>       0.00015778      -0.00086286       0.00039356 </v>
   <v>       0.00003882       0.00068853      -0.00041833 </v>
   <v>       0.00040021       0.00007971       0.00053791 </v>
   <v>      -0.00087643       0.00020775       0.00052442 </v>
   <v>      -0.00059664      -0.00012781      -0.00016871 </v>
   <v>       0.00065493      -0.00013404      -0.00039788 </v>
   <v>      -0.00003758      -0.00009346      -0.00007314 </v>
   <v>      -0.00011966      -0.00001319      -0.00007289 </v>
   <v>      -0.00011966      -0.00001319      -0.00007289 </v>
   <v>      -0.00003758      -0.00009346      -0.00007314 </v>
   <v>       0.00038136       0.00016716       0.00000933 </v>
   <v>       0.00007328       0.00037407       0.00008536 </v>
   <v>       0.00007328       0.00037407       0.00008536 </v>
   <v>       0.00038136       0.00016716       0.00000933 </v>
  </varray>
  <varray name="stress" >
   <v>      -2.24041168       1.96690034       3.93513026 </v>
   <v>       1.96690043      -2.18360810       3.95504638 </v>
   <v>       3.93513094       3.95504702       4.52557414 </v>
  </varray>
  <energy>
   <i name="e_fr_energy">   -272.54991468 </i>
   <i name="e_wo_entrp">   -272.54991468 </i>
   <i name="e_0_energy">   -272.54991468 </i>
  </energy>
  <time name="totalsc">   17.13   17.37</time>
 </calculation>
 <calculation>
  <scstep>
   <time name="dav">    4.90    4.94</time>
   <time name="total">    5.48    5.52</time>
   <energy>
    <i name="alphaZ">    303.56200218 </i>
    <i name="ewald">  -8874.32057772 </i>
    <i name="hartreedc">  -2171.21410572 </i>
    <i name="XCdc">    538.01812631 </i>
    <i name="pawpsdc">   9816.46256625 </i>
    <i name="pawaedc">  -9960.41511264 </i>
    <i name="eentropy">     -0.00000000 </i>
    <i name="bandstr">  -2614.08199812 </i>
    <i name="atom">  12703.13999606 </i>
    <i name="e_fr_energy">   -258.84910340 </i>
    <i name="e_wo_entrp">   -258.84910340 </i>
    <i name="e_0_energy">   -258.84910340 </i>
   </energy>
  </scstep>
  <scstep>
   <time name="diag">    0.72    0.72</time>
   <time name="diis">    1.55    1.56</time>
   <time name="orth">    0.13    0.13</time>
   <time name="total">    2.85    2.87</time>
   <energy>
    <i name="alphaZ">    303.56200218 </i>
    <i name="ewald">  -8874.32057772 </i>
    <i name="hartreedc">  -2171.21663148 </i>
    <i name="XCdc">    538.01820904 </i>
    <i name="pawpsdc">   9816.49955895 </i>
    <i name="pawaedc">  -9960.45220076 </i>
    <i name="eentropy">     -0.00000000 </i>
    <i name="bandstr">  -2614.07945995 </i>
    <i name="atom">  12703.13999606 </i>
    <i name="e_fr_energy">   -258.84910367 </i>
    <i name="e_wo_entrp">   -258.84910367 </i>
    <i name="e_0_energy">   -258.84910367 </i>
   </energy>
  </scstep>
  <structure>
   <crystal>
    <varray name="basis" >
     <v>       9.63425523       0.00000000       0.00000000 </v>
     <v>       0.00000000       9.63425523       0.00000000 </v>
     <v>       0.00000000       0.00000000       9.63425523 </v>
    </varray>
    <i name="volume">    894.24072094 </i>
    <varray name="rec_basis" >
     <v>       0.10379630       0.00000000       0.00000000 </v>
     <v>       0.00000000       0.10379630       0.00000000 </v>
     <v>       0.00000000       0.00000000       0.10379630 </v>
    </varray>
   </crystal>
   <varray name="positions" >
    <v>       0.95038925       0.34037515       0.32231680 </v>
    <v>       0.97862287       0.69788744       0.70384124 </v>
    <v>       0.15088485       0.21670515       0.96906859 </v>
    <v>       0.00392138       0.70907662       0.28530461 </v>
    <v>       0.03185335       0.33427675       0.67333564 </v>
    <v>       0.18109422       0.78988678       0.01419891 </v>
    <v>       0.68109587       0.28988581       0.01419883 </v>
    <v>       0.65088248       0.71670489       0.96906787 </v>
    <v>       0.18859031       0.98803800       0.20384941 </v>
    <v>       0.19958858       0.01329084       0.78526543 </v>
    <v>       0.83100194       0.95976461       0.82230823 </v>
    <v>       0.82487627       0.04122017       0.17331286 </v>
    <v>       0.20728439       0.66023328       0.46903646 </v>
    <v>       0.28047367       0.19043108       0.51420059 </v>
    <v>       0.78047284       0.69042824       0.51420067 </v>
    <v>       0.70728522       0.16023272       0.46903689 </v>
    <v>       0.33100211       0.45976543       0.82230682 </v>
    <v>       0.32487504       0.54122045       0.17331102 </v>
    <v>       0.68859121       0.48803796       0.20385010 </v>
    <v>       0.69958695       0.51329055       0.78526654 </v>
    <v>       0.47862413       0.19788927       0.70384125 </v>
    <v>       0.45038861       0.84037648       0.32231597 </v>
    <v>       0.50392214       0.20907747       0.28530485 </v>
    <v>       0.53185380       0.83427889       0.67333502 </v>
    <v>       0.49179690       0.50080703       0.49833386 </v>
    <v>       0.49141318       0.00130127       0.99833425 </v>
    <v>       0.99141302       0.50130203       0.99833398 </v>
    <v>       0.99179741       0.00080624       0.49833365 </v>
    <v>       0.12687858       0.87175410       0.60046310 </v>
    <v>       0.09445531       0.13651110       0.36901804 </v>
    <v>       0.85497282       0.88963020       0.37865101 </v>
    <v>       0.88615903       0.12226848       0.63710425 </v>
    <v>       0.86239216       0.63637712       0.10050060 </v>
    <v>       0.88023045       0.36448445       0.87863828 </v>
    <v>       0.12715881       0.60389669       0.86902466 </v>
    <v>       0.11284198       0.39559889       0.13710059 </v>
    <v>       0.62715828       0.10389612       0.86902457 </v>
    <v>       0.61284295       0.89559882       0.13710064 </v>
    <v>       0.36239279       0.13637627       0.10050139 </v>
    <v>       0.38023031       0.86448333       0.87863881 </v>
    <v>       0.59445415       0.63651167       0.36901746 </v>
    <v>       0.62687927       0.37175538       0.60046212 </v>
    <v>       0.38615833       0.62226999       0.63710407 </v>
    <v>       0.35497325       0.38963123       0.37865005 </v>
    <v>       0.74764114       0.74557280       0.74584889 </v>
    <v>       0.73620072       0.25702877       0.24583869 </v>
    <v>       0.23619996       0.75702896       0.24583839 </v>
    <v>       0.24764202       0.24557320       0.74584910 </v>
    <v>       0.02355273       0.99515270       0.99379722 </v>
    <v>       0.98571967       0.53287770       0.49384358 </v>
    <v>       0.48571984       0.03287880       0.49384373 </v>
    <v>       0.52355271       0.49515141       0.99379750 </v>
   </varray>
  </structure>
  <varray name="forces" >
   <v>       0.00009725      -0.00011745      -0.00035610 </v>
   <v>      -0.00020408      -0.00057861       0.00047950 </v>
   <v>       0.00134489      -0.00035267       0.00031148 </v>
   <v>       0.00029780      -0.00032334      -0.00034112 </v>
   <v>      -0.00011548      -0.00083529      -0.00017100 </v>
   <v>       0.00059716       0.00030525       0.00002795 </v>
   <v>       0.00059716       0.00030525       0.00002795 </v>
   <v>       0.00134489      -0.00035267       0.00031148 </v>
   <v>      -0.00062995      -0.00017143       0.00048171 </v>
   <v>      -0.00025745       0.00030112      -0.00022287 </v>
   <v>      -0.00018315       0.00002462      -0.00032711 </v>
   <v>      -0.00086644      -0.00014071      -0.00003451 </v>
   <v>      -0.00034596       0.00160438       0.00038017 </v>
   <v>       0.00027832       0.00056775       0.00002386 </v>
   <v>       0.00027832       0.00056775       0.00002386 </v>
   <v>      -0.00034596       0.00160438       0.00038017 </v>
   <v>      -0.00018315       0.00002462      -0.00032711 </v>
   <v>      -0.00086644      -0.00014071      -0.00003451 </v>
   <v>      -0.00062995      -0.00017143       0.00048171 </v>
   <v>      -0.00025745       0.00030112      -0.00022287 </v>
   <v>      -0.00020408      -0.00057861       0.00047950 </v>
   <v>       0.00009725      -0.00011745      -0.00035610 </v>
   <v>       0.00029780      -0.00032334      -0.00034112 </v>
   <v>      -0.00011548      -0.00083529      -0.00017100 </v>
   <v>      -0.00001110      -0.00058115      -0.00028632 </v>
   <v>      -0.00031328      -0.00046201      -0.00022729 </v>
   <v>      -0.00031328      -0.00046201      -0.00022729 </v>
   <v>      -0.00001110      -0.00058115      -0.00028632 </v>
   <v>      -0.00069210      -0.00001093       0.00076030 </v>
   <v>       0.00065486       0.00036705       0.00030485 </v>
   <v>       0.00045974      -0.00034404      -0.00064666 </v>
   <v>      -0.00090274       0.00013993       0.00016255 </v>
   <v>      -0.00009278      -0.00064176       0.00063853 </v>
   <v>      -0.00014318       0.00051452      -0.00065906 </v>
   <v>       0.00065324       0.00092803      -0.00004349 </v>
   <v>       0.00003564      -0.00069342      -0.00022379 </v>
   <v>       0.00065324       0.00092803      -0.00004349 </v>
   <v>       0.00003564      -0.00069342      -0.00022379 </v>
   <v>      -0.00009278      -0.00064176       0.00063853 </v>
   <v>      -0.00014318       0.00051452      -0.00065906 </v>
   <v>       0.00065486       0.00036705       0.00030485 </v>
   <v>      -0.00069210      -0.00001093       0.00076030 </v>
   <v>      -0.00090274       0.00013993       0.00016255 </v>
   <v>       0.00045974      -0.00034404      -0.00064666 </v>
   <v>      -0.00003835      -0.00006150      -0.00006726 </v>
   <v>      -0.00009483      -0.00001364      -0.00006871 </v>
   <v>      -0.00009483      -0.00001364      -0.00006871 </v>
   <v>      -0.00003835      -0.00006150      -0.00006726 </v>
   <v>       0.00034636       0.00022391       0.00000490 </v>
   <v>       0.00012562       0.00035141       0.00009950 </v>
   <v>       0.00012562       0.00035141       0.00009950 </v>
   <v>       0.00034636       0.00022391       0.00000490 </v>
  </varray>
  <varray name="stress" >
   <v>      -2.23032113       1.96649450       3.93427706 </v>
   <v>       1.96649437      -2.17348035       3.95493323 </v>
   <v>       3.93427789       3.95493408       4.53578406 </v>
  </varray>
  <energy>
   <i name="e_fr_energy">   -272.54991520 </i>
   <i name="e_wo_entrp">   -272.54991520 </i>
   <i name="e_0_energy">   -272.54991520 </i>
  </energy>
  <time name="totalsc">   13.14   13.48</time>
 </calculation>
 <calculation>
  <scstep>
   <time name="dav">    8.85    8.92</time>
   <time name="total">    9.42    9.49</time>
   <energy>
    <i name="alphaZ">    303.56200218 </i>
    <i name="ewald">  -8874.29429656 </i>
    <i name="hartreedc">  -2171.23738731 </i>
    <i name="XCdc">    538.01883819 </i>
    <i name="pawpsdc">   9816.51818936 </i>
    <i name="pawaedc">  -9960.47094000 </i>
    <i name="eentropy">     -0.00000000 </i>
    <i name="bandstr">  -2614.08550740 </i>
    <i name="atom">  12703.13999606 </i>
    <i name="e_fr_energy">   -258.84910546 </i>
    <i name="e_wo_entrp">   -258.84910546 </i>
    <i name="e_0_energy">   -258.84910546 </i>
   </energy>
  </scstep>
  <scstep>
   <time name="diag">    0.72    0.72</time>
   <time name="diis">    1.47    1.48</time>
   <time name="orth">    0.13    0.13</time>
   <time name="total">    2.77    2.79</time>
   <energy>
    <i name="alphaZ">    303.56200218 </i>
    <i name="ewald">  -8874.29429656 </i>
    <i name="hartreedc">  -2171.23940374 </i>
    <i name="XCdc">    538.01890535 </i>
    <i name="pawpsdc">   9816.54903109 </i>
    <i name="pawaedc">  -9960.50186450 </i>
    <i name="eentropy">     -0.00000000 </i>
    <i name="bandstr">  -2614.08347555 </i>
    <i name="atom">  12703.13999606 </i>
    <i name="e_fr_energy">   -258.84910567 </i>
    <i name="e_wo_entrp">   -258.84910567 </i>
    <i name="e_0_energy">   -258.84910567 </i>
   </energy>
  </scstep>
  <structure>
   <crystal>
    <varray name="basis" >
     <v>       9.63425523       0.00000000       0.00000000 </v>
     <v>       0.00000000       9.63425523       0.00000000 </v>
     <v>       0.00000000       0.00000000       9.63425523 </v>
    </varray>
    <i name="volume">    894.24072094 </i>
    <varray name="rec_basis" >
     <v>       0.10379630       0.00000000       0.00000000 </v>
     <v>       0.00000000       0.10379630       0.00000000 </v>
     <v>       0.00000000       0.00000000       0.10379630 </v>
    </varray>
   </crystal>
   <varray name="positions" >
    <v>       0.95038929       0.34037509       0.32231660 </v>
    <v>       0.97862270       0.69788702       0.70384159 </v>
    <v>       0.15088585       0.21670488       0.96906883 </v>
    <v>       0.00392164       0.70907638       0.28530437 </v>
    <v>       0.03185332       0.33427611       0.67333548 </v>
    <v>       0.18109460       0.78988696       0.01419897 </v>
    <v>       0.68109625       0.28988600       0.01419890 </v>
    <v>       0.65088347       0.71670462       0.96906811 </v>
    <v>       0.18858989       0.98803786       0.20384973 </v>
    <v>       0.19958838       0.01329113       0.78526528 </v>
    <v>       0.83100181       0.95976463       0.82230801 </v>
    <v>       0.82487563       0.04122012       0.17331280 </v>
    <v>       0.20728417       0.66023443       0.46903677 </v>
    <v>       0.28047387       0.19043146       0.51420066 </v>
    <v>       0.78047304       0.69042862       0.51420074 </v>
    <v>       0.70728500       0.16023386       0.46903720 </v>
    <v>       0.33100199       0.45976545       0.82230660 </v>
    <v>       0.32487440       0.54122040       0.17331097 </v>
    <v>       0.68859079       0.48803782       0.20385043 </v>
    <v>       0.69958675       0.51329084       0.78526640 </v>
    <v>       0.47862396       0.19788885       0.70384160 </v>
    <v>       0.45038866       0.84037641       0.32231577 </v>
    <v>       0.50392239       0.20907724       0.28530461 </v>
    <v>       0.53185377       0.83427825       0.67333486 </v>
    <v>       0.49179678       0.50080737       0.49833390 </v>
    <v>       0.49141358       0.00130166       0.99833393 </v>
    <v>       0.99141342       0.50130242       0.99833366 </v>
    <v>       0.99179729       0.00080658       0.49833369 </v>
    <v>       0.12687679       0.87175537       0.60046255 </v>
    <v>       0.09445447       0.13650990       0.36901970 </v>
    <v>       0.85497445       0.88963116       0.37865180 </v>
    <v>       0.88615987       0.12226704       0.63710250 </v>
    <v>       0.86239352       0.63637515       0.10049991 </v>
    <v>       0.88023147       0.36448598       0.87863900 </v>
    <v>       0.12715766       0.60389584       0.86902627 </v>
    <v>       0.11284067       0.39559964       0.13709888 </v>
    <v>       0.62715712       0.10389528       0.86902618 </v>
    <v>       0.61284164       0.89559956       0.13709892 </v>
    <v>       0.36239415       0.13637430       0.10050070 </v>
    <v>       0.38023133       0.86448486       0.87863954 </v>
    <v>       0.59445331       0.63651048       0.36901913 </v>
    <v>       0.62687748       0.37175665       0.60046158 </v>
    <v>       0.38615917       0.62226855       0.63710232 </v>
    <v>       0.35497488       0.38963218       0.37865084 </v>
    <v>       0.74764109       0.74557278       0.74584880 </v>
    <v>       0.73620069       0.25702874       0.24583862 </v>
    <v>       0.23619993       0.75702893       0.24583832 </v>
    <v>       0.24764197       0.24557318       0.74584901 </v>
    <v>       0.02355260       0.99515287       0.99379720 </v>
    <v>       0.98571977       0.53287758       0.49384362 </v>
    <v>       0.48571994       0.03287868       0.49384377 </v>
    <v>       0.52355258       0.49515159       0.99379748 </v>
   </varray>
  </structure>
  <varray name="forces" >
   <v>       0.00011580      -0.00012188      -0.00038391 </v>
   <v>      -0.00019592      -0.00059371       0.00050036 </v>
   <v>       0.00145854      -0.00037337       0.00033835 </v>
   <v>       0.00029854      -0.00032596      -0.00035661 </v>
   <v>      -0.00013269      -0.00096276      -0.00019763 </v>
   <v>       0.00063442       0.00033218       0.00001635 </v>
   <v>       0.00063442       0.00033218       0.00001635 </v>
   <v>       0.00145854      -0.00037337       0.00033835 </v>
   <v>      -0.00065355      -0.00015948       0.00050450 </v>
   <v>      -0.00026091       0.00030359      -0.00023510 </v>
   <v>      -0.00019450       0.00004180      -0.00035078 </v>
   <v>      -0.00099145      -0.00015669      -0.00003807 </v>
   <v>      -0.00036648       0.00171341       0.00040417 </v>
   <v>       0.00029791       0.00060658       0.00001165 </v>
   <v>       0.00029791       0.00060658       0.00001165 </v>
   <v>      -0.00036648       0.00171341       0.00040417 </v>
   <v>      -0.00019450       0.00004180      -0.00035078 </v>
   <v>      -0.00099145      -0.00015669      -0.00003807 </v>
   <v>      -0.00065355      -0.00015948       0.00050450 </v>
   <v>      -0.00026091       0.00030359      -0.00023510 </v>
   <v>      -0.00019592      -0.00059371       0.00050036 </v>
   <v>       0.00011580      -0.00012188      -0.00038391 </v>
   <v>       0.00029854      -0.00032596      -0.00035661 </v>
   <v>      -0.00013269      -0.00096276      -0.00019763 </v>
   <v>       0.00001582      -0.00070580      -0.00032807 </v>
   <v>      -0.00042282      -0.00060421      -0.00017866 </v>
   <v>      -0.00042282      -0.00060421      -0.00017866 </v>
   <v>       0.00001582      -0.00070580      -0.00032807 </v>
   <v>      -0.00053321      -0.00017713       0.00092175 </v>
   <v>       0.00084235       0.00058262       0.00011929 </v>
   <v>       0.00029590      -0.00049839      -0.00082688 </v>
   <v>      -0.00111914       0.00035380       0.00041810 </v>
   <v>      -0.00028702      -0.00044691       0.00080142 </v>
   <v>      -0.00028598       0.00037736      -0.00083605 </v>
   <v>       0.00088960       0.00114894      -0.00025970 </v>
   <v>       0.00021878      -0.00086538      -0.00002104 </v>
   <v>       0.00088960       0.00114894      -0.00025970 </v>
   <v>       0.00021878      -0.00086538      -0.00002104 </v>
   <v>      -0.00028702      -0.00044691       0.00080142 </v>
   <v>      -0.00028598       0.00037736      -0.00083605 </v>
   <v>       0.00084235       0.00058262       0.00011929 </v>
   <v>      -0.00053321      -0.00017713       0.00092175 </v>
[...]
       <r>     8.1083     9.6874   144.5260 </r>
       <r>     8.3013    14.9718   147.4162 </r>
       <r>     8.4942    16.8979   150.6772 </r>
       <r>     8.6871    16.6236   153.8901 </r>
       <r>     8.8800    12.9463   156.3905 </r>
       <r>     9.0730    18.3065   159.9223 </r>
       <r>     9.2659    19.8037   163.7455 </r>
       <r>     9.4588    11.6970   166.0074 </r>
       <r>     9.6517    18.0712   169.4939 </r>
       <r>     9.8447    17.9443   172.9560 </r>
       <r>    10.0376    12.5823   175.3861 </r>
       <r>    10.2305     3.1820   176.0000 </r>
       <r>    10.4235     0.0000   176.0000 </r>
       <r>    10.6164     0.0000   176.0000 </r>
       <r>    10.8093     0.0000   176.0000 </r>
       <r>    11.0022     0.0000   176.0000 </r>
       <r>    11.1952     0.0000   176.0000 </r>
       <r>    11.3881     0.0000   176.0000 </r>
       <r>    11.5810     0.0000   176.0000 </r>
       <r>    11.7739     0.0000   176.0000 </r>
       <r>    11.9669     0.0000   176.0000 </r>
       <r>    12.1598     0.0000   176.0000 </r>
       <r>    12.3527     0.0000   176.0000 </r>
       <r>    12.5456     0.0000   176.0000 </r>
       <r>    12.7386     0.0000   176.0000 </r>
      </set>
      <set comment="spin 2">
       <r>   -45.1394     0.0000     0.0000 </r>
       <r>   -44.9464     0.0000     0.0000 </r>
       <r>   -44.7535     0.0000     0.0000 </r>
       <r>   -44.5606     0.0000     0.0000 </r>
       <r>   -44.3677     0.0000     0.0000 </r>
       <r>   -44.1747     0.0000     0.0000 </r>
       <r>   -43.9818     0.0000     0.0000 </r>
       <r>   -43.7889     0.0000     0.0000 </r>
       <r>   -43.5960     0.0000     0.0000 </r>
       <r>   -43.4030     0.0000     0.0000 </r>
       <r>   -43.2101     0.0000     0.0000 </r>
       <r>   -43.0172     0.0000     0.0000 </r>
       <r>   -42.8243     0.0000     0.0000 </r>
       <r>   -42.6313     0.0000     0.0000 </r>
       <r>   -42.4384    20.7301     3.9994 </r>
       <r>   -42.2455    59.4766    15.4760 </r>
       <r>   -42.0525    44.1797    24.0000 </r>
       <r>   -41.8596     0.0000    24.0000 </r>
       <r>   -41.6667     0.0000    24.0000 </r>
       <r>   -41.4738     0.0000    24.0000 </r>
       <r>   -41.2808     0.0000    24.0000 </r>
       <r>   -41.0879     0.0000    24.0000 </r>
       <r>   -40.8950     0.0000    24.0000 </r>
       <r>   -40.7021     0.0000    24.0000 </r>
       <r>   -40.5091     0.0000    24.0000 </r>
       <r>   -40.3162     0.0000    24.0000 </r>
       <r>   -40.1233     0.0000    24.0000 </r>
       <r>   -39.9304     0.0000    24.0000 </r>
       <r>   -39.7374     0.0000    24.0000 </r>
       <r>   -39.5445     0.0000    24.0000 </r>
       <r>   -39.3516     0.0000    24.0000 </r>
       <r>   -39.1587     0.0000    24.0000 </r>
       <r>   -38.9657     0.0000    24.0000 </r>
       <r>   -38.7728     0.0000    24.0000 </r>
       <r>   -38.5799     0.0000    24.0000 </r>
       <r>   -38.3869     0.0000    24.0000 </r>
       <r>   -38.1940     0.0000    24.0000 </r>
       <r>   -38.0011     0.0000    24.0000 </r>
       <r>   -37.8082     0.0000    24.0000 </r>
       <r>   -37.6152     0.0000    24.0000 </r>
       <r>   -37.4223     0.0000    24.0000 </r>
       <r>   -37.2294     0.0000    24.0000 </r>
       <r>   -37.0365     0.0000    24.0000 </r>
       <r>   -36.8435     0.0000    24.0000 </r>
       <r>   -36.6506     0.0000    24.0000 </r>
       <r>   -36.4577     0.0000    24.0000 </r>
       <r>   -36.2648     0.0000    24.0000 </r>
       <r>   -36.0718     0.0000    24.0000 </r>
       <r>   -35.8789     0.0000    24.0000 </r>
       <r>   -35.6860     0.0000    24.0000 </r>
       <r>   -35.4930     0.0000    24.0000 </r>
       <r>   -35.3001     0.0000    24.0000 </r>
       <r>   -35.1072     0.0000    24.0000 </r>
       <r>   -34.9143     0.0000    24.0000 </r>
       <r>   -34.7213     0.0000    24.0000 </r>
       <r>   -34.5284     0.0000    24.0000 </r>
       <r>   -34.3355     0.0000    24.0000 </r>
       <r>   -34.1426     0.0000    24.0000 </r>
       <r>   -33.9496     0.0000    24.0000 </r>
       <r>   -33.7567     0.0000    24.0000 </r>
       <r>   -33.5638     0.0000    24.0000 </r>
       <r>   -33.3709     0.0000    24.0000 </r>
       <r>   -33.1779     0.0000    24.0000 </r>
       <r>   -32.9850     0.0000    24.0000 </r>
       <r>   -32.7921     0.0000    24.0000 </r>
       <r>   -32.5992     0.0000    24.0000 </r>
       <r>   -32.4062     0.0000    24.0000 </r>
       <r>   -32.2133     0.0000    24.0000 </r>
       <r>   -32.0204     0.0000    24.0000 </r>
       <r>   -31.8274     0.0000    24.0000 </r>
       <r>   -31.6345     0.0000    24.0000 </r>
       <r>   -31.4416     0.0000    24.0000 </r>
       <r>   -31.2487     0.0000    24.0000 </r>
       <r>   -31.0557     0.0000    24.0000 </r>
       <r>   -30.8628     0.0000    24.0000 </r>
       <r>   -30.6699     0.0000    24.0000 </r>
       <r>   -30.4770     0.0000    24.0000 </r>
       <r>   -30.2840     0.0000    24.0000 </r>
       <r>   -30.0911     0.0000    24.0000 </r>
       <r>   -29.8982     0.0000    24.0000 </r>
       <r>   -29.7053     0.0000    24.0000 </r>
       <r>   -29.5123     0.0000    24.0000 </r>
       <r>   -29.3194     0.0000    24.0000 </r>
       <r>   -29.1265     0.0000    24.0000 </r>
       <r>   -28.9335     0.0000    24.0000 </r>
       <r>   -28.7406     0.0000    24.0000 </r>
       <r>   -28.5477     0.0000    24.0000 </r>
       <r>   -28.3548     0.0000    24.0000 </r>
       <r>   -28.1618     0.0000    24.0000 </r>
       <r>   -27.9689     0.0000    24.0000 </r>
       <r>   -27.7760     0.0000    24.0000 </r>
       <r>   -27.5831     0.0000    24.0000 </r>
       <r>   -27.3901     0.0000    24.0000 </r>
       <r>   -27.1972     0.0000    24.0000 </r>
       <r>   -27.0043     0.0000    24.0000 </r>
       <r>   -26.8114     0.0000    24.0000 </r>
       <r>   -26.6184     0.0000    24.0000 </r>
       <r>   -26.4255     0.0000    24.0000 </r>
       <r>   -26.2326     0.0000    24.0000 </r>
       <r>   -26.0397     0.0000    24.0000 </r>
       <r>   -25.8467     0.0000    24.0000 </r>
       <r>   -25.6538     0.0000    24.0000 </r>
       <r>   -25.4609     0.0000    24.0000 </r>
       <r>   -25.2679     0.0000    24.0000 </r>
       <r>   -25.0750     0.0000    24.0000 </r>
       <r>   -24.8821     0.0000    24.0000 </r>
       <r>   -24.6892     0.0000    24.0000 </r>
       <r>   -24.4962     0.0000    24.0000 </r>
       <r>   -24.3033     0.0000    24.0000 </r>
       <r>   -24.1104     0.0000    24.0000 </r>
       <r>   -23.9175     0.0000    24.0000 </r>
       <r>   -23.7245     0.0000    24.0000 </r>
       <r>   -23.5316     0.0000    24.0000 </r>
       <r>   -23.3387     0.0000    24.0000 </r>
       <r>   -23.1458     0.0000    24.0000 </r>
       <r>   -22.9528     0.0000    24.0000 </r>
       <r>   -22.7599     0.0000    24.0000 </r>
       <r>   -22.5670     0.0000    24.0000 </r>
       <r>   -22.3740     0.0000    24.0000 </r>
       <r>   -22.1811     0.0000    24.0000 </r>
       <r>   -21.9882     0.0000    24.0000 </r>
       <r>   -21.7953     0.0000    24.0000 </r>
       <r>   -21.6023     0.0000    24.0000 </r>
       <r>   -21.4094     0.0000    24.0000 </r>
       <r>   -21.2165     0.0000    24.0000 </r>
       <r>   -21.0236     0.0000    24.0000 </r>
       <r>   -20.8306     0.0000    24.0000 </r>
       <r>   -20.6377     0.0000    24.0000 </r>
       <r>   -20.4448     0.0000    24.0000 </r>
       <r>   -20.2519     0.0000    24.0000 </r>
       <r>   -20.0589     0.0000    24.0000 </r>
       <r>   -19.8660     0.0000    24.0000 </r>
       <r>   -19.6731     0.0000    24.0000 </r>
       <r>   -19.4801     0.0000    24.0000 </r>
       <r>   -19.2872     0.0000    24.0000 </r>
       <r>   -19.0943     0.0000    24.0000 </r>
       <r>   -18.9014     0.0000    24.0000 </r>
       <r>   -18.7084     0.0000    24.0000 </r>
       <r>   -18.5155     0.0000    24.0000 </r>
       <r>   -18.3226     0.0000    24.0000 </r>
       <r>   -18.1297     0.0000    24.0000 </r>
       <r>   -17.9367     0.0000    24.0000 </r>
       <r>   -17.7438     0.0000    24.0000 </r>
       <r>   -17.5509     0.0000    24.0000 </r>
       <r>   -17.3580     0.0000    24.0000 </r>
       <r>   -17.1650     0.0000    24.0000 </r>
       <r>   -16.9721     0.0000    24.0000 </r>
       <r>   -16.7792     0.0000    24.0000 </r>
       <r>   -16.5863     0.0000    24.0000 </r>
       <r>   -16.3933     0.0000    24.0000 </r>
       <r>   -16.2004     0.0000    24.0000 </r>
       <r>   -16.0075     0.0000    24.0000 </r>
       <r>   -15.8145     0.0000    24.0000 </r>
       <r>   -15.6216     0.0000    24.0000 </r>
       <r>   -15.4287     0.0000    24.0000 </r>
       <r>   -15.2358     0.0000    24.0000 </r>
       <r>   -15.0428     0.0000    24.0000 </r>
       <r>   -14.8499     0.0000    24.0000 </r>
       <r>   -14.6570     0.0000    24.0000 </r>
       <r>   -14.4641     0.0000    24.0000 </r>
       <r>   -14.2711     0.0000    24.0000 </r>
       <r>   -14.0782     0.0000    24.0000 </r>
       <r>   -13.8853     0.0000    24.0000 </r>
       <r>   -13.6924     0.0000    24.0000 </r>
       <r>   -13.4994     0.0000    24.0000 </r>
       <r>   -13.3065     0.0000    24.0000 </r>
       <r>   -13.1136     0.0000    24.0000 </r>
       <r>   -12.9206    10.9359    26.1098 </r>
       <r>   -12.7277     9.7972    28.0000 </r>
       <r>   -12.5348    20.7261    31.9986 </r>
       <r>   -12.3419     0.0000    32.0000 </r>
       <r>   -12.1489     0.0000    32.0000 </r>
       <r>   -11.9560     0.0000    32.0000 </r>
       <r>   -11.7631     0.0000    32.0000 </r>
       <r>   -11.5702     0.0000    32.0000 </r>
       <r>   -11.3772     0.0000    32.0000 </r>
       <r>   -11.1843     0.0000    32.0000 </r>
       <r>   -10.9914     0.0000    32.0000 </r>
       <r>   -10.7985     0.0000    32.0000 </r>
       <r>   -10.6055     0.0000    32.0000 </r>
       <r>   -10.4126     0.0000    32.0000 </r>
       <r>   -10.2197     2.8183    32.5437 </r>
       <r>   -10.0268    17.1788    35.8580 </r>
       <r>    -9.8338    32.0029    42.0336 </r>
       <r>    -9.6409    10.1797    44.0000 </r>
       <r>    -9.4480     0.0000    44.0000 </r>
       <r>    -9.2550     0.0000    44.0000 </r>
       <r>    -9.0621     0.0000    44.0000 </r>
       <r>    -8.8692     0.0000    44.0000 </r>
       <r>    -8.6763     0.0000    44.0000 </r>
       <r>    -8.4833     0.0000    44.0000 </r>
       <r>    -8.2904     0.0050    44.0010 </r>
       <r>    -8.0975    20.7283    48.0000 </r>
       <r>    -7.9046     0.0000    48.0000 </r>
       <r>    -7.7116     0.0000    48.0000 </r>
       <r>    -7.5187     0.0000    48.0000 </r>
       <r>    -7.3258     0.0000    48.0000 </r>
       <r>    -7.1329     0.0000    48.0000 </r>
       <r>    -6.9399     0.0000    48.0000 </r>
       <r>    -6.7470     0.0000    48.0000 </r>
       <r>    -6.5541     0.0000    48.0000 </r>
       <r>    -6.3611     0.1310    48.0253 </r>
       <r>    -6.1682     0.5169    48.1250 </r>
       <r>    -5.9753     0.2194    48.1673 </r>
       <r>    -5.7824     4.3304    49.0028 </r>
       <r>    -5.5894     9.1483    50.7684 </r>
       <r>    -5.3965     5.7837    51.8842 </r>
       <r>    -5.2036     0.5995    52.0000 </r>
       <r>    -5.0107     0.0000    52.0000 </r>
       <r>    -4.8177     0.0000    52.0000 </r>
       <r>    -4.6248     0.0000    52.0000 </r>
       <r>    -4.4319     0.0000    52.0000 </r>
       <r>    -4.2390     0.0000    52.0000 </r>
       <r>    -4.0460     0.0000    52.0000 </r>
       <r>    -3.8531     0.0000    52.0000 </r>
       <r>    -3.6602     0.0000    52.0000 </r>
       <r>    -3.4673     0.0000    52.0000 </r>
       <r>    -3.2743     2.4595    52.4745 </r>
       <r>    -3.0814     3.4003    53.1305 </r>
       <r>    -2.8885    12.7557    55.5914 </r>
       <r>    -2.6955     2.8757    56.1462 </r>
       <r>    -2.5026    14.0381    58.8558 </r>
       <r>    -2.3097    13.3879    61.4390 </r>
       <r>    -2.1168    12.7195    63.8932 </r>
       <r>    -1.9238     0.5486    64.0000 </r>
       <r>    -1.7309     0.0000    64.0000 </r>
       <r>    -1.5380     4.4887    64.8660 </r>
       <r>    -1.3451    20.9411    68.9061 </r>
       <r>    -1.1521    20.1477    72.7931 </r>
       <r>    -0.9592    16.6218    76.0000 </r>
       <r>    -0.7663     0.0000    76.0000 </r>
       <r>    -0.5734     4.1141    76.7937 </r>
       <r>    -0.3804     3.8953    77.5453 </r>
       <r>    -0.1875    16.0852    80.6486 </r>
       <r>     0.0054    19.1115    84.3357 </r>
       <r>     0.1984    27.2254    89.5891 </r>
       <r>     0.3913    20.0979    93.4681 </r>
       <r>     0.5842    13.1233    96.0000 </r>
       <r>     0.7771     2.9696    96.5729 </r>
       <r>     0.9701    13.5454    99.1862 </r>
       <r>     1.1630    22.0600   103.4422 </r>
       <r>     1.3559    22.7277   107.8269 </r>
       <r>     1.5488    27.9538   113.2211 </r>
       <r>     1.7418    25.6800   118.1770 </r>
       <r>     1.9347     9.4422   119.9999 </r>
       <r>     2.1276     0.0000   120.0000 </r>
       <r>     2.3205     0.0000   120.0000 </r>
       <r>     2.5135     0.0000   120.0000 </r>
       <r>     2.7064     0.0000   120.0000 </r>
       <r>     2.8993     0.0000   120.0000 </r>
       <r>     3.0922     0.0000   120.0000 </r>
       <r>     3.2852     0.0000   120.0000 </r>
       <r>     3.4781     0.0000   120.0000 </r>
       <r>     3.6710     0.0000   120.0000 </r>
       <r>     3.8640     0.0000   120.0000 </r>
       <r>     4.0569     0.6209   120.1198 </r>
       <r>     4.2498     0.0271   120.1250 </r>
       <r>     4.4427     0.0000   120.1250 </r>
       <r>     4.6357     0.0000   120.1250 </r>
       <r>     4.8286     3.5887   120.8173 </r>
       <r>     5.0215     3.0300   121.4019 </r>
       <r>     5.2144     6.8123   122.7162 </r>
       <r>     5.4074     0.8231   122.8750 </r>
       <r>     5.6003     0.1159   122.8974 </r>
       <r>     5.7932     3.8029   123.6310 </r>
       <r>     5.9861     6.4205   124.8698 </r>
       <r>     6.1791    16.0160   127.9598 </r>
       <r>     6.3720     1.4974   128.2505 </r>
       <r>     6.5649    11.9048   130.5472 </r>
       <r>     6.7579    16.3682   133.7080 </r>
       <r>     6.9508     8.0162   135.2552 </r>
       <r>     7.1437     2.4754   135.7331 </r>
       <r>     7.3366     5.8368   136.8597 </r>
       <r>     7.5296    11.2096   139.0224 </r>
       <r>     7.7225     5.9001   140.1621 </r>
       <r>     7.9154    12.8984   142.6509 </r>
       <r>     8.1083     9.6874   144.5260 </r>
       <r>     8.3013    14.9718   147.4162 </r>
       <r>     8.4942    16.8979   150.6772 </r>
       <r>     8.6871    16.6236   153.8901 </r>
       <r>     8.8800    12.9463   156.3905 </r>
       <r>     9.0730    18.3065   159.9223 </r>
       <r>     9.2659    19.8037   163.7455 </r>
       <r>     9.4588    11.6972   166.0075 </r>
       <r>     9.6517    18.0694   169.4936 </r>
       <r>     9.8447    18.0969   172.9851 </r>
       <r>    10.0376    12.2718   175.3553 </r>
       <r>    10.2305     3.3416   176.0000 </r>
       <r>    10.4235     0.0000   176.0000 </r>
       <r>    10.6164     0.0000   176.0000 </r>
       <r>    10.8093     0.0000   176.0000 </r>
       <r>    11.0022     0.0000   176.0000 </r>
       <r>    11.1952     0.0000   176.0000 </r>
       <r>    11.3881     0.0000   176.0000 </r>
       <r>    11.5810     0.0000   176.0000 </r>
       <r>    11.7739     0.0000   176.0000 </r>
       <r>    11.9669     0.0000   176.0000 </r>
       <r>    12.1598     0.0000   176.0000 </r>
       <r>    12.3527     0.0000   176.0000 </r>
       <r>    12.5456     0.0000   176.0000 </r>
       <r>    12.7386     0.0000   176.0000 </r>
      </set>
     </set>
    </array>
   </total>
  </dos>
 </calculation>
 <structure name="finalpos" >
  <crystal>
   <varray name="basis" >
    <v>       9.63425523       0.00000000       0.00000000 </v>
    <v>       0.00000000       9.63425523       0.00000000 </v>
    <v>       0.00000000       0.00000000       9.63425523 </v>
   </varray>
   <i name="volume">    894.24072094 </i>
   <varray name="rec_basis" >
    <v>       0.10379630       0.00000000       0.00000000 </v>
    <v>       0.00000000       0.10379630       0.00000000 </v>
    <v>       0.00000000       0.00000000       0.10379630 </v>
   </varray>
  </crystal>
  <varray name="positions" >
   <v>       0.95038964       0.34037472       0.32231540 </v>
   <v>       0.97862204       0.69788509       0.70384321 </v>
   <v>       0.15089056       0.21670365       0.96906994 </v>
   <v>       0.00392264       0.70907532       0.28530321 </v>
   <v>       0.03185293       0.33427301       0.67333482 </v>
   <v>       0.18109661       0.78988801       0.01419906 </v>
   <v>       0.68109827       0.28988705       0.01419899 </v>
   <v>       0.65088819       0.71670340       0.96906922 </v>
   <v>       0.18858779       0.98803732       0.20385135 </v>
   <v>       0.19958753       0.01329218       0.78526454 </v>
   <v>       0.83100119       0.95976477       0.82230689 </v>
   <v>       0.82487245       0.04121966       0.17331265 </v>
   <v>       0.20728300       0.66023995       0.46903811 </v>
   <v>       0.28047483       0.19043340       0.51420075 </v>
   <v>       0.78047400       0.69043055       0.51420083 </v>
   <v>       0.70728384       0.16023938       0.46903854 </v>
   <v>       0.33100137       0.45976559       0.82230549 </v>
   <v>       0.32487122       0.54121994       0.17331082 </v>
   <v>       0.68858868       0.48803728       0.20385204 </v>
   <v>       0.69958589       0.51329189       0.78526565 </v>
   <v>       0.47862330       0.19788692       0.70384322 </v>
   <v>       0.45038900       0.84037604       0.32231457 </v>
   <v>       0.50392340       0.20907617       0.28530345 </v>
   <v>       0.53185338       0.83427515       0.67333420 </v>
   <v>       0.49179673       0.50080575       0.49833305 </v>
   <v>       0.49141277       0.00130035       0.99833320 </v>
   <v>       0.99141261       0.50130111       0.99833292 </v>
   <v>       0.99179724       0.00080496       0.49833284 </v>
   <v>       0.12687391       0.87175591       0.60046459 </v>
   <v>       0.09445606       0.13651051       0.36902137 </v>
   <v>       0.85497656       0.88963059       0.37865021 </v>
   <v>       0.88615754       0.12226682       0.63710221 </v>
   <v>       0.86239384       0.63637236       0.10050151 </v>
   <v>       0.88023152       0.36448823       0.87863734 </v>
   <v>       0.12715912       0.60389825       0.86902687 </v>
   <v>       0.11284021       0.39559791       0.13709743 </v>
   <v>       0.62715859       0.10389768       0.86902678 </v>
   <v>       0.61284118       0.89559784       0.13709748 </v>
   <v>       0.36239447       0.13637152       0.10050230 </v>
   <v>       0.38023138       0.86448711       0.87863788 </v>
   <v>       0.59445489       0.63651108       0.36902079 </v>
   <v>       0.62687461       0.37175719       0.60046361 </v>
   <v>       0.38615683       0.62226833       0.63710203 </v>
   <v>       0.35497699       0.38963161       0.37864925 </v>
   <v>       0.74764095       0.74557265       0.74584857 </v>
   <v>       0.73620044       0.25702870       0.24583838 </v>
   <v>       0.23619968       0.75702888       0.24583809 </v>
   <v>       0.24764184       0.24557305       0.74584878 </v>
   <v>       0.02355355       0.99515350       0.99379722 </v>
   <v>       0.98572012       0.53287856       0.49384390 </v>
   <v>       0.48572029       0.03287967       0.49384404 </v>
   <v>       0.52355353       0.49515222       0.99379750 </v>
  </varray>
 </structure>
</modeling>
