unknown system                          
           1
     9.634255    0.000000    0.000000
     0.000000    9.634255    0.000000
     0.000000    0.000000    9.634255
   Li   P    S    Cl
    24     4    20     4
Direct configuration=     1
   0.95038889  0.34037567  0.32231853
   0.97862426  0.69789090  0.70383834
   0.15087653  0.21670742  0.96906656
   0.00391923  0.70907861  0.28530665
   0.03185363  0.33428208  0.67333697
   0.18109102  0.78988520  0.01419838
   0.68109267  0.28988423  0.01419831
   0.65087416  0.71670717  0.96906584
   0.18859390  0.98803917  0.20384669
   0.19959023  0.01328840  0.78526665
   0.83100295  0.95976439  0.82231003
   0.82488161  0.04122060  0.17331333
   0.20728625  0.66022372  0.46903385
   0.28047198  0.19042791  0.51420000
   0.78047116  0.69042506  0.51420008
   0.70728708  0.16022315  0.46903427
   0.33100313  0.45976521  0.82230863
   0.32488038  0.54122088  0.17331150
   0.68859480  0.48803912  0.20384738
   0.69958860  0.51328810  0.78526776
   0.47862552  0.19789273  0.70383835
   0.45038826  0.84037699  0.32231770
   0.50391999  0.20907946  0.28530688
   0.53185408  0.83428422  0.67333635
   0.49179790  0.50080418  0.49833348
   0.49140979  0.00129803  0.99833694
   0.99140962  0.50129879  0.99833666
   0.99179841  0.00080340  0.49833327
   0.12689357  0.87174347  0.60046768
   0.09446236  0.13652109  0.36900406
   0.85495914  0.88962219  0.37864442
   0.88615200  0.12228061  0.63711894
   0.86238078  0.63639361  0.10050640
   0.88022190  0.36447161  0.87863220
   0.12716847  0.60390379  0.86901115
   0.11285294  0.39559265  0.13711499
   0.62716793  0.10390322  0.86901106
   0.61285391  0.89559257  0.13711504
   0.36238141  0.13639276  0.10050719
   0.38022177  0.86447049  0.87863273
   0.59446120  0.63652167  0.36900349
   0.62689427  0.37174475  0.60046671
   0.38615130  0.62228212  0.63711875
   0.35495958  0.38962322  0.37864347
   0.74764156  0.74557298  0.74584962
   0.73620097  0.25702903  0.24583932
   0.23620021  0.75702922  0.24583902
   0.24764245  0.24557338  0.74584984
   0.02355385  0.99515121  0.99379738
   0.98571881  0.53287866  0.49384324
   0.48571898  0.03287976  0.49384339
   0.52355383  0.49514993  0.99379766
Direct configuration=     2
   0.95038904  0.34037546  0.32231782
   0.97862369  0.69788947  0.70383954
   0.15087997  0.21670648  0.96906740
   0.00392012  0.70907779  0.28530580
   0.03185352  0.33427987  0.67333642
   0.18109234  0.78988585  0.01419860
   0.68109400  0.28988489  0.01419853
   0.65087760  0.71670623  0.96906668
   0.18859242  0.98803869  0.20384781
   0.19958955  0.01328941  0.78526615
   0.83100253  0.95976448  0.82230929
   0.82487940  0.04122042  0.17331314
   0.20728548  0.66022767  0.46903493
   0.28047268  0.19042922  0.51420024
   0.78047185  0.69042637  0.51420033
   0.70728631  0.16022710  0.46903536
   0.33100271  0.45976530  0.82230788
   0.32487817  0.54122070  0.17331130
   0.68859332  0.48803864  0.20384850
   0.69958792  0.51328911  0.78526726
   0.47862495  0.19789130  0.70383955
   0.45038840  0.84037678  0.32231699
   0.50392088  0.20907864  0.28530604
   0.53185397  0.83428201  0.67333580
   0.49179749  0.50080536  0.49833364
   0.49141119  0.00129937  0.99833583
   0.99141103  0.50130013  0.99833555
   0.99179800  0.00080457  0.49833343
   0.12688737  0.87174786  0.60046579
   0.09445945  0.13651696  0.36900984
   0.85496479  0.88962550  0.37864714
   0.88615491  0.12227560  0.63711287
   0.86238548  0.63638679  0.10050400
   0.88022543  0.36447691  0.87863471
   0.12716448  0.60390085  0.86901673
   0.11284841  0.39559523  0.13710904
   0.62716394  0.10390029  0.86901664
   0.61284938  0.89559515  0.13710909
   0.36238611  0.13638595  0.10050479
   0.38022530  0.86447579  0.87863525
   0.59445828  0.63651753  0.36900926
   0.62688807  0.37174914  0.60046481
   0.38615421  0.62227711  0.63711269
   0.35496523  0.38962653  0.37864619
   0.74764139  0.74557290  0.74584932
   0.73620087  0.25702892  0.24583906
   0.23620010  0.75702911  0.24583876
   0.24764227  0.24557331  0.74584953
   0.02355339  0.99515183  0.99379731
   0.98571916  0.53287826  0.49384338
   0.48571933  0.03287936  0.49384353
   0.52355337  0.49515054  0.99379759
Direct configuration=     3
   0.95038920  0.34037523  0.32231707
   0.97862308  0.69788796  0.70384080
   0.15088359  0.21670549  0.96906828
   0.00392105  0.70907692  0.28530492
   0.03185339  0.33427755  0.67333584
   0.18109373  0.78988654  0.01419883
   0.68109539  0.28988558  0.01419875
   0.65088122  0.71670524  0.96906756
   0.18859086  0.98803818  0.20384900
   0.19958883  0.01329047  0.78526562
   0.83100209  0.95976458  0.82230850
   0.82487708  0.04122024  0.17331293
   0.20728467  0.66023183  0.46903607
   0.28047341  0.19043060  0.51420050
   0.78047259  0.69042776  0.51420058
   0.70728550  0.16023127  0.46903649
   0.33100226  0.45976540  0.82230709
   0.32487585  0.54122052  0.17331109
   0.68859176  0.48803813  0.20384969
   0.69958720  0.51329018  0.78526673
   0.47862434  0.19788979  0.70384081
   0.45038856  0.84037655  0.32231624
   0.50392181  0.20907778  0.28530516
   0.53185384  0.83427969  0.67333522
   0.49179705  0.50080660  0.49833380
   0.49141266  0.00130078  0.99833466
   0.99141250  0.50130154  0.99833439
   0.99179757  0.00080581  0.49833359
   0.12688085  0.87175249  0.60046379
   0.09445638  0.13651261  0.36901592
   0.85497075  0.88962899  0.37865001
   0.88615797  0.12227032  0.63710648
   0.86239044  0.63637962  0.10050148
   0.88022915  0.36448250  0.87863736
   0.12716027  0.60389776  0.86902261
   0.11284364  0.39559795  0.13710278
   0.62715974  0.10389720  0.86902252
   0.61284461  0.89559787  0.13710282
   0.36239107  0.13637877  0.10050227
   0.38022902  0.86448138  0.87863789
   0.59445522  0.63651318  0.36901534
   0.62688155  0.37175377  0.60046282
   0.38615726  0.62227183  0.63710630
   0.35497118  0.38963001  0.37864906
   0.74764120  0.74557283  0.74584900
   0.73620076  0.25702881  0.24583879
   0.23619999  0.75702900  0.24583849
   0.24764209  0.24557323  0.74584921
   0.02355290  0.99515247  0.99379725
   0.98571954  0.53287784  0.49384353
   0.48571971  0.03287895  0.49384368
   0.52355288  0.49515119  0.99379753
Direct configuration=     4
   0.95038925  0.34037515  0.32231680
   0.97862287  0.69788744  0.70384124
   0.15088485  0.21670515  0.96906859
   0.00392138  0.70907662  0.28530461
   0.03185335  0.33427675  0.67333564
   0.18109422  0.78988678  0.01419891
   0.68109587  0.28988581  0.01419883
   0.65088248  0.71670489  0.96906787
   0.18859031  0.98803800  0.20384941
   0.19958858  0.01329084  0.78526543
   0.83100194  0.95976461  0.82230823
   0.82487627  0.04122017  0.17331286
   0.20728439  0.66023328  0.46903646
   0.28047367  0.19043108  0.51420059
   0.78047284  0.69042824  0.51420067
   0.70728522  0.16023272  0.46903689
   0.33100211  0.45976543  0.82230682
   0.32487504  0.54122045  0.17331102
   0.68859121  0.48803796  0.20385010
   0.69958695  0.51329055  0.78526654
   0.47862413  0.19788927  0.70384125
   0.45038861  0.84037648  0.32231597
   0.50392214  0.20907747  0.28530485
   0.53185380  0.83427889  0.67333502
   0.49179690  0.50080703  0.49833386
   0.49141318  0.00130127  0.99833425
   0.99141302  0.50130203  0.99833398
   0.99179741  0.00080624  0.49833365
   0.12687858  0.87175410  0.60046310
   0.09445531  0.13651110  0.36901804
   0.85497282  0.88963020  0.37865101
   0.88615903  0.12226848  0.63710425
   0.86239216  0.63637712  0.10050060
   0.88023045  0.36448445  0.87863828
   0.12715881  0.60389669  0.86902466
   0.11284198  0.39559889  0.13710059
   0.62715828  0.10389612  0.86902457
   0.61284295  0.89559882  0.13710064
   0.36239279  0.13637627  0.10050139
   0.38023031  0.86448333  0.87863881
   0.59445415  0.63651167  0.36901746
   0.62687927  0.37175538  0.60046212
   0.38615833  0.62226999  0.63710407
   0.35497325  0.38963123  0.37865005
   0.74764114  0.74557280  0.74584889
   0.73620072  0.25702877  0.24583869
   0.23619996  0.75702896  0.24583839
   0.24764202  0.24557320  0.74584910
   0.02355273  0.99515270  0.99379722
   0.98571967  0.53287770  0.49384358
   0.48571984  0.03287880  0.49384373
   0.52355271  0.49515141  0.99379750
Direct configuration=     5
   0.95038929  0.34037509  0.32231660
   0.97862270  0.69788702  0.70384159
   0.15088585  0.21670488  0.96906883
   0.00392164  0.70907638  0.28530437
   0.03185332  0.33427611  0.67333548
   0.18109460  0.78988696  0.01419897
   0.68109625  0.28988600  0.01419890
   0.65088347  0.71670462  0.96906811
   0.18858989  0.98803786  0.20384973
   0.19958838  0.01329113  0.78526528
   0.83100181  0.95976463  0.82230801
   0.82487563  0.04122012  0.17331280
   0.20728417  0.66023443  0.46903677
   0.28047387  0.19043146  0.51420066
   0.78047304  0.69042862  0.51420074
   0.70728500  0.16023386  0.46903720
   0.33100199  0.45976545  0.82230660
   0.32487440  0.54122040  0.17331097
   0.68859079  0.48803782  0.20385043
   0.69958675  0.51329084  0.78526640
   0.47862396  0.19788885  0.70384160
   0.45038866  0.84037641  0.32231577
   0.50392239  0.20907724  0.28530461
   0.53185377  0.83427825  0.67333486
   0.49179678  0.50080737  0.49833390
   0.49141358  0.00130166  0.99833393
   0.99141342  0.50130242  0.99833366
   0.99179729  0.00080658  0.49833369
   0.12687679  0.87175537  0.60046255
   0.09445447  0.13650990  0.36901970
   0.85497445  0.88963116  0.37865180
   0.88615987  0.12226704  0.63710250
   0.86239352  0.63637515  0.10049991
   0.88023147  0.36448598  0.87863900
   0.12715766  0.60389584  0.86902627
   0.11284067  0.39559964  0.13709888
   0.62715712  0.10389528  0.86902618
   0.61284164  0.89559956  0.13709892
   0.36239415  0.13637430  0.10050070
   0.38023133  0.86448486  0.87863954
   0.59445331  0.63651048  0.36901913
   0.62687748  0.37175665  0.60046158
   0.38615917  0.62226855  0.63710232
   0.35497488  0.38963218  0.37865084
   0.74764109  0.74557278  0.74584880
   0.73620069  0.25702874  0.24583862
   0.23619993  0.75702893  0.24583832
   0.24764197  0.24557318  0.74584901
   0.02355260  0.99515287  0.99379720
   0.98571977  0.53287758  0.49384362
   0.48571994  0.03287868  0.49384377
   0.52355258  0.49515159  0.99379748
Direct configuration=     6
   0.95038964  0.34037472  0.32231540
   0.97862204  0.69788509  0.70384321
   0.15089056  0.21670365  0.96906994
   0.00392264  0.70907532  0.28530321
   0.03185293  0.33427301  0.67333482
   0.18109661  0.78988801  0.01419906
   0.68109827  0.28988705  0.01419899
   0.65088819  0.71670340  0.96906922
   0.18858779  0.98803732  0.20385135
   0.19958753  0.01329218  0.78526454
   0.83100119  0.95976477  0.82230689
   0.82487245  0.04121966  0.17331265
   0.20728300  0.66023995  0.46903811
   0.28047483  0.19043340  0.51420075
   0.78047400  0.69043055  0.51420083
   0.70728384  0.16023938  0.46903854
   0.33100137  0.45976559  0.82230549
   0.32487122  0.54121994  0.17331082
   0.68858868  0.48803728  0.20385204
   0.69958589  0.51329189  0.78526565
   0.47862330  0.19788692  0.70384322
   0.45038900  0.84037604  0.32231457
   0.50392340  0.20907617  0.28530345
   0.53185338  0.83427515  0.67333420
   0.49179673  0.50080575  0.49833305
   0.49141277  0.00130035  0.99833320
   0.99141261  0.50130111  0.99833292
   0.99179724  0.00080496  0.49833284
   0.12687391  0.87175591  0.60046459
   0.09445606  0.13651051  0.36902137
   0.85497656  0.88963059  0.37865021
   0.88615754  0.12226682  0.63710221
   0.86239384  0.63637236  0.10050151
   0.88023152  0.36448823  0.87863734
   0.12715912  0.60389825  0.86902687
   0.11284021  0.39559791  0.13709743
   0.62715859  0.10389768  0.86902678
   0.61284118  0.89559784  0.13709748
   0.36239447  0.13637152  0.10050230
   0.38023138  0.86448711  0.87863788
   0.59445489  0.63651108  0.36902079
   0.62687461  0.37175719  0.60046361
   0.38615683  0.62226833  0.63710203
   0.35497699  0.38963161  0.37864925
   0.74764095  0.74557265  0.74584857
   0.73620044  0.25702870  0.24583838
   0.23619968  0.75702888  0.24583809
   0.24764184  0.24557305  0.74584878
   0.02355355  0.99515350  0.99379722
   0.98572012  0.53287856  0.49384390
   0.48572029  0.03287967  0.49384404
   0.52355353  0.49515222  0.99379750
