  52  52   0  16
  0.1758693E+02  0.9706541E-09  0.9706541E-09  0.9706541E-09  0.2000000E-15
  1.000000000000000E-004
  CAR 
 unknown system                          
     12.46390158    -45.20836106  301      1.93871364      1.00000000
    -45.208  0.0000E+00  0.0000E+00  0.0000E+00  0.0000E+00
    -45.016  0.0000E+00  0.0000E+00  0.0000E+00  0.0000E+00
    -44.824  0.0000E+00  0.0000E+00  0.0000E+00  0.0000E+00
    -44.632  0.0000E+00  0.0000E+00  0.0000E+00  0.0000E+00
    -44.439  0.0000E+00  0.0000E+00  0.0000E+00  0.0000E+00
    -44.247  0.0000E+00  0.0000E+00  0.0000E+00  0.0000E+00
    -44.055  0.0000E+00  0.0000E+00  0.0000E+00  0.0000E+00
    -43.863  0.0000E+00  0.0000E+00  0.0000E+00  0.0000E+00
    -43.670  0.0000E+00  0.0000E+00  0.0000E+00  0.0000E+00
    -43.478  0.0000E+00  0.0000E+00  0.0000E+00  0.0000E+00
    -43.286  0.0000E+00  0.0000E+00  0.0000E+00  0.0000E+00
    -43.094  0.0000E+00  0.0000E+00  0.0000E+00  0.0000E+00
    -42.901  0.0000E+00  0.0000E+00  0.0000E+00  0.0000E+00
    -42.709  0.2218E-10  0.2218E-10  0.4264E-11  0.4264E-11
    -42.517  0.3328E-01  0.3328E-01  0.6399E-02  0.6399E-02
    -42.325  0.9133E-01  0.9133E-01  0.2396E-01  0.2396E-01
    -42.133  0.1569E-03  0.1569E-03  0.2400E-01  0.2400E-01
    -41.940  0.0000E+00  0.0000E+00  0.2400E-01  0.2400E-01
    -41.748  0.0000E+00  0.0000E+00  0.2400E-01  0.2400E-01
    -41.556  0.0000E+00  0.0000E+00  0.2400E-01  0.2400E-01
    -41.364  0.0000E+00  0.0000E+00  0.2400E-01  0.2400E-01
    -41.171  0.0000E+00  0.0000E+00  0.2400E-01  0.2400E-01
    -40.979  0.0000E+00  0.0000E+00  0.2400E-01  0.2400E-01
    -40.787  0.0000E+00  0.0000E+00  0.2400E-01  0.2400E-01
    -40.595  0.0000E+00  0.0000E+00  0.2400E-01  0.2400E-01
    -40.402  0.0000E+00  0.0000E+00  0.2400E-01  0.2400E-01
    -40.210  0.0000E+00  0.0000E+00  0.2400E-01  0.2400E-01
    -40.018  0.0000E+00  0.0000E+00  0.2400E-01  0.2400E-01
    -39.826  0.0000E+00  0.0000E+00  0.2400E-01  0.2400E-01
    -39.633  0.0000E+00  0.0000E+00  0.2400E-01  0.2400E-01
    -39.441  0.0000E+00  0.0000E+00  0.2400E-01  0.2400E-01
    -39.249  0.0000E+00  0.0000E+00  0.2400E-01  0.2400E-01
    -39.057  0.0000E+00  0.0000E+00  0.2400E-01  0.2400E-01
    -38.864  0.0000E+00  0.0000E+00  0.2400E-01  0.2400E-01
    -38.672  0.0000E+00  0.0000E+00  0.2400E-01  0.2400E-01
    -38.480  0.0000E+00  0.0000E+00  0.2400E-01  0.2400E-01
    -38.288  0.0000E+00  0.0000E+00  0.2400E-01  0.2400E-01
    -38.095  0.0000E+00  0.0000E+00  0.2400E-01  0.2400E-01
    -37.903  0.0000E+00  0.0000E+00  0.2400E-01  0.2400E-01
    -37.711  0.0000E+00  0.0000E+00  0.2400E-01  0.2400E-01
    -37.519  0.0000E+00  0.0000E+00  0.2400E-01  0.2400E-01
    -37.326  0.0000E+00  0.0000E+00  0.2400E-01  0.2400E-01
    -37.134  0.0000E+00  0.0000E+00  0.2400E-01  0.2400E-01
    -36.942  0.0000E+00  0.0000E+00  0.2400E-01  0.2400E-01
    -36.750  0.0000E+00  0.0000E+00  0.2400E-01  0.2400E-01
    -36.558  0.0000E+00  0.0000E+00  0.2400E-01  0.2400E-01
    -36.365  0.0000E+00  0.0000E+00  0.2400E-01  0.2400E-01
    -36.173  0.0000E+00  0.0000E+00  0.2400E-01  0.2400E-01
    -35.981  0.0000E+00  0.0000E+00  0.2400E-01  0.2400E-01
    -35.789  0.0000E+00  0.0000E+00  0.2400E-01  0.2400E-01
    -35.596  0.0000E+00  0.0000E+00  0.2400E-01  0.2400E-01
    -35.404  0.0000E+00  0.0000E+00  0.2400E-01  0.2400E-01
    -35.212  0.0000E+00  0.0000E+00  0.2400E-01  0.2400E-01
    -35.020  0.0000E+00  0.0000E+00  0.2400E-01  0.2400E-01
    -34.827  0.0000E+00  0.0000E+00  0.2400E-01  0.2400E-01
    -34.635  0.0000E+00  0.0000E+00  0.2400E-01  0.2400E-01
    -34.443  0.0000E+00  0.0000E+00  0.2400E-01  0.2400E-01
    -34.251  0.0000E+00  0.0000E+00  0.2400E-01  0.2400E-01
    -34.058  0.0000E+00  0.0000E+00  0.2400E-01  0.2400E-01
    -33.866  0.0000E+00  0.0000E+00  0.2400E-01  0.2400E-01
    -33.674  0.0000E+00  0.0000E+00  0.2400E-01  0.2400E-01
    -33.482  0.0000E+00  0.0000E+00  0.2400E-01  0.2400E-01
    -33.289  0.0000E+00  0.0000E+00  0.2400E-01  0.2400E-01
    -33.097  0.0000E+00  0.0000E+00  0.2400E-01  0.2400E-01
    -32.905  0.0000E+00  0.0000E+00  0.2400E-01  0.2400E-01
    -32.713  0.0000E+00  0.0000E+00  0.2400E-01  0.2400E-01
    -32.520  0.0000E+00  0.0000E+00  0.2400E-01  0.2400E-01
    -32.328  0.0000E+00  0.0000E+00  0.2400E-01  0.2400E-01
    -32.136  0.0000E+00  0.0000E+00  0.2400E-01  0.2400E-01
    -31.944  0.0000E+00  0.0000E+00  0.2400E-01  0.2400E-01
    -31.751  0.0000E+00  0.0000E+00  0.2400E-01  0.2400E-01
    -31.559  0.0000E+00  0.0000E+00  0.2400E-01  0.2400E-01
    -31.367  0.0000E+00  0.0000E+00  0.2400E-01  0.2400E-01
    -31.175  0.0000E+00  0.0000E+00  0.2400E-01  0.2400E-01
    -30.983  0.0000E+00  0.0000E+00  0.2400E-01  0.2400E-01
    -30.790  0.0000E+00  0.0000E+00  0.2400E-01  0.2400E-01
    -30.598  0.0000E+00  0.0000E+00  0.2400E-01  0.2400E-01
    -30.406  0.0000E+00  0.0000E+00  0.2400E-01  0.2400E-01
    -30.214  0.0000E+00  0.0000E+00  0.2400E-01  0.2400E-01
    -30.021  0.0000E+00  0.0000E+00  0.2400E-01  0.2400E-01
    -29.829  0.0000E+00  0.0000E+00  0.2400E-01  0.2400E-01
    -29.637  0.0000E+00  0.0000E+00  0.2400E-01  0.2400E-01
    -29.445  0.0000E+00  0.0000E+00  0.2400E-01  0.2400E-01
    -29.252  0.0000E+00  0.0000E+00  0.2400E-01  0.2400E-01
    -29.060  0.0000E+00  0.0000E+00  0.2400E-01  0.2400E-01
    -28.868  0.0000E+00  0.0000E+00  0.2400E-01  0.2400E-01
    -28.676  0.0000E+00  0.0000E+00  0.2400E-01  0.2400E-01
    -28.483  0.0000E+00  0.0000E+00  0.2400E-01  0.2400E-01
    -28.291  0.0000E+00  0.0000E+00  0.2400E-01  0.2400E-01
    -28.099  0.0000E+00  0.0000E+00  0.2400E-01  0.2400E-01
    -27.907  0.0000E+00  0.0000E+00  0.2400E-01  0.2400E-01
    -27.714  0.0000E+00  0.0000E+00  0.2400E-01  0.2400E-01
    -27.522  0.0000E+00  0.0000E+00  0.2400E-01  0.2400E-01
    -27.330  0.0000E+00  0.0000E+00  0.2400E-01  0.2400E-01
    -27.138  0.0000E+00  0.0000E+00  0.2400E-01  0.2400E-01
    -26.945  0.0000E+00  0.0000E+00  0.2400E-01  0.2400E-01
    -26.753  0.0000E+00  0.0000E+00  0.2400E-01  0.2400E-01
    -26.561  0.0000E+00  0.0000E+00  0.2400E-01  0.2400E-01
    -26.369  0.0000E+00  0.0000E+00  0.2400E-01  0.2400E-01
    -26.177  0.0000E+00  0.0000E+00  0.2400E-01  0.2400E-01
    -25.984  0.0000E+00  0.0000E+00  0.2400E-01  0.2400E-01
    -25.792  0.0000E+00  0.0000E+00  0.2400E-01  0.2400E-01
    -25.600  0.0000E+00  0.0000E+00  0.2400E-01  0.2400E-01
    -25.408  0.0000E+00  0.0000E+00  0.2400E-01  0.2400E-01
    -25.215  0.0000E+00  0.0000E+00  0.2400E-01  0.2400E-01
    -25.023  0.0000E+00  0.0000E+00  0.2400E-01  0.2400E-01
    -24.831  0.0000E+00  0.0000E+00  0.2400E-01  0.2400E-01
    -24.639  0.0000E+00  0.0000E+00  0.2400E-01  0.2400E-01
    -24.446  0.0000E+00  0.0000E+00  0.2400E-01  0.2400E-01
    -24.254  0.0000E+00  0.0000E+00  0.2400E-01  0.2400E-01
    -24.062  0.0000E+00  0.0000E+00  0.2400E-01  0.2400E-01
    -23.870  0.0000E+00  0.0000E+00  0.2400E-01  0.2400E-01
    -23.677  0.0000E+00  0.0000E+00  0.2400E-01  0.2400E-01
    -23.485  0.0000E+00  0.0000E+00  0.2400E-01  0.2400E-01
    -23.293  0.0000E+00  0.0000E+00  0.2400E-01  0.2400E-01
    -23.101  0.0000E+00  0.0000E+00  0.2400E-01  0.2400E-01
    -22.908  0.0000E+00  0.0000E+00  0.2400E-01  0.2400E-01
    -22.716  0.0000E+00  0.0000E+00  0.2400E-01  0.2400E-01
    -22.524  0.0000E+00  0.0000E+00  0.2400E-01  0.2400E-01
    -22.332  0.0000E+00  0.0000E+00  0.2400E-01  0.2400E-01
    -22.139  0.0000E+00  0.0000E+00  0.2400E-01  0.2400E-01
    -21.947  0.0000E+00  0.0000E+00  0.2400E-01  0.2400E-01
    -21.755  0.0000E+00  0.0000E+00  0.2400E-01  0.2400E-01
    -21.563  0.0000E+00  0.0000E+00  0.2400E-01  0.2400E-01
    -21.370  0.0000E+00  0.0000E+00  0.2400E-01  0.2400E-01
    -21.178  0.0000E+00  0.0000E+00  0.2400E-01  0.2400E-01
    -20.986  0.0000E+00  0.0000E+00  0.2400E-01  0.2400E-01
    -20.794  0.0000E+00  0.0000E+00  0.2400E-01  0.2400E-01
    -20.602  0.0000E+00  0.0000E+00  0.2400E-01  0.2400E-01
    -20.409  0.0000E+00  0.0000E+00  0.2400E-01  0.2400E-01
    -20.217  0.0000E+00  0.0000E+00  0.2400E-01  0.2400E-01
    -20.025  0.0000E+00  0.0000E+00  0.2400E-01  0.2400E-01
    -19.833  0.0000E+00  0.0000E+00  0.2400E-01  0.2400E-01
    -19.640  0.0000E+00  0.0000E+00  0.2400E-01  0.2400E-01
    -19.448  0.0000E+00  0.0000E+00  0.2400E-01  0.2400E-01
    -19.256  0.0000E+00  0.0000E+00  0.2400E-01  0.2400E-01
    -19.064  0.0000E+00  0.0000E+00  0.2400E-01  0.2400E-01
    -18.871  0.0000E+00  0.0000E+00  0.2400E-01  0.2400E-01
    -18.679  0.0000E+00  0.0000E+00  0.2400E-01  0.2400E-01
    -18.487  0.0000E+00  0.0000E+00  0.2400E-01  0.2400E-01
    -18.295  0.0000E+00  0.0000E+00  0.2400E-01  0.2400E-01
    -18.102  0.0000E+00  0.0000E+00  0.2400E-01  0.2400E-01
    -17.910  0.0000E+00  0.0000E+00  0.2400E-01  0.2400E-01
    -17.718  0.0000E+00  0.0000E+00  0.2400E-01  0.2400E-01
    -17.526  0.0000E+00  0.0000E+00  0.2400E-01  0.2400E-01
    -17.333  0.0000E+00  0.0000E+00  0.2400E-01  0.2400E-01
    -17.141  0.0000E+00  0.0000E+00  0.2400E-01  0.2400E-01
    -16.949  0.0000E+00  0.0000E+00  0.2400E-01  0.2400E-01
    -16.757  0.0000E+00  0.0000E+00  0.2400E-01  0.2400E-01
    -16.564  0.0000E+00  0.0000E+00  0.2400E-01  0.2400E-01
    -16.372  0.0000E+00  0.0000E+00  0.2400E-01  0.2400E-01
    -16.180  0.0000E+00  0.0000E+00  0.2400E-01  0.2400E-01
    -15.988  0.0000E+00  0.0000E+00  0.2400E-01  0.2400E-01
    -15.796  0.0000E+00  0.0000E+00  0.2400E-01  0.2400E-01
    -15.603  0.0000E+00  0.0000E+00  0.2400E-01  0.2400E-01
    -15.411  0.0000E+00  0.0000E+00  0.2400E-01  0.2400E-01
    -15.219  0.0000E+00  0.0000E+00  0.2400E-01  0.2400E-01
    -15.027  0.0000E+00  0.0000E+00  0.2400E-01  0.2400E-01
    -14.834  0.0000E+00  0.0000E+00  0.2400E-01  0.2400E-01
    -14.642  0.0000E+00  0.0000E+00  0.2400E-01  0.2400E-01
    -14.450  0.0000E+00  0.0000E+00  0.2400E-01  0.2400E-01
    -14.258  0.0000E+00  0.0000E+00  0.2400E-01  0.2400E-01
    -14.065  0.0000E+00  0.0000E+00  0.2400E-01  0.2400E-01
    -13.873  0.0000E+00  0.0000E+00  0.2400E-01  0.2400E-01
    -13.681  0.0000E+00  0.0000E+00  0.2400E-01  0.2400E-01
    -13.489  0.0000E+00  0.0000E+00  0.2400E-01  0.2400E-01
    -13.296  0.1528E-08  0.1528E-08  0.2400E-01  0.2400E-01
    -13.104  0.1595E-01  0.1595E-01  0.2707E-01  0.2707E-01
    -12.912  0.4859E-02  0.4859E-02  0.2800E-01  0.2800E-01
    -12.720  0.7189E-07  0.7189E-07  0.2800E-01  0.2800E-01
    -12.527  0.6343E-02  0.6343E-02  0.2922E-01  0.2922E-01
    -12.335  0.1446E-01  0.1446E-01  0.3200E-01  0.3200E-01
    -12.143  0.0000E+00  0.0000E+00  0.3200E-01  0.3200E-01
    -11.951  0.0000E+00  0.0000E+00  0.3200E-01  0.3200E-01
    -11.758  0.0000E+00  0.0000E+00  0.3200E-01  0.3200E-01
    -11.566  0.0000E+00  0.0000E+00  0.3200E-01  0.3200E-01
    -11.374  0.0000E+00  0.0000E+00  0.3200E-01  0.3200E-01
    -11.182  0.0000E+00  0.0000E+00  0.3200E-01  0.3200E-01
    -10.989  0.0000E+00  0.0000E+00  0.3200E-01  0.3200E-01
    -10.797  0.0000E+00  0.0000E+00  0.3200E-01  0.3200E-01
    -10.605  0.0000E+00  0.0000E+00  0.3200E-01  0.3200E-01
    -10.413  0.1727E-02  0.1727E-02  0.3233E-01  0.3233E-01
    -10.221  0.1761E-01  0.1761E-01  0.3572E-01  0.3572E-01
    -10.028  0.4193E-01  0.4193E-01  0.4378E-01  0.4378E-01
     -9.836  0.1150E-02  0.1150E-02  0.4400E-01  0.4400E-01
     -9.644  0.0000E+00  0.0000E+00  0.4400E-01  0.4400E-01
     -9.452  0.0000E+00  0.0000E+00  0.4400E-01  0.4400E-01
     -9.259  0.0000E+00  0.0000E+00  0.4400E-01  0.4400E-01
     -9.067  0.0000E+00  0.0000E+00  0.4400E-01  0.4400E-01
     -8.875  0.0000E+00  0.0000E+00  0.4400E-01  0.4400E-01
     -8.683  0.3762E-13  0.3762E-13  0.4400E-01  0.4400E-01
     -8.490  0.5259E-02  0.5259E-02  0.4501E-01  0.4501E-01
     -8.298  0.1549E-01  0.1549E-01  0.4800E-01  0.4800E-01
     -8.106  0.0000E+00  0.0000E+00  0.4800E-01  0.4800E-01
     -7.914  0.0000E+00  0.0000E+00  0.4800E-01  0.4800E-01
     -7.721  0.0000E+00  0.0000E+00  0.4800E-01  0.4800E-01
     -7.529  0.0000E+00  0.0000E+00  0.4800E-01  0.4800E-01
     -7.337  0.0000E+00  0.0000E+00  0.4800E-01  0.4800E-01
     -7.145  0.0000E+00  0.0000E+00  0.4800E-01  0.4800E-01
     -6.952  0.0000E+00  0.0000E+00  0.4800E-01  0.4800E-01
     -6.760  0.0000E+00  0.0000E+00  0.4800E-01  0.4800E-01
     -6.568  0.0000E+00  0.0000E+00  0.4800E-01  0.4800E-01
     -6.376  0.1232E-11  0.1232E-11  0.4800E-01  0.4800E-01
     -6.183  0.5162E-02  0.5162E-02  0.4899E-01  0.4899E-01
     -5.991  0.3345E-04  0.3345E-04  0.4900E-01  0.4900E-01
     -5.799  0.8538E-02  0.8538E-02  0.5064E-01  0.5064E-01
     -5.607  0.7044E-02  0.7044E-02  0.5200E-01  0.5200E-01
     -5.414  0.0000E+00  0.0000E+00  0.5200E-01  0.5200E-01
     -5.222  0.0000E+00  0.0000E+00  0.5200E-01  0.5200E-01
     -5.030  0.0000E+00  0.0000E+00  0.5200E-01  0.5200E-01
     -4.838  0.0000E+00  0.0000E+00  0.5200E-01  0.5200E-01
     -4.646  0.0000E+00  0.0000E+00  0.5200E-01  0.5200E-01
     -4.453  0.0000E+00  0.0000E+00  0.5200E-01  0.5200E-01
     -4.261  0.0000E+00  0.0000E+00  0.5200E-01  0.5200E-01
     -4.069  0.0000E+00  0.0000E+00  0.5200E-01  0.5200E-01
     -3.877  0.0000E+00  0.0000E+00  0.5200E-01  0.5200E-01
     -3.684  0.0000E+00  0.0000E+00  0.5200E-01  0.5200E-01
     -3.492  0.9352E-15  0.9352E-15  0.5200E-01  0.5200E-01
     -3.300  0.1012E-01  0.1012E-01  0.5395E-01  0.5395E-01
     -3.108  0.5485E-02  0.5485E-02  0.5500E-01  0.5500E-01
     -2.915  0.4826E-02  0.4826E-02  0.5593E-01  0.5593E-01
     -2.723  0.1018E-01  0.1018E-01  0.5789E-01  0.5789E-01
     -2.531  0.2099E-01  0.2099E-01  0.6192E-01  0.6192E-01
     -2.339  0.1077E-01  0.1077E-01  0.6400E-01  0.6400E-01
     -2.146  0.0000E+00  0.0000E+00  0.6400E-01  0.6400E-01
     -1.954  0.0000E+00  0.0000E+00  0.6400E-01  0.6400E-01
     -1.762  0.0000E+00  0.0000E+00  0.6400E-01  0.6400E-01
     -1.570  0.6959E-05  0.6959E-05  0.6400E-01  0.6400E-01
     -1.377  0.8701E-02  0.8701E-02  0.6567E-01  0.6567E-01
     -1.185  0.3291E-01  0.3291E-01  0.7200E-01  0.7200E-01
     -0.993  0.2080E-01  0.2080E-01  0.7600E-01  0.7600E-01
     -0.801  0.0000E+00  0.0000E+00  0.7600E-01  0.7600E-01
     -0.608  0.6166E-02  0.6166E-02  0.7719E-01  0.7719E-01
     -0.416  0.1127E-01  0.1127E-01  0.7935E-01  0.7935E-01
     -0.224  0.1227E-01  0.1227E-01  0.8171E-01  0.8171E-01
     -0.032  0.3429E-01  0.3429E-01  0.8830E-01  0.8830E-01
      0.160  0.2600E-01  0.2600E-01  0.9330E-01  0.9330E-01
      0.353  0.1404E-01  0.1404E-01  0.9600E-01  0.9600E-01
      0.545  0.2024E-04  0.2024E-04  0.9600E-01  0.9600E-01
      0.737  0.1540E-01  0.1540E-01  0.9896E-01  0.9896E-01
      0.929  0.2492E-01  0.2492E-01  0.1038E+00  0.1038E+00
      1.122  0.1937E-01  0.1937E-01  0.1075E+00  0.1075E+00
      1.314  0.3189E-01  0.3189E-01  0.1136E+00  0.1136E+00
      1.506  0.2586E-01  0.2586E-01  0.1186E+00  0.1186E+00
      1.698  0.7220E-02  0.7220E-02  0.1200E+00  0.1200E+00
      1.891  0.1419E-03  0.1419E-03  0.1200E+00  0.1200E+00
      2.083  0.0000E+00  0.0000E+00  0.1200E+00  0.1200E+00
      2.275  0.0000E+00  0.0000E+00  0.1200E+00  0.1200E+00
      2.467  0.0000E+00  0.0000E+00  0.1200E+00  0.1200E+00
      2.660  0.0000E+00  0.0000E+00  0.1200E+00  0.1200E+00
      2.852  0.0000E+00  0.0000E+00  0.1200E+00  0.1200E+00
      3.044  0.0000E+00  0.0000E+00  0.1200E+00  0.1200E+00
      3.236  0.0000E+00  0.0000E+00  0.1200E+00  0.1200E+00
      3.429  0.0000E+00  0.0000E+00  0.1200E+00  0.1200E+00
      3.621  0.0000E+00  0.0000E+00  0.1200E+00  0.1200E+00
      3.813  0.0000E+00  0.0000E+00  0.1200E+00  0.1200E+00
      4.005  0.0000E+00  0.0000E+00  0.1200E+00  0.1200E+00
      4.198  0.7173E-05  0.7173E-05  0.1200E+00  0.1200E+00
      4.390  0.5194E-02  0.5194E-02  0.1210E+00  0.1210E+00
      4.582  0.0000E+00  0.0000E+00  0.1210E+00  0.1210E+00
      4.774  0.0000E+00  0.0000E+00  0.1210E+00  0.1210E+00
      4.967  0.1452E-12  0.1452E-12  0.1210E+00  0.1210E+00
      5.159  0.7545E-02  0.7545E-02  0.1225E+00  0.1225E+00
      5.351  0.8056E-02  0.8056E-02  0.1240E+00  0.1240E+00
      5.543  0.0000E+00  0.0000E+00  0.1240E+00  0.1240E+00
      5.735  0.1120E-02  0.1120E-02  0.1242E+00  0.1242E+00
      5.928  0.1430E-01  0.1430E-01  0.1270E+00  0.1270E+00
      6.120  0.1274E-01  0.1274E-01  0.1294E+00  0.1294E+00
      6.312  0.4502E-02  0.4502E-02  0.1303E+00  0.1303E+00
      6.504  0.1239E-01  0.1239E-01  0.1327E+00  0.1327E+00
      6.697  0.9009E-02  0.9009E-02  0.1344E+00  0.1344E+00
      6.889  0.8416E-02  0.8416E-02  0.1360E+00  0.1360E+00
      7.081  0.5122E-02  0.5122E-02  0.1370E+00  0.1370E+00
      7.273  0.4865E-02  0.4865E-02  0.1379E+00  0.1379E+00
      7.466  0.7803E-02  0.7803E-02  0.1394E+00  0.1394E+00
      7.658  0.1253E-01  0.1253E-01  0.1418E+00  0.1418E+00
      7.850  0.1242E-01  0.1242E-01  0.1442E+00  0.1442E+00
      8.042  0.1171E-01  0.1171E-01  0.1465E+00  0.1465E+00
      8.235  0.1559E-01  0.1559E-01  0.1495E+00  0.1495E+00
      8.427  0.1317E-01  0.1317E-01  0.1520E+00  0.1520E+00
      8.619  0.1674E-01  0.1674E-01  0.1552E+00  0.1552E+00
      8.811  0.1629E-01  0.1629E-01  0.1584E+00  0.1584E+00
      9.004  0.1976E-01  0.1976E-01  0.1622E+00  0.1622E+00
      9.196  0.1581E-01  0.1581E-01  0.1652E+00  0.1652E+00
      9.388  0.1720E-01  0.1720E-01  0.1685E+00  0.1685E+00
      9.580  0.2020E-01  0.2016E-01  0.1724E+00  0.1724E+00
      9.773  0.1461E-01  0.1496E-01  0.1752E+00  0.1753E+00
      9.965  0.4035E-02  0.3730E-02  0.1760E+00  0.1760E+00
     10.157  0.0000E+00  0.0000E+00  0.1760E+00  0.1760E+00
     10.349  0.0000E+00  0.0000E+00  0.1760E+00  0.1760E+00
     10.541  0.0000E+00  0.0000E+00  0.1760E+00  0.1760E+00
     10.734  0.0000E+00  0.0000E+00  0.1760E+00  0.1760E+00
     10.926  0.0000E+00  0.0000E+00  0.1760E+00  0.1760E+00
     11.118  0.0000E+00  0.0000E+00  0.1760E+00  0.1760E+00
     11.310  0.0000E+00  0.0000E+00  0.1760E+00  0.1760E+00
     11.503  0.0000E+00  0.0000E+00  0.1760E+00  0.1760E+00
     11.695  0.0000E+00  0.0000E+00  0.1760E+00  0.1760E+00
     11.887  0.0000E+00  0.0000E+00  0.1760E+00  0.1760E+00
     12.079  0.0000E+00  0.0000E+00  0.1760E+00  0.1760E+00
     12.272  0.0000E+00  0.0000E+00  0.1760E+00  0.1760E+00
     12.464  0.0000E+00  0.0000E+00  0.1760E+00  0.1760E+00
