 vasp.6.4.1 05Apr23 (build Jun 07 2023 15:38:11) complex                        
  
 executed on             LinuxIFC date 2023.10.20  08:23:55
 running  128 mpi-ranks, with    1 threads/rank, on    1 nodes
 distrk:  each k-point on  128 cores,    1 groups
 distr:  one band on NCORE=  32 cores,    4 groups


--------------------------------------------------------------------------------------------------------


 INCAR:
   GGA = PE
   PREC = Accu
   EDIFF = 1.e-6
   EDIFFG = -1.e-3
   ENCUT = 520.
   NELM = 100
   NELMDL = -10
   LASPH = .TRUE.
   LREAL = Auto
   LMAXMIX = 4
   ISPIN = 2
   LDIAG = .TRUE.
   LPLANE = .TRUE.
   IVDW = 12
   SIGMA = 0.03
   ISMEAR = 0
   NSW = 1000    number of steps for IOM
   IBRION = 2    ionic relax: 0-MD 1-quasi-New 2-CG
   ISIF = 2    ionic relaxation + stress tensor calcn.
   LCHARG = .FALSE.
   LWAVE = .FALSE.
   ALGO = F
   KPAR = 1
   NPAR = 4
   POTIM = 0.2

 POTCAR:    PAW_PBE Li_sv_GW 25Mar2010            
 POTCAR:    PAW_PBE P_GW 19Mar2012                
 POTCAR:    PAW_PBE S_GW 19Mar2012                
 POTCAR:    PAW_PBE Cl_GW 19Mar2012               
 -----------------------------------------------------------------------------
|                                                                             |
|           W    W    AA    RRRRR   N    N  II  N    N   GGGG   !!!           |
|           W    W   A  A   R    R  NN   N  II  NN   N  G    G  !!!           |
|           W    W  A    A  R    R  N N  N  II  N N  N  G       !!!           |
|           W WW W  AAAAAA  RRRRR   N  N N  II  N  N N  G  GGG   !            |
|           WW  WW  A    A  R   R   N   NN  II  N   NN  G    G                |
|           W    W  A    A  R    R  N    N  II  N    N   GGGG   !!!           |
|                                                                             |
|     You use a magnetic or noncollinear calculation, but did not specify     |
|     the initial magnetic moment with the MAGMOM tag. Note that a            |
|     default of 1 will be used for all atoms. This ferromagnetic setup       |
|     may break the symmetry of the crystal, in particular it may rule        |
|     out finding an antiferromagnetic solution. Thence, we recommend         |
|     setting the initial magnetic moment manually or verifying carefully     |
|     that this magnetic setup is desired.                                    |
|                                                                             |
 -----------------------------------------------------------------------------

 POTCAR:    PAW_PBE Li_sv_GW 25Mar2010            
   SHA256 =  24a6ace15a582615486b36ce4dc781b048409f4015b7684ed1273ae395fa2fdc Li_sv_GW/POTCAR       
   COPYR  = (c) Copyright 25Mar2010 Georg Kresse                                                    
   COPYR  = This file is part of the software VASP. Any use, copying, and all other rights are regul
   COPYR  = If you do not have a valid VASP license, you may not use, copy or distribute this file. 
   VRHFIN =Li: 1s2s                                                                                 
   LEXCH  = PE                                                                                      
   EATOM  =   200.9989 eV,   14.7730 Ry                                                             
                                                                                                    
   TITEL  = PAW_PBE Li_sv_GW 25Mar2010                                                              
   LULTRA =        F    use ultrasoft PP ?                                                          
   IUNSCR =        0    unscreen: 0-lin 1-nonlin 2-no                                               
   RPACOR =    0.000    partial core radius                                                         
   POMASS =    7.010; ZVAL   =    3.000    mass and valenz                                          
   RCORE  =    1.500    outmost cutoff radius                                                       
   RWIGS  =    1.600; RWIGS  =    0.847    wigner-seitz radius (au A)                               
   ENMAX  =  433.699; ENMIN  =  325.274 eV                                                          
   RCLOC  =    1.003    cutoff for local pot                                                        
   LCOR   =        T    correct aug charges                                                         
   LPAW   =        T    paw PP                                                                      
   EAUG   = 1041.699                                                                                
   RMAX   =    1.536    core radius for proj-oper                                                   
   RAUG   =    1.300    factor for augmentation sphere                                              
   RDEP   =    1.520    radius for radial grids                                                     
   RDEPT  =    1.300    core radius for aug-charge                                                  
                                                                                                    
   Atomic configuration                                                                             
    4 entries                                                                                       
     n  l   j            E        occ.                                                              
     1  0  0.50       -53.3604   2.0000                                                             
     1  0  0.50       -52.0001   0.0000                                                             
     2  1  0.50        -1.5636   1.0000                                                             
     3  2  1.50        -1.3606   0.0000                                                             
   Description                                                                                      
     l       E           TYP  RCUT    TYP  RCUT                                                     
     0    -53.3603633     23  1.200                                                                 
     0    -52.0001064     23  1.200                                                                 
     0    176.8757380     23  1.300                                                                 
     1     -1.5635925     23  1.500                                                                 
     1    108.8466080     23  1.500                                                                 
     2     81.6349560     23  1.500                                                                 
  local pseudopotential read in
  kinetic energy density of atom read in
  atomic valenz-charges read in
  non local Contribution for L=           0  read in
    real space projection operators read in
  non local Contribution for L=           0  read in
    real space projection operators read in
  non local Contribution for L=           0  read in
    real space projection operators read in
  non local Contribution for L=           1  read in
    real space projection operators read in
  non local Contribution for L=           1  read in
    real space projection operators read in
  non local Contribution for L=           2  read in
    real space projection operators read in
    PAW grid and wavefunctions read in
 
   number of l-projection  operators is LMAX  =           6
   number of lm-projection operators is LMMAX =          14
 
 POTCAR:    PAW_PBE P_GW 19Mar2012                
   SHA256 =  715c28f2291d37b61637ce89646c59f66f71c8b8d8bfba631e5feb9f7b42defe P_GW/POTCAR           
   COPYR  = (c) Copyright 19Mar2012 Georg Kresse                                                    
   COPYR  = This file is part of the software VASP. Any use, copying, and all other rights are regul
   COPYR  = If you do not have a valid VASP license, you may not use, copy or distribute this file. 
   VRHFIN =P : s2p3                                                                                 
   LEXCH  = PE                                                                                      
   EATOM  =   176.0430 eV,   12.9388 Ry                                                             
                                                                                                    
   TITEL  = PAW_PBE P_GW 19Mar2012                                                                  
   LULTRA =        F    use ultrasoft PP ?                                                          
   IUNSCR =        1    unscreen: 0-lin 1-nonlin 2-no                                               
   RPACOR =    1.400    partial core radius                                                         
   POMASS =   30.974; ZVAL   =    5.000    mass and valenz                                          
   RCORE  =    2.000    outmost cutoff radius                                                       
   RWIGS  =    1.900; RWIGS  =    1.005    wigner-seitz radius (au A)                               
   ENMAX  =  255.040; ENMIN  =  191.280 eV                                                          
   ICORE  =        3    local potential                                                             
   LCOR   =        T    correct aug charges                                                         
   LPAW   =        T    paw PP                                                                      
   EAUG   =  499.732                                                                                
   DEXC   =    0.000                                                                                
   RMAX   =    2.047    core radius for proj-oper                                                   
   RAUG   =    1.300    factor for augmentation sphere                                              
   RDEP   =    2.059    radius for radial grids                                                     
   RDEPT  =    1.900    core radius for aug-charge                                                  
                                                                                                    
   Atomic configuration                                                                             
    7 entries                                                                                       
     n  l   j            E        occ.                                                              
     1  0  0.50     -2084.0982   2.0000                                                             
     2  0  0.50      -173.9859   2.0000                                                             
     2  1  1.50      -124.4865   6.0000                                                             
     3  0  0.50       -13.9692   2.0000                                                             
     3  1  0.50        -5.5067   3.0000                                                             
     3  2  1.50        -6.8029   0.0000                                                             
     4  3  2.50        -1.3606   0.0000                                                             
   Description                                                                                      
     l       E           TYP  RCUT    TYP  RCUT                                                     
     0    -13.9691528     23  1.900                                                                 
     0    102.0436950     23  1.900                                                                 
     1     -5.5066939     23  1.900                                                                 
     1    102.0436950     23  1.900                                                                 
     2     -8.1634956     23  2.000                                                                 
     2     81.6349560     23  2.000                                                                 
     3     27.2116520     23  2.000                                                                 
  local pseudopotential read in
  partial core-charges read in
  partial kinetic energy density read in
  kinetic energy density of atom read in
  atomic valenz-charges read in
  non local Contribution for L=           0  read in
    real space projection operators read in
  non local Contribution for L=           0  read in
    real space projection operators read in
  non local Contribution for L=           1  read in
    real space projection operators read in
  non local Contribution for L=           1  read in
    real space projection operators read in
  non local Contribution for L=           2  read in
    real space projection operators read in
  non local Contribution for L=           2  read in
    real space projection operators read in
    PAW grid and wavefunctions read in
 
   number of l-projection  operators is LMAX  =           6
   number of lm-projection operators is LMMAX =          18
 
 POTCAR:    PAW_PBE S_GW 19Mar2012                
   SHA256 =  357db9cfb0783579b2eebe03197c2d807131fea8ea663b1fcfb6ce2fa75af011 S_GW/POTCAR           
   COPYR  = (c) Copyright 19Mar2012 Georg Kresse                                                    
   COPYR  = This file is part of the software VASP. Any use, copying, and all other rights are regul
   COPYR  = If you do not have a valid VASP license, you may not use, copy or distribute this file. 
   VRHFIN =S : s2p4                                                                                 
   LEXCH  = PE                                                                                      
   EATOM  =   276.8230 eV,   20.3459 Ry                                                             
                                                                                                    
   TITEL  = PAW_PBE S_GW 19Mar2012                                                                  
   LULTRA =        F    use ultrasoft PP ?                                                          
   IUNSCR =        1    unscreen: 0-lin 1-nonlin 2-no                                               
   RPACOR =    1.400    partial core radius                                                         
   POMASS =   32.066; ZVAL   =    6.000    mass and valenz                                          
   RCORE  =    1.900    outmost cutoff radius                                                       
   RWIGS  =    1.900; RWIGS  =    1.005    wigner-seitz radius (au A)                               
   ENMAX  =  258.689; ENMIN  =  194.016 eV                                                          
   ICORE  =        3    local potential                                                             
   LCOR   =        T    correct aug charges                                                         
   LPAW   =        T    paw PP                                                                      
   EAUG   =  488.319                                                                                
   DEXC   =    0.000                                                                                
   RMAX   =    1.942    core radius for proj-oper                                                   
   RAUG   =    1.300    factor for augmentation sphere                                              
   RDEP   =    1.954    radius for radial grids                                                     
   RDEPT  =    1.900    core radius for aug-charge                                                  
                                                                                                    
   Atomic configuration                                                                             
    7 entries                                                                                       
     n  l   j            E        occ.                                                              
     1  0  0.50     -2405.8406   2.0000                                                             
     2  0  0.50      -211.7007   2.0000                                                             
     2  1  1.50      -156.4958   6.0000                                                             
     3  0  0.50       -17.2562   2.0000                                                             
     3  1  0.50        -7.0085   4.0000                                                             
     3  2  1.50        -8.1635   0.0000                                                             
     4  3  2.50        -1.3606   0.0000                                                             
   Description                                                                                      
     l       E           TYP  RCUT    TYP  RCUT                                                     
     0    -17.2561639     23  1.700                                                                 
     0     88.4378690     23  1.900                                                                 
     1     -7.0085399     23  1.900                                                                 
     1     88.4378690     23  1.900                                                                 
     2    -10.8846608     23  1.900                                                                 
     2     54.4233040     23  1.900                                                                 
     3     27.2116520     23  1.800                                                                 
  local pseudopotential read in
  partial core-charges read in
  partial kinetic energy density read in
  kinetic energy density of atom read in
  atomic valenz-charges read in
  non local Contribution for L=           0  read in
    real space projection operators read in
  non local Contribution for L=           0  read in
    real space projection operators read in
  non local Contribution for L=           1  read in
    real space projection operators read in
  non local Contribution for L=           1  read in
    real space projection operators read in
  non local Contribution for L=           2  read in
    real space projection operators read in
  non local Contribution for L=           2  read in
    real space projection operators read in
    PAW grid and wavefunctions read in
 
   number of l-projection  operators is LMAX  =           6
   number of lm-projection operators is LMMAX =          18
 
 POTCAR:    PAW_PBE Cl_GW 19Mar2012               
   SHA256 =  3ef3b3169d6a9a89979f58b4cf17d927a58518fc660d8883d88cacaee8175441 Cl_GW/POTCAR          
   COPYR  = (c) Copyright 19Mar2012 Georg Kresse                                                    
   COPYR  = This file is part of the software VASP. Any use, copying, and all other rights are regul
   COPYR  = If you do not have a valid VASP license, you may not use, copy or distribute this file. 
   VRHFIN =Cl: s2p5                                                                                 
   LEXCH  = PE                                                                                      
   EATOM  =   409.7259 eV,   30.1140 Ry                                                             
                                                                                                    
   TITEL  = PAW_PBE Cl_GW 19Mar2012                                                                 
   LULTRA =        F    use ultrasoft PP ?                                                          
   IUNSCR =        1    unscreen: 0-lin 1-nonlin 2-no                                               
   RPACOR =    1.400    partial core radius                                                         
   POMASS =   35.453; ZVAL   =    7.000    mass and valenz                                          
   RCORE  =    1.900    outmost cutoff radius                                                       
   RWIGS  =    1.900; RWIGS  =    1.005    wigner-seitz radius (au A)                               
   ENMAX  =  262.472; ENMIN  =  196.854 eV                                                          
   ICORE  =        3    local potential                                                             
   LCOR   =        T    correct aug charges                                                         
   LPAW   =        T    paw PP                                                                      
   EAUG   =  456.703                                                                                
   DEXC   =    0.000                                                                                
   RMAX   =    1.945    core radius for proj-oper                                                   
   RAUG   =    1.300    factor for augmentation sphere                                              
   RDEP   =    2.020    radius for radial grids                                                     
   RDEPT  =    1.900    core radius for aug-charge                                                  
                                                                                                    
   Atomic configuration                                                                             
    7 entries                                                                                       
     n  l   j            E        occ.                                                              
     1  0  0.50     -2751.1850   2.0000                                                             
     2  0  0.50      -252.6861   2.0000                                                             
     2  1  1.50      -191.6157   6.0000                                                             
     3  0  0.50       -20.6916   2.0000                                                             
     3  1  0.50        -8.5949   5.0000                                                             
     3  2  1.50        -9.5241   0.0000                                                             
     4  3  2.50        -9.5241   0.0000                                                             
   Description                                                                                      
     l       E           TYP  RCUT    TYP  RCUT                                                     
     0    -20.6915657     23  1.700                                                                 
     0     95.2407820     23  1.800                                                                 
     1     -8.5948577     23  1.900                                                                 
     1     95.2407820     23  1.900                                                                 
     2    -10.8846608     23  1.900                                                                 
     2     54.4233040     23  1.900                                                                 
     3     27.2116520     23  1.900                                                                 
  local pseudopotential read in
  partial core-charges read in
  partial kinetic energy density read in
  kinetic energy density of atom read in
  atomic valenz-charges read in
  non local Contribution for L=           0  read in
    real space projection operators read in
  non local Contribution for L=           0  read in
    real space projection operators read in
  non local Contribution for L=           1  read in
    real space projection operators read in
  non local Contribution for L=           1  read in
    real space projection operators read in
  non local Contribution for L=           2  read in
    real space projection operators read in
  non local Contribution for L=           2  read in
    real space projection operators read in
    PAW grid and wavefunctions read in
 
   number of l-projection  operators is LMAX  =           6
   number of lm-projection operators is LMMAX =          18
 
 Optimization of the real space projectors (new method)

 maximal supplied QI-value         = 25.13
 optimisation between [QCUT,QGAM] = [ 11.56, 23.12] = [ 37.43,149.72] Ry 
 Optimized for a Real-space Cutoff    1.28 Angstroem

   l    n(q)    QCUT    max X(q) W(low)/X(q) W(high)/X(q)  e(spline) 
   0      9    11.561    87.733    0.11E-03    0.32E-04    0.56E-06
   0      9    11.561    82.800    0.11E-03    0.35E-04    0.56E-06
   0      9    11.561     2.509    0.22E-03    0.42E-04    0.79E-06
   1      8    11.561    12.580    0.94E-04    0.26E-03    0.21E-06
   1      8    11.561     1.319    0.33E-04    0.15E-03    0.19E-06
   2      8    11.561     1.993    0.36E-04    0.89E-04    0.26E-06
 Optimization of the real space projectors (new method)

 maximal supplied QI-value         = 18.90
 optimisation between [QCUT,QGAM] = [ 11.53, 23.24] = [ 37.21,151.29] Ry 
 Optimized for a Real-space Cutoff    1.21 Angstroem

   l    n(q)    QCUT    max X(q) W(low)/X(q) W(high)/X(q)  e(spline) 
   0      8    11.527     8.355    0.73E-04    0.70E-04    0.26E-07
   0      8    11.527     1.401    0.17E-03    0.17E-03    0.63E-07
   1      8    11.527     4.747    0.13E-03    0.17E-03    0.11E-06
   1      8    11.527     2.025    0.16E-03    0.18E-03    0.12E-06
   2      7    11.527     3.169    0.51E-04    0.25E-03    0.60E-07
   2      7    11.527     3.441    0.82E-04    0.22E-03    0.14E-06
 Optimization of the real space projectors (new method)

 maximal supplied QI-value         = 19.84
 optimisation between [QCUT,QGAM] = [ 11.51, 23.22] = [ 37.09,150.92] Ry 
 Optimized for a Real-space Cutoff    1.49 Angstroem

   l    n(q)    QCUT    max X(q) W(low)/X(q) W(high)/X(q)  e(spline) 
   0     10    11.508     7.541    0.34E-04    0.13E-04    0.69E-07
   0     10    11.508     1.809    0.49E-04    0.27E-04    0.14E-06
   1     10    11.508     4.107    0.27E-05    0.41E-05    0.14E-06
   1     10    11.508     2.196    0.26E-05    0.25E-05    0.22E-06
   2      9    11.508     4.265    0.18E-03    0.11E-03    0.81E-06
   2      9    11.508     1.925    0.97E-04    0.76E-04    0.47E-06
 Optimization of the real space projectors (new method)

 maximal supplied QI-value         = 19.84
 optimisation between [QCUT,QGAM] = [ 11.51, 23.22] = [ 37.09,150.92] Ry 
 Optimized for a Real-space Cutoff    1.21 Angstroem

   l    n(q)    QCUT    max X(q) W(low)/X(q) W(high)/X(q)  e(spline) 
   0      8    11.508     6.761    0.57E-04    0.57E-04    0.35E-07
   0      8    11.508     1.642    0.14E-03    0.14E-03    0.91E-07
   1      8    11.508     3.519    0.20E-04    0.72E-04    0.47E-07
   1      8    11.508     2.150    0.27E-04    0.11E-03    0.89E-07
   2      7    11.508     2.976    0.19E-03    0.33E-03    0.16E-06
   2      7    11.508     1.494    0.14E-03    0.29E-03    0.14E-06
  PAW_PBE Li_sv_GW 25Mar2010            :
 energy of atom  1       EATOM= -200.9989
 kinetic energy error for atom=    0.0127 (will be added to EATOM!!)
  PAW_PBE P_GW 19Mar2012                :
 energy of atom  2       EATOM= -176.0430
 kinetic energy error for atom=    0.0011 (will be added to EATOM!!)
  PAW_PBE S_GW 19Mar2012                :
 energy of atom  3       EATOM= -276.8230
 kinetic energy error for atom=    0.0024 (will be added to EATOM!!)
  PAW_PBE Cl_GW 19Mar2012               :
 energy of atom  4       EATOM= -409.7259
 kinetic energy error for atom=    0.0030 (will be added to EATOM!!)
 
 
 POSCAR: Li24 P4 S20 Cl4
  positions in direct lattice
  velocities in cartesian coordinates
 exchange correlation table for  LEXCH =        8
   RHO(1)=    0.500       N(1)  =     2000
   RHO(2)=  100.500       N(2)  =     4000

 VTST: version 4.1, (05/19/21)

 CHAIN: initializing optimizer
 
 OPT: Using VASP Conjugate-Gradient optimizer
 CHAIN: Read ICHAIN            0
 
 POSCAR: Li24 P4 S20 Cl4
  positions in direct lattice
  velocities in cartesian coordinates
 


--------------------------------------------------------------------------------------------------------


 ion  position               nearest neighbor table
   1  0.965  0.340  0.340-
   2  0.964  0.828  0.828-
   3  0.023  0.179  0.780-
   4  0.023  0.780  0.179-
   5  0.195  0.208  0.983-
   6  0.313  0.701  0.019-
   7  0.802  0.210  0.025-
   8  0.679  0.692  0.972-
   9  0.195  0.983  0.208-
  10  0.313  0.019  0.701-
  11  0.679  0.972  0.692-
  12  0.802  0.025  0.210-
  13  0.159  0.696  0.462-
  14  0.305  0.206  0.524-
  15  0.807  0.702  0.517-
  16  0.676  0.202  0.478-
  17  0.159  0.462  0.696-
  18  0.305  0.524  0.206-
  19  0.676  0.478  0.202-
  20  0.807  0.517  0.702-
  21  0.462  0.332  0.836-
  22  0.462  0.836  0.332-
  23  0.525  0.240  0.240-
  24  0.520  0.730  0.730-
  25  0.490  0.504  0.504-  43 2.05  41 2.05  42 2.05  44 2.06
  26  0.503  0.999  0.999-  37 2.04  38 2.04  40 2.06  39 2.06
  27  0.998  0.500  0.004-  36 2.05  35 2.05  33 2.06  34 2.06
  28  0.998  0.004  0.500-  30 2.05  29 2.05  32 2.06  31 2.06
  29  0.115  0.885  0.629-  28 2.05
  30  0.115  0.135  0.383-  28 2.05
  31  0.890  0.873  0.371-  28 2.06
  32  0.862  0.119  0.615-  28 2.06
  33  0.862  0.615  0.119-  27 2.06
  34  0.890  0.371  0.873-  27 2.06
  35  0.115  0.629  0.885-  27 2.05
  36  0.115  0.383  0.135-  27 2.05
  37  0.619  0.129  0.880-  26 2.04
  38  0.619  0.880  0.129-  26 2.04
  39  0.371  0.117  0.117-  26 2.06
  40  0.387  0.874  0.874-  26 2.06
  41  0.608  0.633  0.386-  25 2.05
  42  0.608  0.386  0.633-  25 2.05
  43  0.348  0.614  0.614-  25 2.05
  44  0.380  0.375  0.375-  25 2.06
  45  0.751  0.748  0.748-
  46  0.753  0.255  0.255-
  47  0.249  0.755  0.245-
  48  0.249  0.245  0.755-
  49  0.996  0.015  0.015-
  50  0.984  0.518  0.518-
  51  0.492  0.019  0.515-
  52  0.492  0.515  0.019-
 
  LATTYP: Found a simple cubic cell.
 ALAT       =     9.7065407818
  
  Lattice vectors:
  
 A1 = (   9.7065407818,   0.0000000000,   0.0000000000)
 A2 = (   0.0000000000,   9.7065407818,   0.0000000000)
 A3 = (   0.0000000000,   0.0000000000,   9.7065407818)


Analysis of symmetry for initial positions (statically):
=====================================================================
 Subroutine PRICEL returns:
 Original cell was already a primitive cell.
 

 Routine SETGRP: Setting up the symmetry group for a 
 simple cubic supercell.


 Subroutine GETGRP returns: Found  2 space group operations
 (whereof  2 operations were pure point group operations)
 out of a pool of 48 trial point group operations.


The static configuration has the point symmetry C_1h.


Analysis of symmetry for dynamics (positions and initial velocities):
=====================================================================
 Subroutine PRICEL returns:
 Original cell was already a primitive cell.
 

 Routine SETGRP: Setting up the symmetry group for a 
 simple cubic supercell.


 Subroutine GETGRP returns: Found  2 space group operations
 (whereof  2 operations were pure point group operations)
 out of a pool of 48 trial point group operations.


The dynamic configuration has the point symmetry C_1h.


Analysis of structural, dynamic, and magnetic symmetry:
=====================================================================
 Subroutine PRICEL returns:
 Original cell was already a primitive cell.
 

 Routine SETGRP: Setting up the symmetry group for a 
 simple cubic supercell.


 Subroutine GETGRP returns: Found  2 space group operations
 (whereof  2 operations were pure point group operations)
 out of a pool of 48 trial point group operations.


The overall configuration has the point symmetry C_1h.


 Subroutine INISYM returns: Found  2 space group operations
 (whereof  2 operations are pure point group operations),
 and found     1 'primitive' translations


----------------------------------------------------------------------------------------

                                     Primitive cell                                     

  volume of cell :     914.5205

  direct lattice vectors                    reciprocal lattice vectors
     9.706540782  0.000000000  0.000000000     0.103023314  0.000000000  0.000000000
     0.000000000  9.706540782  0.000000000     0.000000000  0.103023314  0.000000000
     0.000000000  0.000000000  9.706540782     0.000000000  0.000000000  0.103023314

  length of vectors
     9.706540782  9.706540782  9.706540782     0.103023314  0.103023314  0.103023314

  position of ions in fractional coordinates (direct lattice)
     0.964514122  0.339978208  0.339978208
     0.964189399  0.828222220  0.828222220
     0.022588171  0.178718031  0.780372465
     0.022588171  0.780372465  0.178718031
     0.195132038  0.208112004  0.983081097
     0.312776032  0.701177829  0.019047266
     0.802027514  0.210225819  0.024720916
     0.679321086  0.692264225  0.971837029
     0.195132038  0.983081097  0.208112004
     0.312776032  0.019047266  0.701177829
     0.679321086  0.971837029  0.692264225
     0.802027514  0.024720916  0.210225819
     0.159102474  0.696324889  0.462379283
     0.304979809  0.205852085  0.524499867
     0.807366392  0.702078953  0.517103655
     0.675833420  0.201609690  0.477976997
     0.159102474  0.462379283  0.696324889
     0.304979809  0.524499867  0.205852085
     0.675833420  0.477976997  0.201609690
     0.807366392  0.517103655  0.702078953
     0.461597669  0.332496123  0.836232278
     0.461597669  0.836232278  0.332496123
     0.524508972  0.239578917  0.239578917
     0.519675798  0.730039152  0.730039152
     0.489529877  0.503510702  0.503510702
     0.503210228  0.999242232  0.999242232
     0.997918173  0.499572994  0.003549377
     0.997918173  0.003549377  0.499572994
     0.115423569  0.885303624  0.629174367
     0.114934391  0.134824904  0.383206852
     0.890479854  0.873432370  0.371090759
     0.862339686  0.118764300  0.614568025
     0.862339686  0.614568025  0.118764300
     0.890479854  0.371090759  0.873432370
     0.115423569  0.629174367  0.885303624
     0.114934391  0.383206852  0.134824904
     0.619152961  0.128565584  0.880149948
     0.619152961  0.880149948  0.128565584
     0.371364005  0.116825870  0.116825870
     0.386756797  0.874201421  0.874201421
     0.607952661  0.633134951  0.385888748
     0.607952661  0.385888748  0.633134951
     0.348227953  0.614426313  0.614426313
     0.380142632  0.375067505  0.375067505
     0.750727393  0.748080128  0.748080128
     0.753046939  0.254505874  0.254505874
     0.248668656  0.754502486  0.245006572
     0.248668656  0.245006572  0.754502486
     0.996062290  0.014681975  0.014681975
     0.983947129  0.517771251  0.517771251
     0.491829882  0.019330790  0.515190592
     0.491829882  0.515190592  0.019330790

  ion indices of the primitive-cell ions
   primitive index   ion index
                 1           1
                 2           2
                 3           3
                 4           4
                 5           5
                 6           6
                 7           7
                 8           8
                 9           9
                10          10
                11          11
                12          12
                13          13
                14          14
                15          15
                16          16
                17          17
                18          18
                19          19
                20          20
                21          21
                22          22
                23          23
                24          24
                25          25
                26          26
                27          27
                28          28
                29          29
                30          30
                31          31
                32          32
                33          33
                34          34
                35          35
                36          36
                37          37
                38          38
                39          39
                40          40
                41          41
                42          42
                43          43
                44          44
                45          45
                46          46
                47          47
                48          48
                49          49
                50          50
                51          51
                52          52

----------------------------------------------------------------------------------------

 
 
 KPOINTS: Automatic mesh                          

Automatic generation of k-mesh.
 Grid dimensions read from file:
 generate k-points for:    2    2    2

 Generating k-lattice:

  Cartesian coordinates                     Fractional coordinates (reciprocal lattice)
     0.051511657  0.000000000  0.000000000     0.500000000  0.000000000  0.000000000
     0.000000000  0.051511657  0.000000000     0.000000000  0.500000000  0.000000000
     0.000000000  0.000000000  0.051511657     0.000000000  0.000000000  0.500000000

  Length of vectors
     0.051511657  0.051511657  0.051511657

  Shift w.r.t. Gamma in fractional coordinates (k-lattice)
     0.500000000  0.500000000  0.500000000

 
 Subroutine IBZKPT returns following result:
 ===========================================
 
 Found      3 irreducible k-points:
 
 Following reciprocal coordinates:
            Coordinates               Weight
  0.250000  0.250000  0.250000      2.000000
 -0.250000  0.250000  0.250000      2.000000
 -0.250000 -0.250000  0.250000      4.000000
 
 Following cartesian coordinates:
            Coordinates               Weight
  0.025756  0.025756  0.025756      2.000000
 -0.025756  0.025756  0.025756      2.000000
 -0.025756 -0.025756  0.025756      4.000000
 


--------------------------------------------------------------------------------------------------------




 Dimension of arrays:
   k-points           NKPTS =      3   k-points in BZ     NKDIM =      3   number of bands    NBANDS=    176
   number of dos      NEDOS =    301   number of ions     NIONS =     52
   non local maximal  LDIM  =      6   non local SUM 2l+1 LMDIM =     18
   total plane-waves  NPLWV = 373248
   max r-space proj   IRMAX =   5695   max aug-charges    IRDMAX=  17423
   dimension x,y,z NGX =    72 NGY =   72 NGZ =   72
   dimension x,y,z NGXF=   144 NGYF=  144 NGZF=  144
   support grid    NGXF=   144 NGYF=  144 NGZF=  144
   ions per type =              24   4  20   4
   NGX,Y,Z   is equivalent  to a cutoff of  12.33, 12.33, 12.33 a.u.
   NGXF,Y,Z  is equivalent  to a cutoff of  24.66, 24.66, 24.66 a.u.

 SYSTEM =  unknown system                          
 POSCAR =  Li24 P4 S20 Cl4                         

 Startparameter for this run:
   NWRITE =      2    write-flag & timer
   PREC   = accu      normal or accurate (medium, high low for compatibility)
   ISTART =      0    job   : 0-new  1-cont  2-samecut
   ICHARG =      2    charge: 1-file 2-atom 10-const
   ISPIN  =      2    spin polarized calculation?
   LNONCOLLINEAR =      F non collinear calculations
   LSORBIT =      F    spin-orbit coupling
   INIWAV =      1    electr: 0-lowe 1-rand  2-diag
   LASPH  =      T    aspherical Exc in radial PAW
 Electronic Relaxation 1
   ENCUT  =  520.0 eV  38.22 Ry    6.18 a.u.  18.05 18.05 18.05*2*pi/ulx,y,z
   ENINI  =  520.0     initial cutoff
   ENAUG  = 1041.7 eV  augmentation charge cutoff
   NELM   =    100;   NELMIN=  2; NELMDL=-10     # of ELM steps 
   EDIFF  = 0.1E-05   stopping-criterion for ELM
   LREAL  =      T    real-space projection
   NLSPLINE    = F    spline interpolate recip. space projectors
   LCOMPAT=      F    compatible to vasp.4.4
   GGA_COMPAT  = T    GGA compatible to vasp.4.4-vasp.4.6
   LMAXPAW     = -100 max onsite density
   LMAXMIX     =    4 max onsite mixed and CHGCAR
   VOSKOWN=      0    Vosko Wilk Nusair interpolation
   ROPT   =   -0.00025  -0.00025  -0.00025  -0.00025
 Ionic relaxation
   EDIFFG = -.1E-02   stopping-criterion for IOM
   NSW    =   1000    number of steps for IOM
   NBLOCK =      1;   KBLOCK =   1000    inner block; outer block 
   IBRION =      2    ionic relax: 0-MD 1-quasi-New 2-CG
   NFREE  =      1    steps in history (QN), initial steepest desc. (CG)
   ISIF   =      2    stress and relaxation
   IWAVPR =     11    prediction:  0-non 1-charg 2-wave 3-comb
   ISYM   =      2    0-nonsym 1-usesym 2-fastsym
   LCORR  =      T    Harris-Foulkes like correction to forces

   POTIM  = 0.2000    time-step for ionic-motion
   TEIN   =    0.0    initial temperature
   TEBEG  =    0.0;   TEEND  =   0.0 temperature during run
   SMASS  =  -3.00    Nose mass-parameter (am)
   estimated Nose-frequenzy (Omega)   =  0.10E-29 period in steps = 0.31E+47 mass=  -0.215E-26a.u.
   SCALEE = 1.0000    scale energy and forces
   NPACO  =    256;   APACO  = 10.0  distance and # of slots for P.C.
   PSTRESS=    0.0 pullay stress

  Mass of Ions in am
   POMASS =   7.01 30.97 32.07 35.45
  Ionic Valenz
   ZVAL   =   3.00  5.00  6.00  7.00
  Atomic Wigner-Seitz radii
   RWIGS  =  -1.00 -1.00 -1.00 -1.00
  virtual crystal weights 
   VCA    =   1.00  1.00  1.00  1.00
   NELECT =     240.0000    total number of electrons
   NUPDOWN=      -1.0000    fix difference up-down

 DOS related values:
   EMIN   =  10.00;   EMAX   =-10.00  energy-range for DOS
   EFERMI =   0.00;   METHOD = LEGACY      
   ISMEAR =     0;   SIGMA  =   0.03  broadening in eV -4-tet -1-fermi 0-gaus

 Electronic relaxation 2 (details)
   IALGO  =     68    algorithm
   LDIAG  =      T    sub-space diagonalisation (order eigenvalues)
   LSUBROT=      F    optimize rotation matrix (better conditioning)
   TURBO    =      0    0=normal 1=particle mesh
   IRESTART =      0    0=no restart 2=restart with 2 vectors
   NREBOOT  =      0    no. of reboots
   NMIN     =      0    reboot dimension
   EREF     =   0.00    reference energy to select bands
   IMIX   =      4    mixing-type and parameters
     AMIX     =   0.40;   BMIX     =  1.00
     AMIX_MAG =   1.60;   BMIX_MAG =  1.00
     AMIN     =   0.10
     WC   =   100.;   INIMIX=   1;  MIXPRE=   1;  MAXMIX= -45

 Intra band minimization:
   WEIMIN = 0.0010     energy-eigenvalue tresh-hold
   EBREAK =  0.14E-08  absolut break condition
   DEPER  =   0.30     relativ break condition  

   TIME   =   0.40     timestep for ELM

  volume/ion in A,a.u.               =      17.59       118.68
  Fermi-wavevector in a.u.,A,eV,Ry     =   1.048127  1.980674 14.946968  1.098571
  Thomas-Fermi vector in A             =   2.183036
 
 Write flags
   LWAVE        =      F    write WAVECAR
   LDOWNSAMPLE  =      F    k-point downsampling of WAVECAR
   LCHARG       =      F    write CHGCAR
   LVTOT        =      F    write LOCPOT, total local potential
   LVHAR        =      F    write LOCPOT, Hartree potential only
   LELF         =      F    write electronic localiz. function (ELF)
   LORBIT       =      0    0 simple, 1 ext, 2 COOP (PROOUT), +10 PAW based schemes


 Dipole corrections
   LMONO  =      F    monopole corrections only (constant potential shift)
   LDIPOL =      F    correct potential (dipole corrections)
   IDIPOL =      0    1-x, 2-y, 3-z, 4-all directions 
   EPSILON=  1.0000000 bulk dielectric constant

 Exchange correlation treatment:
   GGA     =    PE    GGA type
   LEXCH   =     8    internal setting for exchange type
   LIBXC   =     F    Libxc                    
   VOSKOWN =     0    Vosko Wilk Nusair interpolation
   LHFCALC =     F    Hartree Fock is set to
   LHFONE  =     F    Hartree Fock one center treatment
   AEXX    =    0.0000 exact exchange contribution

 Linear response parameters
   LEPSILON=     F    determine dielectric tensor
   LRPA    =     F    only Hartree local field effects (RPA)
   LNABLA  =     F    use nabla operator in PAW spheres
   LVEL    =     F    velocity operator in full k-point grid
   CSHIFT  =0.1000    complex shift for real part using Kramers Kronig
   OMEGAMAX=  -1.0    maximum frequency
   DEG_THRESHOLD= 0.2000000E-02 threshold for treating states as degnerate
   RTIME   =   -0.100 relaxation time in fs
  (WPLASMAI=    0.000 imaginary part of plasma frequency in eV, 0.658/RTIME)
   DFIELD  = 0.0000000 0.0000000 0.0000000 field for delta impulse in time
 
  Optional k-point grid parameters
   LKPOINTS_OPT  =     F    use optional k-point grid
   KPOINTS_OPT_MODE=     1    mode for optional k-point grid
 
 Orbital magnetization related:
   ORBITALMAG=     F  switch on orbital magnetization
   LCHIMAG   =     F  perturbation theory with respect to B field
   DQ        =  0.001000  dq finite difference perturbation B field
   LLRAUG    =     F  two centre corrections for induced B field
   LBONE     =     F  B-component reconstruction in AE one-centre
   LVGVCALC  =     T  calculate vGv susceptibility
   LVGVAPPL  =     F  apply vGv susceptibility instead of pGv for G=0

 Random number generation:
   RANDOM_GENERATOR = DEFAULT
   PCG_SEED         = not used


--------------------------------------------------------------------------------------------------------


 conjugate gradient relaxation of ions
 charge density and potential will be updated during run
 spin polarized calculation
 RMM-DIIS sequential band-by-band and
  variant of blocked Davidson during initial phase
 perform sub-space diagonalisation
    before iterative eigenvector-optimisation
 modified Broyden-mixing scheme, WC =      100.0
 initial mixing is a Kerker type mixing with AMIX =  0.4000 and BMIX =      1.0000
 Hartree-type preconditioning will be used
 using additional bands           56
 real space projection scheme for non local part
 use partial core corrections
 calculate Harris-corrections to forces 
   (improved forces if not selfconsistent)
 use gradient corrections 
 use of overlap-Matrix (Vanderbilt PP)
 Gauss-broadening in eV      SIGMA  =   0.03


--------------------------------------------------------------------------------------------------------


  energy-cutoff  :      520.00
  volume of cell :      914.52
      direct lattice vectors                 reciprocal lattice vectors
     9.706540782  0.000000000  0.000000000     0.103023314  0.000000000  0.000000000
     0.000000000  9.706540782  0.000000000     0.000000000  0.103023314  0.000000000
     0.000000000  0.000000000  9.706540782     0.000000000  0.000000000  0.103023314

  length of vectors
     9.706540782  9.706540782  9.706540782     0.103023314  0.103023314  0.103023314


 
 k-points in units of 2pi/SCALE and weight: Automatic mesh                          
   0.02575583  0.02575583  0.02575583       0.250
  -0.02575583  0.02575583  0.02575583       0.250
  -0.02575583 -0.02575583  0.02575583       0.500
 
 k-points in reciprocal lattice and weights: Automatic mesh                          
   0.25000000  0.25000000  0.25000000       0.250
  -0.25000000  0.25000000  0.25000000       0.250
  -0.25000000 -0.25000000  0.25000000       0.500
 
 position of ions in fractional coordinates (direct lattice) 
   0.96451412  0.33997821  0.33997821
   0.96418940  0.82822222  0.82822222
   0.02258817  0.17871803  0.78037246
   0.02258817  0.78037246  0.17871803
   0.19513204  0.20811200  0.98308110
   0.31277603  0.70117783  0.01904727
   0.80202751  0.21022582  0.02472092
   0.67932109  0.69226423  0.97183703
   0.19513204  0.98308110  0.20811200
   0.31277603  0.01904727  0.70117783
   0.67932109  0.97183703  0.69226423
   0.80202751  0.02472092  0.21022582
   0.15910247  0.69632489  0.46237928
   0.30497981  0.20585209  0.52449987
   0.80736639  0.70207895  0.51710366
   0.67583342  0.20160969  0.47797700
   0.15910247  0.46237928  0.69632489
   0.30497981  0.52449987  0.20585209
   0.67583342  0.47797700  0.20160969
   0.80736639  0.51710366  0.70207895
   0.46159767  0.33249612  0.83623228
   0.46159767  0.83623228  0.33249612
   0.52450897  0.23957892  0.23957892
   0.51967580  0.73003915  0.73003915
   0.48952988  0.50351070  0.50351070
   0.50321023  0.99924223  0.99924223
   0.99791817  0.49957299  0.00354938
   0.99791817  0.00354938  0.49957299
   0.11542357  0.88530362  0.62917437
   0.11493439  0.13482490  0.38320685
   0.89047985  0.87343237  0.37109076
   0.86233969  0.11876430  0.61456802
   0.86233969  0.61456802  0.11876430
   0.89047985  0.37109076  0.87343237
   0.11542357  0.62917437  0.88530362
   0.11493439  0.38320685  0.13482490
   0.61915296  0.12856558  0.88014995
   0.61915296  0.88014995  0.12856558
   0.37136400  0.11682587  0.11682587
   0.38675680  0.87420142  0.87420142
   0.60795266  0.63313495  0.38588875
   0.60795266  0.38588875  0.63313495
   0.34822795  0.61442631  0.61442631
   0.38014263  0.37506751  0.37506751
   0.75072739  0.74808013  0.74808013
   0.75304694  0.25450587  0.25450587
   0.24866866  0.75450249  0.24500657
   0.24866866  0.24500657  0.75450249
   0.99606229  0.01468198  0.01468198
   0.98394713  0.51777125  0.51777125
   0.49182988  0.01933079  0.51519059
   0.49182988  0.51519059  0.01933079
 
 position of ions in cartesian coordinates  (Angst):
   9.36209566  3.30001234  3.30001234
   9.35894372  8.03917275  8.03917275
   0.21925300  1.73473385  7.57471716
   0.21925300  7.57471716  1.73473385
   1.89405708  2.02004765  9.54231676
   3.03597331  6.80601119  0.18488307
   7.78491277  2.04056548  0.23995458
   6.59385783  6.71949093  9.43317576
   1.89405708  9.54231676  2.02004765
   3.03597331  0.18488307  6.80601119
   6.59385783  9.43317576  6.71949093
   7.78491277  0.23995458  2.04056548
   1.54433465  6.75890593  4.48810336
   2.96029895  1.99811166  5.09107935
   7.83673481  6.81475799  5.01928772
   6.56000465  1.95693267  4.63950321
   1.54433465  4.48810336  6.75890593
   2.96029895  5.09107935  1.99811166
   6.56000465  4.63950321  1.95693267
   7.83673481  5.01928772  6.81475799
   4.48051660  3.22738718  8.11692271
   4.48051660  8.11692271  3.22738718
   5.09116772  2.32548252  2.32548252
   5.04425432  7.08615480  7.08615480
   4.75164172  4.88734716  4.88734716
   4.88443060  9.69918547  9.69918547
   9.68633345  4.84912564  0.03445217
   9.68633345  0.03445217  4.84912564
   1.12036358  8.59323573  6.10710666
   1.11561536  1.30868343  3.71961294
   8.64347902  8.47800692  3.60200758
   8.37033533  1.15279053  5.96532959
   8.37033533  5.96532959  1.15279053
   8.64347902  3.60200758  8.47800692
   1.12036358  6.10710666  8.59323573
   1.11561536  3.71961294  1.30868343
   6.00983347  1.24792708  8.54321136
   6.00983347  8.54321136  1.24792708
   3.60465986  1.13397507  1.13397507
   3.75407063  8.48547174  8.48547174
   5.90111730  6.14555022  3.74564487
   5.90111730  3.74564487  6.14555022
   3.38008882  5.96395406  5.96395406
   3.68986996  3.64060804  3.64060804
   7.28696606  7.26127027  7.26127027
   7.30948082  2.47037165  2.47037165
   2.41371245  7.32360915  2.37816628
   2.41371245  2.37816628  7.32360915
   9.66831924  0.14251119  0.14251119
   9.55072293  5.02576777  5.02576777
   4.77396681  0.18763510  5.00071849
   4.77396681  5.00071849  0.18763510
 


--------------------------------------------------------------------------------------------------------


 k-point   1 :   0.2500 0.2500 0.2500  plane waves:   24645
 k-point   2 :  -0.2500 0.2500 0.2500  plane waves:   24645
 k-point   3 :  -0.2500-0.2500 0.2500  plane waves:   24645

 maximum and minimum number of plane-waves per node :       788      753

 maximum number of plane-waves:     24645
 maximum index in each direction: 
   IXMAX=   18   IYMAX=   18   IZMAX=   17
   IXMIN=  -18   IYMIN=  -18   IZMIN=  -18


 real space projection operators:
  total allocation   :      27964.28 KBytes
  max/ min on nodes  :       1185.33        744.20


 parallel 3D FFT for wavefunctions:
    minimum data exchange during FFTs selected (reduces bandwidth)
 parallel 3D FFT for charge:
    minimum data exchange during FFTs selected (reduces bandwidth)


 total amount of memory used by VASP MPI-rank0    46972. kBytes
=======================================================================

   base      :      30000. kBytes
   nonlr-proj:       6473. kBytes
   fftplans  :       1747. kBytes
   grid      :       5278. kBytes
   one-center:         62. kBytes
   wavefun   :       3412. kBytes
 
     INWAV:  cpu time      0.0000: real time      0.0000
 Broyden mixing: mesh for mixing (old mesh)
   NGX = 37   NGY = 37   NGZ = 37
  (NGX  =144   NGY  =144   NGZ  =144)
  gives a total of  50653 points

 initial charge density was supplied:
 charge density of overlapping atoms calculated
 number of electron     240.0000000 magnetization      52.0000000
 keeping initial charge density in first step


--------------------------------------------------------------------------------------------------------


 Maximum index for non-local projection operator          556
 Maximum index for augmentation-charges          988 (set IRDMAX)


--------------------------------------------------------------------------------------------------------


 First call to EWALD:  gamma=   0.183
 Maximum number of real-space cells 3x 3x 3
 Maximum number of reciprocal cells 3x 3x 3

    FEWALD:  cpu time      0.0030: real time      0.0035


--------------------------------------- Ionic step        1  -------------------------------------------




--------------------------------------- Iteration      1(   1)  ---------------------------------------


    POTLOK:  cpu time      0.0573: real time      0.0854
    SETDIJ:  cpu time      0.4072: real time      0.4154
     EDDAV:  cpu time      1.6810: real time      1.7173
       DOS:  cpu time      0.0031: real time      0.0045
    --------------------------------------------
      LOOP:  cpu time      2.1487: real time      2.2226

 eigenvalue-minimisations  :  2328
 total energy-change (2. order) : 0.1582311E+04  (-0.1135503E+05)
 number of electron     240.0000000 magnetization      52.0000000
 augmentation part      240.0000000 magnetization      52.0000000

 Free energy of the ion-electron system (eV)
  ---------------------------------------------------
  alpha Z        PSCENC =       296.83041573
  Ewald energy   TEWEN  =     -8756.51427799
  -Hartree energ DENC   =     -2138.29727263
  -exchange      EXHF   =         0.00000000
  -V(xc)+E(xc)   XCENC  =       533.56682025
  PAW double counting   =      8141.38806575    -8271.61346273
  entropy T*S    EENTRO =        -0.00428154
  eigenvalues    EBANDS =      -926.18540870
  atomic energy  EATOM  =     12703.13999606
  Solvation  Ediel_sol  =         0.00000000
  ---------------------------------------------------
  free energy    TOTEN  =      1582.31059419 eV

  energy without entropy =     1582.31487573  energy(sigma->0) =     1582.31273496


--------------------------------------------------------------------------------------------------------




--------------------------------------- Iteration      1(   2)  ---------------------------------------


     EDDAV:  cpu time      1.9675: real time      1.9891
       DOS:  cpu time      0.0004: real time      0.0004
    --------------------------------------------
      LOOP:  cpu time      1.9679: real time      1.9896

 eigenvalue-minimisations  :  2880
 total energy-change (2. order) :-0.1637610E+04  (-0.1539037E+04)
 number of electron     240.0000000 magnetization      52.0000000
 augmentation part      240.0000000 magnetization      52.0000000

 Free energy of the ion-electron system (eV)
  ---------------------------------------------------
  alpha Z        PSCENC =       296.83041573
  Ewald energy   TEWEN  =     -8756.51427799
  -Hartree energ DENC   =     -2138.29727263
  -exchange      EXHF   =         0.00000000
  -V(xc)+E(xc)   XCENC  =       533.56682025
  PAW double counting   =      8141.38806575    -8271.61346273
  entropy T*S    EENTRO =        -0.00000000
  eigenvalues    EBANDS =     -2563.79988123
  atomic energy  EATOM  =     12703.13999606
  Solvation  Ediel_sol  =         0.00000000
  ---------------------------------------------------
  free energy    TOTEN  =       -55.29959680 eV

  energy without entropy =      -55.29959680  energy(sigma->0) =      -55.29959680


--------------------------------------------------------------------------------------------------------




--------------------------------------- Iteration      1(   3)  ---------------------------------------


     EDDAV:  cpu time      2.0414: real time      2.0684
       DOS:  cpu time      0.0005: real time      0.0005
    --------------------------------------------
      LOOP:  cpu time      2.0419: real time      2.0689

 eigenvalue-minimisations  :  2832
 total energy-change (2. order) :-0.1734729E+03  (-0.1715214E+03)
 number of electron     240.0000000 magnetization      52.0000000
 augmentation part      240.0000000 magnetization      52.0000000

 Free energy of the ion-electron system (eV)
  ---------------------------------------------------
  alpha Z        PSCENC =       296.83041573
  Ewald energy   TEWEN  =     -8756.51427799
  -Hartree energ DENC   =     -2138.29727263
  -exchange      EXHF   =         0.00000000
  -V(xc)+E(xc)   XCENC  =       533.56682025
  PAW double counting   =      8141.38806575    -8271.61346273
  entropy T*S    EENTRO =        -0.00000000
  eigenvalues    EBANDS =     -2737.27278260
  atomic energy  EATOM  =     12703.13999606
  Solvation  Ediel_sol  =         0.00000000
  ---------------------------------------------------
  free energy    TOTEN  =      -228.77249818 eV

  energy without entropy =     -228.77249818  energy(sigma->0) =     -228.77249818


--------------------------------------------------------------------------------------------------------




--------------------------------------- Iteration      1(   4)  ---------------------------------------


     EDDAV:  cpu time      2.3836: real time      2.4058
       DOS:  cpu time      0.0004: real time      0.0004
    --------------------------------------------
      LOOP:  cpu time      2.3840: real time      2.4062

 eigenvalue-minimisations  :  3568
 total energy-change (2. order) :-0.1298078E+02  (-0.1295675E+02)
 number of electron     240.0000000 magnetization      52.0000000
 augmentation part      240.0000000 magnetization      52.0000000

 Free energy of the ion-electron system (eV)
  ---------------------------------------------------
  alpha Z        PSCENC =       296.83041573
  Ewald energy   TEWEN  =     -8756.51427799
  -Hartree energ DENC   =     -2138.29727263
  -exchange      EXHF   =         0.00000000
  -V(xc)+E(xc)   XCENC  =       533.56682025
  PAW double counting   =      8141.38806575    -8271.61346273
  entropy T*S    EENTRO =        -0.00000000
  eigenvalues    EBANDS =     -2750.25356354
  atomic energy  EATOM  =     12703.13999606
  Solvation  Ediel_sol  =         0.00000000
  ---------------------------------------------------
  free energy    TOTEN  =      -241.75327911 eV

  energy without entropy =     -241.75327911  energy(sigma->0) =     -241.75327911


--------------------------------------------------------------------------------------------------------




--------------------------------------- Iteration      1(   5)  ---------------------------------------


     EDDAV:  cpu time      2.2412: real time      2.2630
       DOS:  cpu time      0.0004: real time      0.0004
    --------------------------------------------
      LOOP:  cpu time      2.2415: real time      2.2634

 eigenvalue-minimisations  :  3328
 total energy-change (2. order) :-0.2280047E+00  (-0.2279013E+00)
 number of electron     240.0000000 magnetization      52.0000000
 augmentation part      240.0000000 magnetization      52.0000000

 Free energy of the ion-electron system (eV)
  ---------------------------------------------------
  alpha Z        PSCENC =       296.83041573
  Ewald energy   TEWEN  =     -8756.51427799
  -Hartree energ DENC   =     -2138.29727263
  -exchange      EXHF   =         0.00000000
  -V(xc)+E(xc)   XCENC  =       533.56682025
  PAW double counting   =      8141.38806575    -8271.61346273
  entropy T*S    EENTRO =        -0.00000000
  eigenvalues    EBANDS =     -2750.48156820
  atomic energy  EATOM  =     12703.13999606
  Solvation  Ediel_sol  =         0.00000000
  ---------------------------------------------------
  free energy    TOTEN  =      -241.98128377 eV

  energy without entropy =     -241.98128377  energy(sigma->0) =     -241.98128377


--------------------------------------------------------------------------------------------------------




--------------------------------------- Iteration      1(   6)  ---------------------------------------


     EDDAV:  cpu time      2.2973: real time      2.3189
       DOS:  cpu time      0.0005: real time      0.0005
    --------------------------------------------
      LOOP:  cpu time      2.2978: real time      2.3194

 eigenvalue-minimisations  :  3488
 total energy-change (2. order) :-0.1075187E-01  (-0.1075074E-01)
 number of electron     240.0000000 magnetization      52.0000000
 augmentation part      240.0000000 magnetization      52.0000000

 Free energy of the ion-electron system (eV)
  ---------------------------------------------------
  alpha Z        PSCENC =       296.83041573
  Ewald energy   TEWEN  =     -8756.51427799
  -Hartree energ DENC   =     -2138.29727263
  -exchange      EXHF   =         0.00000000
  -V(xc)+E(xc)   XCENC  =       533.56682025
  PAW double counting   =      8141.38806575    -8271.61346273
  entropy T*S    EENTRO =        -0.00000000
  eigenvalues    EBANDS =     -2750.49232007
  atomic energy  EATOM  =     12703.13999606
  Solvation  Ediel_sol  =         0.00000000
  ---------------------------------------------------
  free energy    TOTEN  =      -241.99203564 eV

  energy without entropy =     -241.99203564  energy(sigma->0) =     -241.99203564


--------------------------------------------------------------------------------------------------------




--------------------------------------- Iteration      1(   7)  ---------------------------------------


     EDDAV:  cpu time      2.2477: real time      2.2697
       DOS:  cpu time      0.0005: real time      0.0005
    --------------------------------------------
      LOOP:  cpu time      2.2481: real time      2.2701

 eigenvalue-minimisations  :  3408
 total energy-change (2. order) :-0.4500492E-03  (-0.4500250E-03)
 number of electron     240.0000000 magnetization      52.0000000
 augmentation part      240.0000000 magnetization      52.0000000

 Free energy of the ion-electron system (eV)
  ---------------------------------------------------
  alpha Z        PSCENC =       296.83041573
  Ewald energy   TEWEN  =     -8756.51427799
  -Hartree energ DENC   =     -2138.29727263
  -exchange      EXHF   =         0.00000000
  -V(xc)+E(xc)   XCENC  =       533.56682025
  PAW double counting   =      8141.38806575    -8271.61346273
  entropy T*S    EENTRO =        -0.00000000
  eigenvalues    EBANDS =     -2750.49277012
  atomic energy  EATOM  =     12703.13999606
  Solvation  Ediel_sol  =         0.00000000
  ---------------------------------------------------
  free energy    TOTEN  =      -241.99248569 eV

  energy without entropy =     -241.99248569  energy(sigma->0) =     -241.99248569


--------------------------------------------------------------------------------------------------------




--------------------------------------- Iteration      1(   8)  ---------------------------------------


     EDDAV:  cpu time      2.2708: real time      2.2921
       DOS:  cpu time      0.0006: real time      0.0006
    --------------------------------------------
      LOOP:  cpu time      2.2714: real time      2.2927

 eigenvalue-minimisations  :  3440
 total energy-change (2. order) :-0.2842358E-04  (-0.2842249E-04)
 number of electron     240.0000000 magnetization      52.0000000
 augmentation part      240.0000000 magnetization      52.0000000

 Free energy of the ion-electron system (eV)
  ---------------------------------------------------
  alpha Z        PSCENC =       296.83041573
  Ewald energy   TEWEN  =     -8756.51427799
  -Hartree energ DENC   =     -2138.29727263
  -exchange      EXHF   =         0.00000000
  -V(xc)+E(xc)   XCENC  =       533.56682025
  PAW double counting   =      8141.38806575    -8271.61346273
  entropy T*S    EENTRO =        -0.00000000
  eigenvalues    EBANDS =     -2750.49279854
  atomic energy  EATOM  =     12703.13999606
  Solvation  Ediel_sol  =         0.00000000
  ---------------------------------------------------
  free energy    TOTEN  =      -241.99251412 eV

  energy without entropy =     -241.99251412  energy(sigma->0) =     -241.99251412


--------------------------------------------------------------------------------------------------------




--------------------------------------- Iteration      1(   9)  ---------------------------------------


     EDDAV:  cpu time      2.2281: real time      2.2543
       DOS:  cpu time      0.0005: real time      0.0005
    --------------------------------------------
      LOOP:  cpu time      2.2286: real time      2.2548

 eigenvalue-minimisations  :  3368
 total energy-change (2. order) :-0.1962733E-05  (-0.1962688E-05)
 number of electron     240.0000000 magnetization      52.0000000
 augmentation part      240.0000000 magnetization      52.0000000

 Free energy of the ion-electron system (eV)
  ---------------------------------------------------
  alpha Z        PSCENC =       296.83041573
  Ewald energy   TEWEN  =     -8756.51427799
  -Hartree energ DENC   =     -2138.29727263
  -exchange      EXHF   =         0.00000000
  -V(xc)+E(xc)   XCENC  =       533.56682025
  PAW double counting   =      8141.38806575    -8271.61346273
  entropy T*S    EENTRO =        -0.00000000
  eigenvalues    EBANDS =     -2750.49280051
  atomic energy  EATOM  =     12703.13999606
  Solvation  Ediel_sol  =         0.00000000
  ---------------------------------------------------
  free energy    TOTEN  =      -241.99251608 eV

  energy without entropy =     -241.99251608  energy(sigma->0) =     -241.99251608


--------------------------------------------------------------------------------------------------------




--------------------------------------- Iteration      1(  10)  ---------------------------------------


     EDDAV:  cpu time      1.4946: real time      1.5077
       DOS:  cpu time      0.0004: real time      0.0004
    CHARGE:  cpu time      0.2198: real time      0.4090
    MIXING:  cpu time      0.0021: real time      0.0023
    --------------------------------------------
      LOOP:  cpu time      1.7169: real time      1.9194

 eigenvalue-minimisations  :  1992
 total energy-change (2. order) :-0.1033968E-06  (-0.1038218E-06)
 number of electron     240.0000005 magnetization      27.4321724
 augmentation part        1.4893625 magnetization      27.8731128

 Broyden mixing:
  rms(total) = 0.64826E+01    rms(broyden)= 0.64824E+01
  rms(prec ) = 0.67217E+01
  weight for this iteration     100.00

 Free energy of the ion-electron system (eV)
  ---------------------------------------------------
  alpha Z        PSCENC =       296.83041573
  Ewald energy   TEWEN  =     -8756.51427799
  -Hartree energ DENC   =     -2138.29727263
  -exchange      EXHF   =         0.00000000
  -V(xc)+E(xc)   XCENC  =       533.56682025
  PAW double counting   =      8141.38806575    -8271.61346273
  entropy T*S    EENTRO =        -0.00000000
  eigenvalues    EBANDS =     -2750.49280061
  atomic energy  EATOM  =     12703.13999606
  Solvation  Ediel_sol  =         0.00000000
  ---------------------------------------------------
  free energy    TOTEN  =      -241.99251618 eV

  energy without entropy =     -241.99251618  energy(sigma->0) =     -241.99251618


--------------------------------------------------------------------------------------------------------




--------------------------------------- Iteration      1(  11)  ---------------------------------------


    POTLOK:  cpu time      0.0556: real time      0.0566
    SETDIJ:  cpu time      0.3987: real time      0.4029
    EDDIAG:  cpu time      0.2697: real time      0.2714
  RMM-DIIS:  cpu time      0.8742: real time      0.8823
    ORTHCH:  cpu time      0.0512: real time      0.0515
       DOS:  cpu time      0.0005: real time      0.0005
    CHARGE:  cpu time      0.1869: real time      0.4096
    MIXING:  cpu time      0.0011: real time      0.0112
    --------------------------------------------
      LOOP:  cpu time      1.8380: real time      2.0859

 eigenvalue-minimisations  :  2112
 total energy-change (2. order) : 0.7128799E+01  (-0.4925803E+01)
 number of electron     240.0000005 magnetization      16.4439237
 augmentation part        1.7013287 magnetization      16.6305438

 Broyden mixing:
  rms(total) = 0.33227E+01    rms(broyden)= 0.33226E+01
  rms(prec ) = 0.34363E+01
  weight for this iteration     100.00

 eigenvalues of (default mixing * dielectric matrix)
  average eigenvalue GAMMA=   0.7267
  0.7267

 Free energy of the ion-electron system (eV)
  ---------------------------------------------------
  alpha Z        PSCENC =       296.83041573
  Ewald energy   TEWEN  =     -8756.51427799
  -Hartree energ DENC   =     -2188.27435854
  -exchange      EXHF   =         0.00000000
  -V(xc)+E(xc)   XCENC  =       542.37714084
  PAW double counting   =      8941.58465740    -9078.00288862
  entropy T*S    EENTRO =        -0.00000000
  eigenvalues    EBANDS =     -2696.00440249
  atomic energy  EATOM  =     12703.13999606
  Solvation  Ediel_sol  =         0.00000000
  ---------------------------------------------------
  free energy    TOTEN  =      -234.86371761 eV

  energy without entropy =     -234.86371761  energy(sigma->0) =     -234.86371761


--------------------------------------------------------------------------------------------------------




--------------------------------------- Iteration      1(  12)  ---------------------------------------


    POTLOK:  cpu time      0.0532: real time      0.0541
    SETDIJ:  cpu time      0.4142: real time      0.4163
    EDDIAG:  cpu time      0.2679: real time      0.2695
  RMM-DIIS:  cpu time      0.9113: real time      0.9205
    ORTHCH:  cpu time      0.0516: real time      0.0536
       DOS:  cpu time      0.0004: real time      0.0004
    CHARGE:  cpu time      0.1252: real time      0.1555
    MIXING:  cpu time      0.0011: real time      0.0011
    --------------------------------------------
      LOOP:  cpu time      1.8249: real time      1.8709

 eigenvalue-minimisations  :  2212
 total energy-change (2. order) :-0.2117208E+02  (-0.2356089E+01)
 number of electron     240.0000005 magnetization       0.9278486
 augmentation part        1.8112405 magnetization       1.2728752

 Broyden mixing:
  rms(total) = 0.20743E+01    rms(broyden)= 0.20743E+01
  rms(prec ) = 0.21323E+01
  weight for this iteration     100.00

 eigenvalues of (default mixing * dielectric matrix)
  average eigenvalue GAMMA=   1.1241
  1.5798  0.6683

 Free energy of the ion-electron system (eV)
  ---------------------------------------------------
  alpha Z        PSCENC =       296.83041573
  Ewald energy   TEWEN  =     -8756.51427799
  -Hartree energ DENC   =     -2213.92763503
  -exchange      EXHF   =         0.00000000
  -V(xc)+E(xc)   XCENC  =       536.01114402
  PAW double counting   =      9303.06912016    -9443.17726166
  entropy T*S    EENTRO =        -0.00000000
  eigenvalues    EBANDS =     -2681.46730169
  atomic energy  EATOM  =     12703.13999606
  Solvation  Ediel_sol  =         0.00000000
  ---------------------------------------------------
  free energy    TOTEN  =      -256.03580041 eV

  energy without entropy =     -256.03580041  energy(sigma->0) =     -256.03580041


--------------------------------------------------------------------------------------------------------




--------------------------------------- Iteration      1(  13)  ---------------------------------------


    POTLOK:  cpu time      0.0523: real time      0.0533
    SETDIJ:  cpu time      0.4048: real time      0.4065
    EDDIAG:  cpu time      0.2671: real time      0.2692
  RMM-DIIS:  cpu time      0.9061: real time      0.9144
    ORTHCH:  cpu time      0.0519: real time      0.0531
       DOS:  cpu time      0.0004: real time      0.0004
    CHARGE:  cpu time      0.1163: real time      0.1396
    MIXING:  cpu time      0.0012: real time      0.0012
    --------------------------------------------
      LOOP:  cpu time      1.8002: real time      1.8377

 eigenvalue-minimisations  :  2177
 total energy-change (2. order) :-0.2487498E+01  (-0.8698669E+00)
 number of electron     240.0000005 magnetization      -1.9199624
 augmentation part        1.9149917 magnetization      -1.8085518

 Broyden mixing:
  rms(total) = 0.71763E+00    rms(broyden)= 0.71763E+00
  rms(prec ) = 0.74951E+00
  weight for this iteration     100.00

 eigenvalues of (default mixing * dielectric matrix)
  average eigenvalue GAMMA=   1.3080
  2.5304  0.7425  0.6511

 Free energy of the ion-electron system (eV)
  ---------------------------------------------------
  alpha Z        PSCENC =       296.83041573
  Ewald energy   TEWEN  =     -8756.51427799
  -Hartree energ DENC   =     -2241.60059892
  -exchange      EXHF   =         0.00000000
  -V(xc)+E(xc)   XCENC  =       537.44499856
  PAW double counting   =      9797.27501723    -9941.27043660
  entropy T*S    EENTRO =        -0.00000000
  eigenvalues    EBANDS =     -2653.82841202
  atomic energy  EATOM  =     12703.13999606
  Solvation  Ediel_sol  =         0.00000000
  ---------------------------------------------------
  free energy    TOTEN  =      -258.52329796 eV

  energy without entropy =     -258.52329796  energy(sigma->0) =     -258.52329796


--------------------------------------------------------------------------------------------------------




--------------------------------------- Iteration      1(  14)  ---------------------------------------


    POTLOK:  cpu time      0.0524: real time      0.0533
    SETDIJ:  cpu time      0.4034: real time      0.4049
    EDDIAG:  cpu time      0.2693: real time      0.2709
  RMM-DIIS:  cpu time      1.1287: real time      1.1392
    ORTHCH:  cpu time      0.0522: real time      0.0533
       DOS:  cpu time      0.0004: real time      0.0004
    CHARGE:  cpu time      0.1108: real time      0.1285
    MIXING:  cpu time      0.0012: real time      0.0012
    --------------------------------------------
      LOOP:  cpu time      2.0183: real time      2.0516

 eigenvalue-minimisations  :  2727
 total energy-change (2. order) :-0.1846047E+00  (-0.1964679E+00)
 number of electron     240.0000005 magnetization      -0.9248182
 augmentation part        1.8899175 magnetization      -0.8982103

 Broyden mixing:
  rms(total) = 0.32250E+00    rms(broyden)= 0.32250E+00
  rms(prec ) = 0.35753E+00
  weight for this iteration     100.00

 eigenvalues of (default mixing * dielectric matrix)
  average eigenvalue GAMMA=   1.2741
  2.6404  1.1668  0.6915  0.5976

 Free energy of the ion-electron system (eV)
  ---------------------------------------------------
  alpha Z        PSCENC =       296.83041573
  Ewald energy   TEWEN  =     -8756.51427799
  -Hartree energ DENC   =     -2243.96941503
  -exchange      EXHF   =         0.00000000
  -V(xc)+E(xc)   XCENC  =       537.99161518
  PAW double counting   =      9886.82645516   -10031.71190954
  entropy T*S    EENTRO =        -0.00000000
  eigenvalues    EBANDS =     -2651.30078216
  atomic energy  EATOM  =     12703.13999606
  Solvation  Ediel_sol  =         0.00000000
  ---------------------------------------------------
  free energy    TOTEN  =      -258.70790261 eV

  energy without entropy =     -258.70790261  energy(sigma->0) =     -258.70790261


--------------------------------------------------------------------------------------------------------




--------------------------------------- Iteration      1(  15)  ---------------------------------------


    POTLOK:  cpu time      0.0532: real time      0.0542
    SETDIJ:  cpu time      0.4030: real time      0.4044
    EDDIAG:  cpu time      0.2668: real time      0.2689
  RMM-DIIS:  cpu time      0.9554: real time      0.9664
    ORTHCH:  cpu time      0.0514: real time      0.0526
       DOS:  cpu time      0.0004: real time      0.0004
    CHARGE:  cpu time      0.1004: real time      0.1417
    MIXING:  cpu time      0.0018: real time      0.0019
    --------------------------------------------
      LOOP:  cpu time      1.8323: real time      1.8905

 eigenvalue-minimisations  :  2323
 total energy-change (2. order) : 0.2651589E-01  (-0.3602188E-01)
 number of electron     240.0000005 magnetization      -0.2491966
 augmentation part        1.8388461 magnetization      -0.2237210

 Broyden mixing:
  rms(total) = 0.68978E-01    rms(broyden)= 0.68977E-01
  rms(prec ) = 0.80620E-01
  weight for this iteration     100.00

 eigenvalues of (default mixing * dielectric matrix)
  average eigenvalue GAMMA=   1.2761
  2.5414  1.5927  0.9514  0.6871  0.6080

 Free energy of the ion-electron system (eV)
  ---------------------------------------------------
  alpha Z        PSCENC =       296.83041573
  Ewald energy   TEWEN  =     -8756.51427799
  -Hartree energ DENC   =     -2239.29155723
  -exchange      EXHF   =         0.00000000
  -V(xc)+E(xc)   XCENC  =       537.60268163
  PAW double counting   =      9855.39485754   -10000.07004889
  entropy T*S    EENTRO =        -0.00000000
  eigenvalues    EBANDS =     -2655.77345356
  atomic energy  EATOM  =     12703.13999606
  Solvation  Ediel_sol  =         0.00000000
  ---------------------------------------------------
  free energy    TOTEN  =      -258.68138672 eV

  energy without entropy =     -258.68138672  energy(sigma->0) =     -258.68138672


--------------------------------------------------------------------------------------------------------




--------------------------------------- Iteration      1(  16)  ---------------------------------------


    POTLOK:  cpu time      0.0511: real time      0.0536
    SETDIJ:  cpu time      0.4035: real time      0.4047
    EDDIAG:  cpu time      0.2683: real time      0.2718
  RMM-DIIS:  cpu time      0.9628: real time      0.9749
    ORTHCH:  cpu time      0.0509: real time      0.0519
       DOS:  cpu time      0.0004: real time      0.0004
    CHARGE:  cpu time      0.1142: real time      0.1417
    MIXING:  cpu time      0.0013: real time      0.0013
    --------------------------------------------
      LOOP:  cpu time      1.8525: real time      1.9005

 eigenvalue-minimisations  :  2322
 total energy-change (2. order) :-0.2081009E-01  (-0.1046215E-01)
 number of electron     240.0000005 magnetization      -0.1072142
 augmentation part        1.8164165 magnetization      -0.0938565

 Broyden mixing:
  rms(total) = 0.32092E-01    rms(broyden)= 0.32091E-01
  rms(prec ) = 0.38430E-01
  weight for this iteration     100.00

 eigenvalues of (default mixing * dielectric matrix)
  average eigenvalue GAMMA=   1.2536
  2.4505  1.9513  1.0496  0.6233  0.7011  0.7457

 Free energy of the ion-electron system (eV)
  ---------------------------------------------------
  alpha Z        PSCENC =       296.83041573
  Ewald energy   TEWEN  =     -8756.51427799
  -Hartree energ DENC   =     -2238.79792359
  -exchange      EXHF   =         0.00000000
  -V(xc)+E(xc)   XCENC  =       537.50865452
  PAW double counting   =      9841.98987021    -9986.41183712
  entropy T*S    EENTRO =        -0.00000000
  eigenvalues    EBANDS =     -2656.44709463
  atomic energy  EATOM  =     12703.13999606
  Solvation  Ediel_sol  =         0.00000000
  ---------------------------------------------------
  free energy    TOTEN  =      -258.70219681 eV

  energy without entropy =     -258.70219681  energy(sigma->0) =     -258.70219681


[...]
 -0.003   0.003   0.000   0.001   0.003   0.000   0.000   0.000   0.000  -0.000   0.000  -0.000   0.000  -0.000
 -0.002   0.002   0.000   0.000   0.000   0.004   0.000   0.000   0.000  -0.000  -0.000   0.000  -0.000  -0.000
  0.006  -0.006  -0.000   0.002  -0.003  -0.007   0.000  -0.000  -0.000   0.000   0.000   0.000   0.000   0.000
  0.011  -0.011  -0.000   0.003   0.003  -0.003   0.000   0.000  -0.000   0.000   0.000   0.000   0.000  -0.000
 -0.005   0.005   0.000   0.005  -0.001   0.003   0.000  -0.000   0.000   0.000   0.000   0.000  -0.000  -0.000
  0.006  -0.006  -0.000  -0.003   0.002  -0.007  -0.000   0.000  -0.000   0.000   0.000  -0.000   0.000   0.000
  0.009  -0.009  -0.000  -0.001  -0.005  -0.005  -0.000  -0.000  -0.000   0.000  -0.000  -0.000   0.000   0.000
 total augmentation occupancy for first ion, spin component:           2
 -0.000   0.000  -0.000   0.000   0.000  -0.000   0.000   0.000  -0.000  -0.000  -0.000   0.000  -0.000  -0.000
  0.000  -0.000   0.000  -0.000  -0.000   0.000  -0.000  -0.000   0.000   0.000  -0.000  -0.000   0.000   0.000
 -0.000   0.000   0.000  -0.000  -0.000   0.000  -0.000  -0.000   0.000  -0.000  -0.000  -0.000  -0.000   0.000
  0.000  -0.000  -0.000  -0.000  -0.000   0.000  -0.000  -0.000  -0.000  -0.000  -0.000   0.000  -0.000   0.000
  0.000  -0.000  -0.000  -0.000  -0.000   0.000  -0.000  -0.000  -0.000  -0.000  -0.000  -0.000  -0.000  -0.000
 -0.000   0.000   0.000   0.000   0.000   0.000  -0.000  -0.000  -0.000   0.000   0.000   0.000   0.000  -0.000
  0.000  -0.000  -0.000  -0.000  -0.000  -0.000  -0.000  -0.000  -0.000   0.000  -0.000  -0.000   0.000   0.000
  0.000  -0.000  -0.000  -0.000  -0.000  -0.000  -0.000  -0.000  -0.000   0.000  -0.000  -0.000   0.000   0.000
 -0.000   0.000   0.000  -0.000  -0.000  -0.000  -0.000  -0.000  -0.000   0.000  -0.000  -0.000   0.000   0.000
 -0.000   0.000  -0.000  -0.000  -0.000   0.000   0.000   0.000   0.000  -0.000  -0.000   0.000  -0.000  -0.000
 -0.000  -0.000  -0.000  -0.000  -0.000   0.000  -0.000  -0.000  -0.000  -0.000  -0.000   0.000  -0.000  -0.000
  0.000  -0.000  -0.000   0.000  -0.000   0.000  -0.000  -0.000  -0.000   0.000   0.000   0.000  -0.000  -0.000
 -0.000   0.000  -0.000  -0.000  -0.000   0.000   0.000   0.000   0.000  -0.000  -0.000  -0.000  -0.000  -0.000
 -0.000   0.000   0.000   0.000  -0.000  -0.000   0.000   0.000   0.000  -0.000  -0.000  -0.000  -0.000   0.000


------------------------ aborting loop because EDIFF is reached ----------------------------------------


    CHARGE:  cpu time      0.0956: real time      0.1058
    FORLOC:  cpu time      0.0039: real time      0.0039
    FORNL :  cpu time      0.3044: real time      0.3067
    STRESS:  cpu time      0.9061: real time      0.9123
    FORCOR:  cpu time      0.0502: real time      0.0505
    FORHAR:  cpu time      0.0084: real time      0.0085
    MIXING:  cpu time      0.0007: real time      0.0007
    OFIELD:  cpu time      0.0000: real time      0.0000

 ---------------------------------------------------------------------------------------------

         DFTD3 V3.0 Rev 1        
 Edisp (eV)  -13.37646

 E6    (eV) :    -8.2409
 E8    (eV) :    -5.1355
 % E8        : 38.39
    FORVDW:  cpu time      0.2925: real time      0.2944

  FORCE on cell =-STRESS in cart. coord.  units (eV):
  Direction    XX          YY          ZZ          XY          YZ          ZX
  --------------------------------------------------------------------------------------
  Alpha Z   296.83042   296.83042   296.83042
  Ewald   -2899.93142 -2928.35936 -2928.35936    27.25071   -24.62885    27.25071
  Hartree   764.38216   738.55021   738.55021     8.29821   -12.58515     8.29821
  E(xc)    -947.71953  -947.78344  -947.78344     0.05074     0.03489     0.05074
  Local   -1573.69083 -1511.62702 -1511.62702   -34.08729    33.37187   -34.08729
  n-local  1482.89645  1480.64921  1480.52848     0.33603     0.09498     1.32138
  augment  -356.86137  -356.48116  -356.48116    -0.13994     0.19177    -0.14632
  Kinetic  3246.96220  3243.29511  3243.10900     0.01019     0.10801     1.37289
  Fock        0.00000     0.00000     0.00000     0.00000     0.00000     0.00000
  vdW       -14.19928   -14.26636   -14.26636    -0.01893    -0.05147    -0.01893
  -------------------------------------------------------------------------------------
  Total      -1.33121     0.65420     0.65420     2.87059    -3.46369     2.87059
  in kB      -2.33220     1.14612     1.14612     5.02907    -6.06815     5.02907
  external pressure =       -0.01 kB  Pullay stress =        0.00 kB


 VOLUME and BASIS-vectors are now :
 -----------------------------------------------------------------------------
  energy-cutoff  :      520.00
  volume of cell :      914.52
      direct lattice vectors                 reciprocal lattice vectors
     9.706540782  0.000000000  0.000000000     0.103023314  0.000000000  0.000000000
     0.000000000  9.706540782  0.000000000     0.000000000  0.103023314  0.000000000
     0.000000000  0.000000000  9.706540782     0.000000000  0.000000000  0.103023314

  length of vectors
     9.706540782  9.706540782  9.706540782     0.103023314  0.103023314  0.103023314


 FORCES acting on ions
    electron-ion (+dipol)            ewald-force                    non-local-force                 convergence-correction
 -----------------------------------------------------------------------------------------------
   -.160E+01 -.107E+02 -.107E+02   0.855E+00 0.976E+01 0.976E+01   0.740E+00 0.921E+00 0.921E+00   -.110E-03 0.736E-04 0.736E-04
   -.798E+00 -.103E+02 -.103E+02   -.383E-01 0.903E+01 0.903E+01   0.833E+00 0.126E+01 0.126E+01   0.250E-04 -.865E-04 -.865E-04
   0.427E+01 0.834E+01 -.294E+01   -.340E+01 -.696E+01 0.159E+01   -.866E+00 -.138E+01 0.135E+01   -.854E-04 0.681E-04 -.796E-04
   0.427E+01 -.294E+01 0.834E+01   -.340E+01 0.159E+01 -.696E+01   -.866E+00 0.135E+01 -.138E+01   -.854E-04 -.796E-04 0.681E-04
   0.183E+01 0.155E+01 -.142E+01   -.395E+00 -.632E+00 0.757E+00   -.144E+01 -.922E+00 0.657E+00   -.546E-04 -.289E-04 -.124E-03
   -.960E+00 0.408E+01 0.717E+01   0.105E+00 -.285E+01 -.661E+01   0.857E+00 -.123E+01 -.552E+00   0.358E-04 0.364E-04 -.246E-03
   0.158E+01 0.269E+01 0.302E+01   -.250E+01 -.140E+01 -.262E+01   0.925E+00 -.128E+01 -.403E+00   0.632E-04 -.311E-04 -.108E-04
   0.259E+01 0.497E+01 0.340E+01   -.130E+01 -.416E+01 -.399E+01   -.129E+01 -.808E+00 0.586E+00   -.349E-04 0.231E-04 -.130E-03
   0.183E+01 -.142E+01 0.155E+01   -.395E+00 0.757E+00 -.632E+00   -.144E+01 0.657E+00 -.922E+00   -.546E-04 -.124E-03 -.289E-04
   -.960E+00 0.717E+01 0.408E+01   0.105E+00 -.661E+01 -.285E+01   0.857E+00 -.552E+00 -.123E+01   0.358E-04 -.246E-03 0.364E-04
   0.259E+01 0.340E+01 0.497E+01   -.130E+01 -.399E+01 -.416E+01   -.129E+01 0.586E+00 -.808E+00   -.349E-04 -.130E-03 0.231E-04
   0.158E+01 0.302E+01 0.269E+01   -.250E+01 -.262E+01 -.140E+01   0.925E+00 -.403E+00 -.128E+01   0.632E-04 -.108E-04 -.311E-04
   0.683E+00 0.583E+01 0.303E+01   0.429E+00 -.513E+01 -.377E+01   -.112E+01 -.698E+00 0.736E+00   0.281E-04 0.356E-04 0.967E-04
   0.899E+00 0.103E+01 0.331E+01   -.184E+01 0.781E-01 -.289E+01   0.949E+00 -.111E+01 -.420E+00   0.188E-05 0.123E-04 0.212E-03
   0.253E+01 -.705E-01 0.734E+01   -.322E+01 0.978E+00 -.683E+01   0.699E+00 -.910E+00 -.501E+00   0.269E-04 0.678E-04 0.304E-04
   0.825E+00 0.295E+01 0.924E+00   0.372E+00 -.216E+01 -.142E+01   -.120E+01 -.793E+00 0.492E+00   0.679E-04 -.493E-04 0.109E-03
   0.683E+00 0.303E+01 0.583E+01   0.429E+00 -.377E+01 -.513E+01   -.112E+01 0.736E+00 -.698E+00   0.281E-04 0.967E-04 0.356E-04
   0.899E+00 0.331E+01 0.103E+01   -.184E+01 -.289E+01 0.781E-01   0.949E+00 -.420E+00 -.111E+01   0.188E-05 0.212E-03 0.123E-04
   0.825E+00 0.924E+00 0.295E+01   0.372E+00 -.142E+01 -.216E+01   -.120E+01 0.492E+00 -.793E+00   0.679E-04 0.109E-03 -.493E-04
   0.253E+01 0.734E+01 -.705E-01   -.322E+01 -.683E+01 0.978E+00   0.699E+00 -.501E+00 -.910E+00   0.269E-04 0.304E-04 0.678E-04
   -.285E+01 -.129E+02 -.107E+02   0.204E+01 0.118E+02 0.949E+01   0.814E+00 0.103E+01 0.124E+01   -.486E-04 0.118E-03 -.679E-04
   -.285E+01 -.107E+02 -.129E+02   0.204E+01 0.949E+01 0.118E+02   0.814E+00 0.124E+01 0.103E+01   -.486E-04 -.679E-04 0.118E-03
   0.160E+01 0.313E+01 0.313E+01   -.773E+00 -.310E+01 -.310E+01   -.825E+00 -.310E-01 -.310E-01   0.916E-04 -.233E-04 -.233E-04
   0.342E+01 0.355E+01 0.355E+01   -.261E+01 -.335E+01 -.335E+01   -.798E+00 -.203E+00 -.203E+00   -.105E-03 0.657E-05 0.657E-05
   -.332E+01 -.506E+01 -.506E+01   0.341E+01 0.533E+01 0.533E+01   -.883E-01 -.271E+00 -.271E+00   -.175E-03 0.301E-03 0.301E-03
   -.541E+01 -.125E+01 -.125E+01   0.601E+01 0.123E+01 0.123E+01   -.600E+00 0.211E-01 0.211E-01   0.111E-03 -.291E-03 -.291E-03
   0.588E-01 -.156E+01 -.247E+01   0.359E+00 0.163E+01 0.264E+01   -.419E+00 -.671E-01 -.174E+00   -.322E-04 0.692E-04 -.161E-03
   0.588E-01 -.247E+01 -.156E+01   0.359E+00 0.264E+01 0.163E+01   -.419E+00 -.174E+00 -.671E-01   -.322E-04 -.161E-03 0.692E-04
   -.421E+02 0.425E+02 -.447E+02   0.450E+02 -.459E+02 0.477E+02   -.292E+01 0.339E+01 -.301E+01   0.201E-03 -.294E-03 -.282E-04
   -.343E+02 -.503E+02 0.333E+02   0.370E+02 0.540E+02 -.364E+02   -.264E+01 -.363E+01 0.312E+01   -.318E-03 -.365E-03 0.385E-03
   0.470E+02 0.428E+02 0.315E+02   -.502E+02 -.462E+02 -.343E+02   0.321E+01 0.339E+01 0.275E+01   0.109E-03 -.194E-03 -.279E-04
   0.381E+02 -.464E+02 -.322E+02   -.409E+02 0.498E+02 0.353E+02   0.280E+01 -.339E+01 -.308E+01   0.482E-04 0.671E-04 0.596E-04
   0.381E+02 -.322E+02 -.464E+02   -.409E+02 0.353E+02 0.498E+02   0.280E+01 -.308E+01 -.339E+01   0.482E-04 0.596E-04 0.671E-04
   0.470E+02 0.315E+02 0.428E+02   -.502E+02 -.343E+02 -.462E+02   0.321E+01 0.275E+01 0.339E+01   0.109E-03 -.279E-04 -.194E-03
   -.421E+02 -.447E+02 0.425E+02   0.450E+02 0.477E+02 -.459E+02   -.292E+01 -.301E+01 0.339E+01   0.201E-03 -.282E-04 -.294E-03
   -.343E+02 0.333E+02 -.503E+02   0.370E+02 -.364E+02 0.540E+02   -.264E+01 0.312E+01 -.363E+01   -.318E-03 0.385E-03 -.365E-03
   -.397E+02 -.488E+02 0.387E+02   0.424E+02 0.521E+02 -.420E+02   -.273E+01 -.330E+01 0.332E+01   0.219E-04 -.340E-03 -.342E-04
   -.397E+02 0.387E+02 -.488E+02   0.424E+02 -.420E+02 0.521E+02   -.273E+01 0.332E+01 -.330E+01   0.219E-04 -.342E-04 -.340E-03
   0.319E+02 -.372E+02 -.372E+02   -.347E+02 0.405E+02 0.405E+02   0.284E+01 -.331E+01 -.331E+01   0.711E-04 -.201E-03 -.201E-03
   0.482E+02 0.363E+02 0.363E+02   -.520E+02 -.392E+02 -.392E+02   0.382E+01 0.292E+01 0.292E+01   0.703E-04 -.292E-03 -.292E-03
   -.393E+02 -.503E+02 0.342E+02   0.421E+02 0.538E+02 -.375E+02   -.280E+01 -.342E+01 0.327E+01   -.366E-04 0.146E-03 0.235E-03
   -.393E+02 0.342E+02 -.503E+02   0.421E+02 -.375E+02 0.538E+02   -.280E+01 0.327E+01 -.342E+01   -.366E-04 0.235E-03 0.146E-03
   0.443E+02 -.382E+02 -.382E+02   -.475E+02 0.411E+02 0.411E+02   0.319E+01 -.294E+01 -.294E+01   -.240E-03 0.127E-03 0.127E-03
   0.482E+02 0.326E+02 0.326E+02   -.518E+02 -.354E+02 -.354E+02   0.356E+01 0.282E+01 0.282E+01   -.268E-04 0.303E-03 0.303E-03
   -.667E+01 -.741E+01 -.741E+01   0.711E+01 0.760E+01 0.760E+01   -.439E+00 -.195E+00 -.195E+00   -.241E-03 0.378E-04 0.378E-04
   -.119E+02 -.892E+01 -.892E+01   0.125E+02 0.921E+01 0.921E+01   -.680E+00 -.291E+00 -.291E+00   0.122E-03 -.940E-04 -.940E-04
   -.710E+01 -.482E+00 -.168E+02   0.740E+01 0.459E+00 0.172E+02   -.306E+00 0.228E-01 -.416E+00   -.249E-03 -.156E-03 0.239E-03
   -.710E+01 -.168E+02 -.482E+00   0.740E+01 0.172E+02 0.459E+00   -.306E+00 -.416E+00 0.228E-01   -.249E-03 0.239E-03 -.156E-03
   0.159E+01 0.150E+02 0.150E+02   -.158E+01 -.151E+02 -.151E+02   -.887E-02 0.130E+00 0.130E+00   -.346E-03 0.195E-03 0.195E-03
   -.493E+01 0.229E+02 0.229E+02   0.503E+01 -.233E+02 -.233E+02   -.988E-01 0.421E+00 0.421E+00   0.226E-03 0.301E-03 0.301E-03
   -.457E+01 0.257E+02 0.232E+02   0.462E+01 -.261E+02 -.236E+02   -.495E-01 0.390E+00 0.476E+00   0.586E-04 -.314E-03 0.334E-03
   -.457E+01 0.232E+02 0.257E+02   0.462E+01 -.236E+02 -.261E+02   -.495E-01 0.476E+00 0.390E+00   0.586E-04 0.334E-03 -.314E-03
 -----------------------------------------------------------------------------------------------
   0.359E+01 0.404E+01 0.404E+01   0.178E-13 0.213E-13 0.497E-13   -.359E+01 -.405E+01 -.405E+01   -.919E-03 0.186E-04 0.186E-04
 
 
 POSITION                                       TOTAL-FORCE (eV/Angst)
 -----------------------------------------------------------------------------------
      9.36211      3.30003      3.30003         0.000069      0.000058      0.000058
      9.35895      8.03915      8.03915         0.000018     -0.000067     -0.000067
      0.21926      1.73447      7.57485         0.000060     -0.000849      0.000358
      0.21926      7.57485      1.73447         0.000060      0.000358     -0.000849
      1.89408      2.02009      9.54234         0.000141      0.000139      0.000068
      3.03602      6.80599      0.18487         0.000164     -0.000089      0.000002
      7.78486      2.04062      0.23997        -0.000168      0.000189      0.000059
      6.59388      6.71946      9.43318         0.000076     -0.000105      0.000000
      1.89408      9.54234      2.02009         0.000141      0.000068      0.000139
      3.03602      0.18487      6.80599         0.000164      0.000002     -0.000089
      6.59388      9.43318      6.71946         0.000076      0.000000     -0.000105
      7.78486      0.23997      2.04062        -0.000168      0.000059      0.000189
      1.54424      6.75893      4.48806        -0.000302      0.000036     -0.000189
      2.96031      1.99812      5.09111         0.000044      0.000046      0.000022
      7.83674      6.81477      5.01928         0.000036      0.000009     -0.000020
      6.55997      1.95698      4.63953        -0.000103      0.000141      0.000040
      1.54424      4.48806      6.75893        -0.000302     -0.000189      0.000036
      2.96031      5.09111      1.99812         0.000044      0.000022      0.000046
      6.55997      4.63953      1.95698        -0.000103      0.000040      0.000141
      7.83674      5.01928      6.81477         0.000036     -0.000020      0.000009
      4.48049      3.22736      8.11695        -0.000072     -0.000078      0.000079
      4.48049      8.11695      3.22736        -0.000072      0.000079     -0.000078
      5.09117      2.32549      2.32549         0.000051      0.000003      0.000003
      5.04426      7.08611      7.08611         0.000045     -0.000139     -0.000139
      4.75162      4.88735      4.88735        -0.000333      0.000380      0.000380
      4.88449      9.69919      9.69919        -0.000141     -0.000274     -0.000274
      9.68637      4.84909      0.03449        -0.000212      0.000121     -0.000140
      9.68637      0.03449      4.84909        -0.000212     -0.000140      0.000121
      1.12040      8.59321      6.10717        -0.000121      0.000254     -0.000165
      1.11564      1.30875      3.71959        -0.000115     -0.000187      0.000215
      8.64351      8.47795      3.60194         0.000423      0.000198      0.000111
      8.37029      1.15286      5.96534         0.000325     -0.000128     -0.000267
      8.37029      5.96534      1.15286         0.000325     -0.000267     -0.000128
      8.64351      3.60194      8.47795         0.000423      0.000111      0.000198
      1.12040      6.10717      8.59321        -0.000121     -0.000165      0.000254
      1.11564      3.71959      1.30875        -0.000115      0.000215     -0.000187
      6.00987      1.24798      8.54317        -0.000129     -0.000237      0.000195
      6.00987      8.54317      1.24798        -0.000129      0.000195     -0.000237
      3.60465      1.13399      1.13399         0.000393     -0.000228     -0.000228
      3.75403      8.48542      8.48542         0.000225      0.000099      0.000099
      5.90113      6.14562      3.74563        -0.000297     -0.000246      0.000305
      5.90113      3.74563      6.14562        -0.000297      0.000305     -0.000246
      3.37996      5.96400      5.96400         0.000092     -0.000126     -0.000126
      3.68985      3.64059      3.64059         0.000302      0.000240      0.000240
      7.28699      7.26128      7.26128         0.000033     -0.000017     -0.000017
      7.30950      2.47040      2.47040        -0.000081      0.000048      0.000048
      2.41371      7.32362      2.37815        -0.000045      0.000048     -0.000167
      2.41371      2.37815      7.32362        -0.000045     -0.000167      0.000048
      9.66834      0.14247      0.14247        -0.000004      0.000045      0.000045
      9.55069      5.02574      5.02574        -0.000051      0.000050      0.000050
      4.77399      0.18763      5.00067        -0.000015      0.000107      0.000050
      4.77399      5.00067      0.18763        -0.000015      0.000050      0.000107
 -----------------------------------------------------------------------------------
    total drift:                               -0.001003     -0.009038     -0.009036


--------------------------------------------------------------------------------------------------------



  FREE ENERGIE OF THE ION-ELECTRON SYSTEM (eV)
  ---------------------------------------------------
  free  energy   TOTEN  =      -272.08653252 eV

  energy  without entropy=     -272.08653252  energy(sigma->0) =     -272.08653252
 
 d Force = 0.7597156E-06[ 0.346E-06, 0.117E-05]  d Energy = 0.1119421E-05-0.360E-06
 d Force = 0.5361000E-02[ 0.536E-02, 0.536E-02]  d Ewald  = 0.5361000E-02-0.327E-10


--------------------------------------------------------------------------------------------------------


    POTLOK:  cpu time      0.4565: real time      0.4585


--------------------------------------------------------------------------------------------------------


 stress matrix after NEB project (eV)
     -1.33121      2.87059      2.87059
      2.87059      0.65420     -3.46369
      2.87059     -3.46369      0.65420
  FORCES: max atom, RMS     0.000923    0.000335
  FORCE total and by dimension    0.002416    0.000849
  Stress total and by dimension    7.719037    3.463693
 Conjugate gradient step on ions:
 trial-energy change:   -0.000001  1 .order   -0.000001   -0.000001   -0.000000
  (g-gl).g = 0.658E-06      g.g   = 0.813E-06  gl.gl    = 0.125E-05
 g(Force)  = 0.813E-06   g(Stress)= 0.000E+00 ortho     = 0.154E-06
 gamma     =   0.52822
 trial     =   1.31279
 opt step  =   1.86031  (harmonic =   1.86031) maximal distance =0.00006879
 next E    =  -272.086532   (d E  =  -0.00000)


--------------------------------------------------------------------------------------------------------


  
 reached required accuracy - stopping structural energy minimisation
     LOOP+:  cpu time      6.1672: real time      6.2983
    4ORBIT:  cpu time      0.0000: real time      0.0000

 total amount of memory used by VASP MPI-rank0    46972. kBytes
=======================================================================

   base      :      30000. kBytes
   nonlr-proj:       6473. kBytes
   fftplans  :       1747. kBytes
   grid      :       5278. kBytes
   one-center:         62. kBytes
   wavefun   :       3412. kBytes
 
  
  
 General timing and accounting informations for this job:
 ========================================================
  
                  Total CPU time used (sec):       91.601
                            User time (sec):       89.993
                          System time (sec):        1.607
                         Elapsed time (sec):       96.944
  
                   Maximum memory used (kb):      395140.
                   Average memory used (kb):          N/A
  
                          Minor page faults:        70480
                          Major page faults:          138
                 Voluntary context switches:         6385
