<?xml version="1.0" encoding="ISO-8859-1"?>
<modeling>
 <generator>
  <i name="program" type="string">vasp </i>
  <i name="version" type="string">6.4.1  </i>
  <i name="subversion" type="string">05Apr23 (build Jun 07 2023 15:38:11) complex                          parallel </i>
  <i name="platform" type="string">LinuxIFC </i>
  <i name="date" type="string">2023 10 20 </i>
  <i name="time" type="string">08:23:55 </i>
 </generator>
 <incar>
  <i type="string" name="PREC">Accu</i>
  <i type="string" name="ALGO">F</i>
  <i type="logical" name="LDIAG"> T  </i>
  <i type="int" name="ISPIN">     2</i>
  <i type="int" name="NELM">   100</i>
  <i type="int" name="NELMDL">   -10</i>
  <i type="int" name="IBRION">     2</i>
  <i name="EDIFF">      0.00000100</i>
  <i name="EDIFFG">     -0.00100000</i>
  <i type="int" name="NSW">  1000</i>
  <i type="int" name="ISIF">     2</i>
  <i name="ENCUT">    520.00000000</i>
  <i name="POTIM">      0.20000000</i>
  <i type="string" name="LREAL">Auto</i>
  <i type="logical" name="LPLANE"> T  </i>
  <i type="int" name="ISMEAR">     0</i>
  <i name="SIGMA">      0.03000000</i>
  <i type="int" name="LMAXMIX">     4</i>
  <i type="logical" name="LWAVE"> F  </i>
  <i type="logical" name="LCHARG"> F  </i>
  <i type="logical" name="LASPH"> T  </i>
  <i type="string" name="GGA">PE</i>
  <i type="int" name="IVDW">    12</i>
 </incar>
 <primitive_cell>
  <structure name="primitive_cell" >
   <crystal>
    <varray name="basis" >
     <v>       9.70654078       0.00000000       0.00000000 </v>
     <v>       0.00000000       9.70654078       0.00000000 </v>
     <v>       0.00000000       0.00000000       9.70654078 </v>
    </varray>
    <i name="volume">    914.52051171 </i>
    <varray name="rec_basis" >
     <v>       0.10302331       0.00000000       0.00000000 </v>
     <v>       0.00000000       0.10302331       0.00000000 </v>
     <v>       0.00000000       0.00000000       0.10302331 </v>
    </varray>
   </crystal>
   <varray name="positions" >
    <v>       0.96451412       0.33997821       0.33997821 </v>
    <v>       0.96418940       0.82822222       0.82822222 </v>
    <v>       0.02258817       0.17871803       0.78037246 </v>
    <v>       0.02258817       0.78037246       0.17871803 </v>
    <v>       0.19513204       0.20811200       0.98308110 </v>
    <v>       0.31277603       0.70117783       0.01904727 </v>
    <v>       0.80202751       0.21022582       0.02472092 </v>
    <v>       0.67932109       0.69226423       0.97183703 </v>
    <v>       0.19513204       0.98308110       0.20811200 </v>
    <v>       0.31277603       0.01904727       0.70117783 </v>
    <v>       0.67932109       0.97183703       0.69226423 </v>
    <v>       0.80202751       0.02472092       0.21022582 </v>
    <v>       0.15910247       0.69632489       0.46237928 </v>
    <v>       0.30497981       0.20585209       0.52449987 </v>
    <v>       0.80736639       0.70207895       0.51710366 </v>
    <v>       0.67583342       0.20160969       0.47797700 </v>
    <v>       0.15910247       0.46237928       0.69632489 </v>
    <v>       0.30497981       0.52449987       0.20585209 </v>
    <v>       0.67583342       0.47797700       0.20160969 </v>
    <v>       0.80736639       0.51710366       0.70207895 </v>
    <v>       0.46159767       0.33249612       0.83623228 </v>
    <v>       0.46159767       0.83623228       0.33249612 </v>
    <v>       0.52450897       0.23957892       0.23957892 </v>
    <v>       0.51967580       0.73003915       0.73003915 </v>
    <v>       0.48952988       0.50351070       0.50351070 </v>
    <v>       0.50321023       0.99924223       0.99924223 </v>
    <v>       0.99791817       0.49957299       0.00354938 </v>
    <v>       0.99791817       0.00354938       0.49957299 </v>
    <v>       0.11542357       0.88530362       0.62917437 </v>
    <v>       0.11493439       0.13482490       0.38320685 </v>
    <v>       0.89047985       0.87343237       0.37109076 </v>
    <v>       0.86233969       0.11876430       0.61456802 </v>
    <v>       0.86233969       0.61456802       0.11876430 </v>
    <v>       0.89047985       0.37109076       0.87343237 </v>
    <v>       0.11542357       0.62917437       0.88530362 </v>
    <v>       0.11493439       0.38320685       0.13482490 </v>
    <v>       0.61915296       0.12856558       0.88014995 </v>
    <v>       0.61915296       0.88014995       0.12856558 </v>
    <v>       0.37136400       0.11682587       0.11682587 </v>
    <v>       0.38675680       0.87420142       0.87420142 </v>
    <v>       0.60795266       0.63313495       0.38588875 </v>
    <v>       0.60795266       0.38588875       0.63313495 </v>
    <v>       0.34822795       0.61442631       0.61442631 </v>
    <v>       0.38014263       0.37506751       0.37506751 </v>
    <v>       0.75072739       0.74808013       0.74808013 </v>
    <v>       0.75304694       0.25450587       0.25450587 </v>
    <v>       0.24866866       0.75450249       0.24500657 </v>
    <v>       0.24866866       0.24500657       0.75450249 </v>
    <v>       0.99606229       0.01468198       0.01468198 </v>
    <v>       0.98394713       0.51777125       0.51777125 </v>
    <v>       0.49182988       0.01933079       0.51519059 </v>
    <v>       0.49182988       0.51519059       0.01933079 </v>
   </varray>
  </structure>
  <varray name="primitive_index" >
   <v type="int" >        1 </v>
   <v type="int" >        2 </v>
   <v type="int" >        3 </v>
   <v type="int" >        4 </v>
   <v type="int" >        5 </v>
   <v type="int" >        6 </v>
   <v type="int" >        7 </v>
   <v type="int" >        8 </v>
   <v type="int" >        9 </v>
   <v type="int" >       10 </v>
   <v type="int" >       11 </v>
   <v type="int" >       12 </v>
   <v type="int" >       13 </v>
   <v type="int" >       14 </v>
   <v type="int" >       15 </v>
   <v type="int" >       16 </v>
   <v type="int" >       17 </v>
   <v type="int" >       18 </v>
   <v type="int" >       19 </v>
   <v type="int" >       20 </v>
   <v type="int" >       21 </v>
   <v type="int" >       22 </v>
   <v type="int" >       23 </v>
   <v type="int" >       24 </v>
   <v type="int" >       25 </v>
   <v type="int" >       26 </v>
   <v type="int" >       27 </v>
   <v type="int" >       28 </v>
   <v type="int" >       29 </v>
   <v type="int" >       30 </v>
   <v type="int" >       31 </v>
   <v type="int" >       32 </v>
   <v type="int" >       33 </v>
   <v type="int" >       34 </v>
   <v type="int" >       35 </v>
   <v type="int" >       36 </v>
   <v type="int" >       37 </v>
   <v type="int" >       38 </v>
   <v type="int" >       39 </v>
   <v type="int" >       40 </v>
   <v type="int" >       41 </v>
   <v type="int" >       42 </v>
   <v type="int" >       43 </v>
   <v type="int" >       44 </v>
   <v type="int" >       45 </v>
   <v type="int" >       46 </v>
   <v type="int" >       47 </v>
   <v type="int" >       48 </v>
   <v type="int" >       49 </v>
   <v type="int" >       50 </v>
   <v type="int" >       51 </v>
   <v type="int" >       52 </v>
  </varray>
 </primitive_cell>
 <kpoints>
  <generation param="Monkhorst-Pack">
   <v type="int" name="divisions">       2        2        2 </v>
   <v name="usershift">      0.00000000       0.00000000       0.00000000 </v>
   <v name="genvec1">      0.50000000       0.00000000       0.00000000 </v>
   <v name="genvec2">      0.00000000       0.50000000       0.00000000 </v>
   <v name="genvec3">      0.00000000       0.00000000       0.50000000 </v>
   <v name="shift">      0.50000000       0.50000000       0.50000000 </v>
  </generation>
  <varray name="kpointlist" >
   <v>       0.25000000       0.25000000       0.25000000 </v>
   <v>      -0.25000000       0.25000000       0.25000000 </v>
   <v>      -0.25000000      -0.25000000       0.25000000 </v>
  </varray>
  <varray name="weights" >
   <v>       0.25000000 </v>
   <v>       0.25000000 </v>
   <v>       0.50000000 </v>
  </varray>
 </kpoints>
 <parameters>
  <separator name="general" >
   <i type="string" name="SYSTEM">unknown system</i>
   <i type="logical" name="LCOMPAT"> F  </i>
  </separator>
  <separator name="electronic" >
   <i type="string" name="PREC">accu</i>
   <i name="ENMAX">    520.00000000</i>
   <i name="ENAUG">   1041.69900000</i>
   <i name="EDIFF">      0.00000100</i>
   <i type="int" name="IALGO">    68</i>
   <i type="int" name="IWAVPR">    11</i>
   <i type="int" name="NBANDS">   176</i>
   <i type="int" name="NBANDSLOW">    -1</i>
   <i type="int" name="NBANDSHIGH">    -1</i>
   <i name="NELECT">    240.00000000</i>
   <i type="int" name="TURBO">     0</i>
   <i type="int" name="IRESTART">     0</i>
   <i type="int" name="NREBOOT">     0</i>
   <i type="int" name="NMIN">     0</i>
   <i name="EREF">      0.00000000</i>
   <separator name="electronic smearing" >
    <i type="int" name="ISMEAR">     0</i>
    <i name="SIGMA">      0.03000000</i>
    <i name="KSPACING">      0.50000000</i>
    <i type="logical" name="KGAMMA"> T  </i>
    <i type="logical" name="KBLOWUP"> T  </i>
   </separator>
   <separator name="electronic projectors" >
    <i type="logical" name="LREAL"> T  </i>
    <v name="ROPT">     -0.00025000     -0.00025000     -0.00025000     -0.00025000</v>
    <i type="int" name="LMAXPAW">  -100</i>
    <i type="int" name="LMAXMIX">     4</i>
    <i type="logical" name="NLSPLINE"> F  </i>
   </separator>
   <separator name="electronic startup" >
    <i type="int" name="ISTART">     0</i>
    <i type="int" name="ICHARG">     2</i>
    <i type="int" name="INIWAV">     1</i>
   </separator>
   <separator name="electronic spin" >
    <i type="int" name="ISPIN">     2</i>
    <i type="logical" name="LNONCOLLINEAR"> F  </i>
    <v name="MAGMOM">      1.00000000      1.00000000      1.00000000      1.00000000      1.00000000      1.00000000      1.00000000      1.00000000      1.00000000      1.00000000      1.00000000      1.00000000      1.00000000      1.00000000      1.00000000      1.00000000      1.00000000      1.00000000      1.00000000      1.00000000
      1.00000000      1.00000000      1.00000000      1.00000000      1.00000000      1.00000000      1.00000000      1.00000000      1.00000000      1.00000000      1.00000000      1.00000000      1.00000000      1.00000000      1.00000000      1.00000000      1.00000000      1.00000000      1.00000000      1.00000000
      1.00000000      1.00000000      1.00000000      1.00000000      1.00000000      1.00000000      1.00000000      1.00000000      1.00000000      1.00000000      1.00000000      1.00000000</v>
    <i name="NUPDOWN">     -1.00000000</i>
    <i type="logical" name="LSORBIT"> F  </i>
    <v name="SAXIS">      0.00000000      0.00000000      1.00000000</v>
    <i type="logical" name="LSPIRAL"> F  </i>
    <v name="QSPIRAL">      0.00000000      0.00000000      0.00000000</v>
    <i type="logical" name="LZEROZ"> F  </i>
   </separator>
   <separator name="electronic exchange-correlation" >
    <i type="logical" name="LASPH"> T  </i>
    <i type="logical" name="LMETAGGA"> F  </i>
   </separator>
   <separator name="electronic convergence" >
    <i type="int" name="NELM">   100</i>
    <i type="int" name="NELMDL">   -10</i>
    <i type="int" name="NELMIN">     2</i>
    <i name="ENINI">    520.00000000</i>
    <separator name="electronic convergence detail" >
     <i type="logical" name="LDIAG"> T  </i>
     <i type="logical" name="LSUBROT"> F  </i>
     <i name="WEIMIN">      0.00100000</i>
     <i name="EBREAK">      0.00000000</i>
     <i name="DEPER">      0.30000000</i>
     <i type="int" name="NRMM">     4</i>
     <i name="TIME">      0.40000000</i>
    </separator>
   </separator>
   <separator name="electronic mixer" >
    <i name="AMIX">      0.40000000</i>
    <i name="BMIX">      1.00000000</i>
    <i name="AMIN">      0.10000000</i>
    <i name="AMIX_MAG">      1.60000000</i>
    <i name="BMIX_MAG">      1.00000000</i>
    <separator name="electronic mixer details" >
     <i type="int" name="IMIX">     4</i>
     <i type="logical" name="MIXFIRST"> F  </i>
     <i type="int" name="MAXMIX">   -45</i>
     <i name="WC">    100.00000000</i>
     <i type="int" name="INIMIX">     1</i>
     <i type="int" name="MIXPRE">     1</i>
     <i type="int" name="MREMOVE">     5</i>
    </separator>
   </separator>
   <separator name="electronic dipolcorrection" >
    <i type="logical" name="LDIPOL"> F  </i>
    <i type="logical" name="LMONO"> F  </i>
    <i type="int" name="IDIPOL">     0</i>
    <i name="EPSILON">      1.00000000</i>
    <v name="DIPOL">   -100.00000000   -100.00000000   -100.00000000</v>
    <i name="EFIELD">      0.00000000</i>
   </separator>
  </separator>
  <separator name="grids" >
   <i type="int" name="NGX">    72</i>
   <i type="int" name="NGY">    72</i>
   <i type="int" name="NGZ">    72</i>
   <i type="int" name="NGXF">   144</i>
   <i type="int" name="NGYF">   144</i>
   <i type="int" name="NGZF">   144</i>
   <i type="logical" name="ADDGRID"> F  </i>
  </separator>
  <separator name="ionic" >
   <i type="int" name="NSW">  1000</i>
   <i type="int" name="IBRION">     2</i>
   <i type="int" name="MDALGO">     0</i>
   <i type="int" name="ISIF">     2</i>
   <i name="PSTRESS">      0.00000000</i>
   <i name="EDIFFG">     -0.00100000</i>
   <i type="int" name="NFREE">     1</i>
   <i name="POTIM">      0.20000000</i>
   <i name="SMASS">     -3.00000000</i>
   <i name="SCALEE">      1.00000000</i>
  </separator>
  <separator name="ionic md" >
   <i name="TEBEG">      0.00010000</i>
   <i name="TEEND">      0.00010000</i>
   <i type="int" name="NBLOCK">     1</i>
   <i type="int" name="KBLOCK">  1000</i>
   <i type="int" name="NPACO">   256</i>
   <i name="APACO">     10.00000000</i>
  </separator>
  <separator name="symmetry" >
   <i type="int" name="ISYM">     2</i>
   <i name="SYMPREC">      0.00001000</i>
  </separator>
  <separator name="dos" >
   <i type="int" name="LORBIT">     0</i>
   <v name="RWIGS">     -1.00000000     -1.00000000     -1.00000000     -1.00000000</v>
   <i type="int" name="NEDOS">   301</i>
   <i name="EMIN">     10.00000000</i>
   <i name="EMAX">    -10.00000000</i>
   <i name="EFERMI">      0.00000000</i>
  </separator>
  <separator name="writing" >
   <i type="int" name="NWRITE">     2</i>
   <i type="logical" name="LWAVE"> F  </i>
   <i type="logical" name="LDOWNSAMPLE"> F  </i>
   <i type="logical" name="LCHARG"> F  </i>
   <i type="logical" name="LPARD"> F  </i>
   <i type="logical" name="LVTOT"> F  </i>
   <i type="logical" name="LVHAR"> F  </i>
   <i type="logical" name="LELF"> F  </i>
   <i type="logical" name="LOPTICS"> F  </i>
   <v name="STM">      0.00000000      0.00000000      0.00000000      0.00000000      0.00000000      0.00000000      0.00000000</v>
  </separator>
  <separator name="performance" >
   <i type="int" name="NPAR">     4</i>
   <i type="int" name="NSIM">     4</i>
   <i type="int" name="NBLK">    -1</i>
   <i type="logical" name="LPLANE"> T  </i>
   <i type="logical" name="LSCALAPACK"> T  </i>
   <i type="logical" name="LSCAAWARE"> F  </i>
   <i type="logical" name="LSCALU"> F  </i>
   <i type="logical" name="LASYNC"> F  </i>
   <i type="logical" name="LORBITALREAL"> F  </i>
  </separator>
  <separator name="miscellaneous" >
   <i type="int" name="IDIOT">     3</i>
   <i type="int" name="PHON_NSTRUCT">    -1</i>
   <i type="logical" name="LMUSIC"> F  </i>
   <v name="POMASS">      7.01000000     30.97400000     32.06600000     35.45300000</v>
   <v name="DARWINR">      0.00000000      0.00000000      0.00000000      0.00000000</v>
   <v name="DARWINV">      1.00000000      1.00000000      1.00000000      1.00000000</v>
   <i type="logical" name="LCORR"> T  </i>
  </separator>
  <i type="logical" name="GGA_COMPAT"> T  </i>
  <i type="logical" name="LBERRY"> F  </i>
  <i type="int" name="ICORELEVEL">     0</i>
  <i type="logical" name="LDAU"> F  </i>
  <i type="int" name="I_CONSTRAINED_M">     0</i>
  <separator name="electronic exchange-correlation" >
   <i type="string" name="GGA">PE</i>
   <i type="int" name="VOSKOWN">     0</i>
   <i type="logical" name="LHFCALC"> F  </i>
   <i type="string" name="PRECFOCK"></i>
   <i type="logical" name="LSYMGRAD"> F  </i>
   <i type="logical" name="LHFONE"> F  </i>
   <i type="logical" name="LRHFCALC"> F  </i>
   <i type="logical" name="LTHOMAS"> F  </i>
   <i type="logical" name="LMODELHF"> F  </i>
   <i type="logical" name="LFOCKACE"> F  </i>
   <i name="ENCUT4O">     -1.00000000</i>
   <i type="int" name="EXXOEP">     0</i>
   <i type="int" name="FOURORBIT">     0</i>
   <i name="AEXX">      0.00000000</i>
   <i name="HFALPHA">      0.00000000</i>
   <i name="MCALPHA">      0.00000000</i>
   <i name="ALDAX">      1.00000000</i>
   <i name="AGGAX">      1.00000000</i>
   <i name="ALDAC">      1.00000000</i>
   <i name="AGGAC">      1.00000000</i>
   <i type="int" name="NKREDX">     1</i>
   <i type="int" name="NKREDY">     1</i>
   <i type="int" name="NKREDZ">     1</i>
   <i type="logical" name="SHIFTRED"> F  </i>
   <i type="logical" name="ODDONLY"> F  </i>
   <i type="logical" name="EVENONLY"> F  </i>
   <i type="int" name="LMAXFOCK">     0</i>
   <i type="int" name="NMAXFOCKAE">     0</i>
   <i type="logical" name="LFOCKAEDFT"> F  </i>
   <i name="HFSCREEN">      0.00000000</i>
   <i name="HFSCREENC">      0.00000000</i>
   <i type="int" name="NBANDSGWLOW">     0</i>
  </separator>
  <separator name="vdW DFT" >
   <i type="logical" name="LUSE_VDW"> F  </i>
   <i type="int" name="IVDW_NL">     1</i>
   <i type="logical" name="LSPIN_VDW"> F  </i>
   <i name="Zab_VDW">     -0.84910000</i>
   <i name="PARAM1">      0.12340000</i>
   <i name="PARAM2">      1.00000000</i>
   <i name="PARAM3">      0.00000000</i>
  </separator>
  <separator name="model GW" >
   <i type="int" name="MODEL_GW">     0</i>
   <i name="MODEL_EPS0">     10.55215975</i>
   <i name="MODEL_ALPHA">      1.00000000</i>
  </separator>
  <separator name="linear response parameters" >
   <i type="logical" name="LEPSILON"> F  </i>
   <i type="logical" name="LRPA"> F  </i>
   <i type="logical" name="LNABLA"> F  </i>
   <i type="logical" name="LVEL"> F  </i>
   <i name="CSHIFT">      0.10000000</i>
   <i name="OMEGAMAX">     -1.00000000</i>
   <i name="DEG_THRESHOLD">      0.00200000</i>
   <i name="RTIME">     -0.10000000</i>
   <i name="WPLASMAI">      0.00000000</i>
   <v name="DFIELD">      0.00000000      0.00000000      0.00000000</v>
   <v name="WPLASMA">      0.00000000      0.00000000      0.00000000      0.00000000      0.00000000      0.00000000      0.00000000      0.00000000      0.00000000</v>
  </separator>
  <separator name="orbital magnetization" >
   <i type="logical" name="NUCIND"> F  </i>
   <v name="MAGPOS">      0.00000000      0.00000000      0.00000000</v>
   <i type="logical" name="LNICSALL"> T  </i>
   <i type="logical" name="ORBITALMAG"> F  </i>
   <i type="logical" name="LMAGBLOCH"> F  </i>
   <i type="logical" name="LCHIMAG"> F  </i>
   <i type="logical" name="LGAUGE"> T  </i>
   <i type="int" name="MAGATOM">     0</i>
   <v name="MAGDIPOL">      0.00000000      0.00000000      0.00000000</v>
   <v name="AVECCONST">      0.00000000      0.00000000      0.00000000</v>
  </separator>
  <separator name="response functions" >
   <i type="logical" name="LALL_IN_ONE"> F  </i>
   <i type="int" name="IALL_IN_ONE">    -1</i>
   <i type="int" name="NBANDS_WAVE">    -1</i>
   <i type="logical" name="LFINITE_TEMPERATURE"> F  </i>
   <i type="logical" name="LADDER"> F  </i>
   <i type="logical" name="LRPAFORCE"> F  </i>
   <i type="logical" name="LFXC"> F  </i>
   <i type="logical" name="LHARTREE"> T  </i>
   <i type="int" name="IBSE">     0</i>
   <v type="int" name="KPOINT">    -1     0     0     0</v>
   <i type="logical" name="LTCTC"> F  </i>
   <i type="logical" name="LTCTE"> F  </i>
   <i type="logical" name="LTETE"> F  </i>
   <i type="logical" name="LTRIPLET"> F  </i>
   <i type="logical" name="LFXCEPS"> F  </i>
   <i type="logical" name="LFXHEG"> F  </i>
   <i type="int" name="NATURALO">     2</i>
   <i type="logical" name="LHOLEGF"> F  </i>
   <i type="logical" name="L2ORDER"> F  </i>
   <i type="logical" name="LDMP1"> F  </i>
   <i type="logical" name="LMP2LT"> F  </i>
   <i type="logical" name="LSMP2LT"> F  </i>
   <i type="logical" name="LGWLF"> F  </i>
   <i name="ENCUTGW">     -1.60000002</i>
   <i name="ENCUTGWSOFT">     -1.60000002</i>
   <i name="ENCUTLF">     -1.00000000</i>
   <i type="logical" name="LESF_SPLINES"> F  </i>
   <i type="int" name="LMAXMP2">    -1</i>
   <i name="SCISSOR">      0.00000000</i>
   <i type="int" name="NOMEGA">     0</i>
   <i type="int" name="NOMEGAR">     0</i>
   <i type="int" name="NBANDSGW">    -1</i>
   <i type="int" name="NBANDSO">    -1</i>
   <i type="int" name="NBANDSV">    -1</i>
   <i type="int" name="NELMGW">     1</i>
   <i type="int" name="NELMHF">     1</i>
   <i type="int" name="DIM">     3</i>
   <i type="int" name="IESPILON">     4</i>
   <i type="int" name="ANTIRES">     0</i>
   <i name="OMEGAMAX">    -30.00000000</i>
   <i name="OMEGAMIN">    -30.00000000</i>
   <i name="OMEGATL">   -200.00000000</i>
   <i type="int" name="OMEGAGRID">     0</i>
   <i name="CSHIFT">     -0.10000000</i>
   <i type="logical" name="LSELFENERGY"> F  </i>
   <i type="logical" name="LSPECTRAL"> F  </i>
   <i type="logical" name="LSPECTRALGW"> F  </i>
   <i type="logical" name="LSINGLES"> F  </i>
   <i type="logical" name="LFERMIGW"> F  </i>
   <i type="logical" name="ODDONLYGW"> F  </i>
   <i type="logical" name="EVENONLYGW"> F  </i>
   <i type="int" name="NKREDLFX">     1</i>
   <i type="int" name="NKREDLFY">     1</i>
   <i type="int" name="NKREDLFZ">     1</i>
   <i type="int" name="MAXMEM">  2800</i>
   <i type="int" name="TELESCOPE">     0</i>
   <i type="int" name="NTAUPAR">    -1</i>
   <i type="int" name="NOMEGAPAR">    -1</i>
   <i name="DAMP_NEWTON">      0.80000001</i>
   <i name="LAMBDA">      1.00000000</i>
  </separator>
  <separator name="External order field" >
   <i name="OFIELD_KAPPA">      0.00000000</i>
   <v name="OFIELD_K">      0.00000000      0.00000000      0.00000000</v>
   <i name="OFIELD_Q6_NEAR">      0.00000000</i>
   <i name="OFIELD_Q6_FAR">      0.00000000</i>
   <i name="OFIELD_A">      0.00000000</i>
  </separator>
  <separator name="optional k-points parameters" >
   <i type="int" name="KPOINTS_OPT_MODE">     1</i>
   <i type="logical" name="LKPOINTS_OPT"> F  </i>
  </separator>
 </parameters>
 <atominfo>
  <atoms>      52 </atoms>
  <types>       4 </types>
  <array name="atoms" >
   <dimension dim="1">ion</dimension>
   <field type="string">element</field>
   <field type="int">atomtype</field>
   <set>
    <rc><c>Li</c><c>   1</c></rc>
    <rc><c>Li</c><c>   1</c></rc>
    <rc><c>Li</c><c>   1</c></rc>
    <rc><c>Li</c><c>   1</c></rc>
    <rc><c>Li</c><c>   1</c></rc>
    <rc><c>Li</c><c>   1</c></rc>
    <rc><c>Li</c><c>   1</c></rc>
    <rc><c>Li</c><c>   1</c></rc>
    <rc><c>Li</c><c>   1</c></rc>
    <rc><c>Li</c><c>   1</c></rc>
    <rc><c>Li</c><c>   1</c></rc>
    <rc><c>Li</c><c>   1</c></rc>
    <rc><c>Li</c><c>   1</c></rc>
    <rc><c>Li</c><c>   1</c></rc>
    <rc><c>Li</c><c>   1</c></rc>
    <rc><c>Li</c><c>   1</c></rc>
    <rc><c>Li</c><c>   1</c></rc>
    <rc><c>Li</c><c>   1</c></rc>
    <rc><c>Li</c><c>   1</c></rc>
    <rc><c>Li</c><c>   1</c></rc>
    <rc><c>Li</c><c>   1</c></rc>
    <rc><c>Li</c><c>   1</c></rc>
    <rc><c>Li</c><c>   1</c></rc>
    <rc><c>Li</c><c>   1</c></rc>
    <rc><c>P </c><c>   2</c></rc>
    <rc><c>P </c><c>   2</c></rc>
    <rc><c>P </c><c>   2</c></rc>
    <rc><c>P </c><c>   2</c></rc>
    <rc><c>S </c><c>   3</c></rc>
    <rc><c>S </c><c>   3</c></rc>
    <rc><c>S </c><c>   3</c></rc>
    <rc><c>S </c><c>   3</c></rc>
    <rc><c>S </c><c>   3</c></rc>
    <rc><c>S </c><c>   3</c></rc>
    <rc><c>S </c><c>   3</c></rc>
    <rc><c>S </c><c>   3</c></rc>
    <rc><c>S </c><c>   3</c></rc>
    <rc><c>S </c><c>   3</c></rc>
    <rc><c>S </c><c>   3</c></rc>
    <rc><c>S </c><c>   3</c></rc>
    <rc><c>S </c><c>   3</c></rc>
    <rc><c>S </c><c>   3</c></rc>
    <rc><c>S </c><c>   3</c></rc>
    <rc><c>S </c><c>   3</c></rc>
    <rc><c>S </c><c>   3</c></rc>
    <rc><c>S </c><c>   3</c></rc>
    <rc><c>S </c><c>   3</c></rc>
    <rc><c>S </c><c>   3</c></rc>
    <rc><c>Cl</c><c>   4</c></rc>
    <rc><c>Cl</c><c>   4</c></rc>
    <rc><c>Cl</c><c>   4</c></rc>
    <rc><c>Cl</c><c>   4</c></rc>
   </set>
  </array>
  <array name="atomtypes" >
   <dimension dim="1">type</dimension>
   <field type="int">atomspertype</field>
   <field type="string">element</field>
   <field>mass</field>
   <field>valence</field>
   <field type="string">pseudopotential</field>
   <set>
    <rc><c>  24</c><c>Li</c><c>      7.01000000</c><c>      3.00000000</c><c>  PAW_PBE Li_sv_GW 25Mar2010            </c></rc>
    <rc><c>   4</c><c>P </c><c>     30.97400000</c><c>      5.00000000</c><c>  PAW_PBE P_GW 19Mar2012                </c></rc>
    <rc><c>  20</c><c>S </c><c>     32.06600000</c><c>      6.00000000</c><c>  PAW_PBE S_GW 19Mar2012                </c></rc>
    <rc><c>   4</c><c>Cl</c><c>     35.45300000</c><c>      7.00000000</c><c>  PAW_PBE Cl_GW 19Mar2012               </c></rc>
   </set>
  </array>
 </atominfo>
 <structure name="initialpos" >
  <crystal>
   <varray name="basis" >
    <v>       9.70654078       0.00000000       0.00000000 </v>
    <v>       0.00000000       9.70654078       0.00000000 </v>
    <v>       0.00000000       0.00000000       9.70654078 </v>
   </varray>
   <i name="volume">    914.52051171 </i>
   <varray name="rec_basis" >
    <v>       0.10302331       0.00000000       0.00000000 </v>
    <v>       0.00000000       0.10302331       0.00000000 </v>
    <v>       0.00000000       0.00000000       0.10302331 </v>
   </varray>
  </crystal>
  <varray name="positions" >
   <v>       0.96451412       0.33997821       0.33997821 </v>
   <v>       0.96418940       0.82822222       0.82822222 </v>
   <v>       0.02258817       0.17871803       0.78037246 </v>
   <v>       0.02258817       0.78037246       0.17871803 </v>
   <v>       0.19513204       0.20811200       0.98308110 </v>
   <v>       0.31277603       0.70117783       0.01904727 </v>
   <v>       0.80202751       0.21022582       0.02472092 </v>
   <v>       0.67932109       0.69226423       0.97183703 </v>
   <v>       0.19513204       0.98308110       0.20811200 </v>
   <v>       0.31277603       0.01904727       0.70117783 </v>
   <v>       0.67932109       0.97183703       0.69226423 </v>
   <v>       0.80202751       0.02472092       0.21022582 </v>
   <v>       0.15910247       0.69632489       0.46237928 </v>
   <v>       0.30497981       0.20585209       0.52449987 </v>
   <v>       0.80736639       0.70207895       0.51710366 </v>
   <v>       0.67583342       0.20160969       0.47797700 </v>
   <v>       0.15910247       0.46237928       0.69632489 </v>
   <v>       0.30497981       0.52449987       0.20585209 </v>
   <v>       0.67583342       0.47797700       0.20160969 </v>
   <v>       0.80736639       0.51710366       0.70207895 </v>
   <v>       0.46159767       0.33249612       0.83623228 </v>
   <v>       0.46159767       0.83623228       0.33249612 </v>
   <v>       0.52450897       0.23957892       0.23957892 </v>
   <v>       0.51967580       0.73003915       0.73003915 </v>
   <v>       0.48952988       0.50351070       0.50351070 </v>
   <v>       0.50321023       0.99924223       0.99924223 </v>
   <v>       0.99791817       0.49957299       0.00354938 </v>
   <v>       0.99791817       0.00354938       0.49957299 </v>
   <v>       0.11542357       0.88530362       0.62917437 </v>
   <v>       0.11493439       0.13482490       0.38320685 </v>
   <v>       0.89047985       0.87343237       0.37109076 </v>
   <v>       0.86233969       0.11876430       0.61456802 </v>
   <v>       0.86233969       0.61456802       0.11876430 </v>
   <v>       0.89047985       0.37109076       0.87343237 </v>
   <v>       0.11542357       0.62917437       0.88530362 </v>
   <v>       0.11493439       0.38320685       0.13482490 </v>
   <v>       0.61915296       0.12856558       0.88014995 </v>
   <v>       0.61915296       0.88014995       0.12856558 </v>
   <v>       0.37136400       0.11682587       0.11682587 </v>
   <v>       0.38675680       0.87420142       0.87420142 </v>
   <v>       0.60795266       0.63313495       0.38588875 </v>
   <v>       0.60795266       0.38588875       0.63313495 </v>
   <v>       0.34822795       0.61442631       0.61442631 </v>
   <v>       0.38014263       0.37506751       0.37506751 </v>
   <v>       0.75072739       0.74808013       0.74808013 </v>
   <v>       0.75304694       0.25450587       0.25450587 </v>
   <v>       0.24866866       0.75450249       0.24500657 </v>
   <v>       0.24866866       0.24500657       0.75450249 </v>
   <v>       0.99606229       0.01468198       0.01468198 </v>
   <v>       0.98394713       0.51777125       0.51777125 </v>
   <v>       0.49182988       0.01933079       0.51519059 </v>
   <v>       0.49182988       0.51519059       0.01933079 </v>
  </varray>
 </structure>
 <calculation>
  <scstep>
   <time name="dav">    1.68    1.72</time>
   <time name="total">    2.15    2.22</time>
   <energy>
    <i name="alphaZ">    296.83041573 </i>
    <i name="ewald">  -8756.51427799 </i>
    <i name="hartreedc">  -2138.29727263 </i>
    <i name="XCdc">    533.56682025 </i>
    <i name="pawpsdc">   8141.38806575 </i>
    <i name="pawaedc">  -8271.61346273 </i>
    <i name="eentropy">     -0.00428154 </i>
    <i name="bandstr">   -926.18540870 </i>
    <i name="atom">  12703.13999606 </i>
    <i name="e_fr_energy">   1582.31059419 </i>
    <i name="e_wo_entrp">   1582.31487573 </i>
    <i name="e_0_energy">   1582.31273496 </i>
   </energy>
  </scstep>
  <scstep>
   <time name="dav">    1.97    1.99</time>
   <time name="total">    1.97    1.99</time>
   <energy>
    <i name="e_fr_energy">    -55.29959680 </i>
    <i name="e_wo_entrp">    -55.29959680 </i>
    <i name="e_0_energy">    -55.29959680 </i>
   </energy>
  </scstep>
  <scstep>
   <time name="dav">    2.04    2.07</time>
   <time name="total">    2.04    2.07</time>
   <energy>
    <i name="e_fr_energy">   -228.77249818 </i>
    <i name="e_wo_entrp">   -228.77249818 </i>
    <i name="e_0_energy">   -228.77249818 </i>
   </energy>
  </scstep>
  <scstep>
   <time name="dav">    2.38    2.41</time>
   <time name="total">    2.38    2.41</time>
   <energy>
    <i name="e_fr_energy">   -241.75327911 </i>
    <i name="e_wo_entrp">   -241.75327911 </i>
    <i name="e_0_energy">   -241.75327911 </i>
   </energy>
  </scstep>
  <scstep>
   <time name="dav">    2.24    2.26</time>
   <time name="total">    2.24    2.26</time>
   <energy>
    <i name="e_fr_energy">   -241.98128377 </i>
    <i name="e_wo_entrp">   -241.98128377 </i>
    <i name="e_0_energy">   -241.98128377 </i>
   </energy>
  </scstep>
  <scstep>
   <time name="dav">    2.30    2.32</time>
   <time name="total">    2.30    2.32</time>
   <energy>
    <i name="e_fr_energy">   -241.99203564 </i>
    <i name="e_wo_entrp">   -241.99203564 </i>
    <i name="e_0_energy">   -241.99203564 </i>
   </energy>
  </scstep>
  <scstep>
   <time name="dav">    2.25    2.27</time>
   <time name="total">    2.25    2.27</time>
   <energy>
    <i name="e_fr_energy">   -241.99248569 </i>
    <i name="e_wo_entrp">   -241.99248569 </i>
    <i name="e_0_energy">   -241.99248569 </i>
   </energy>
  </scstep>
  <scstep>
   <time name="dav">    2.27    2.29</time>
   <time name="total">    2.27    2.29</time>
   <energy>
    <i name="e_fr_energy">   -241.99251412 </i>
    <i name="e_wo_entrp">   -241.99251412 </i>
    <i name="e_0_energy">   -241.99251412 </i>
   </energy>
  </scstep>
  <scstep>
   <time name="dav">    2.23    2.25</time>
   <time name="total">    2.23    2.25</time>
   <energy>
    <i name="e_fr_energy">   -241.99251608 </i>
    <i name="e_wo_entrp">   -241.99251608 </i>
    <i name="e_0_energy">   -241.99251608 </i>
   </energy>
  </scstep>
  <scstep>
   <time name="dav">    1.49    1.51</time>
   <time name="total">    1.72    1.92</time>
   <energy>
    <i name="e_fr_energy">   -241.99251618 </i>
    <i name="e_wo_entrp">   -241.99251618 </i>
    <i name="e_0_energy">   -241.99251618 </i>
   </energy>
  </scstep>
  <scstep>
   <time name="diag">    0.27    0.27</time>
   <time name="diis">    0.87    0.88</time>
   <time name="orth">    0.05    0.05</time>
   <time name="total">    1.84    2.09</time>
   <energy>
    <i name="e_fr_energy">   -234.86371761 </i>
    <i name="e_wo_entrp">   -234.86371761 </i>
    <i name="e_0_energy">   -234.86371761 </i>
   </energy>
  </scstep>
  <scstep>
   <time name="diag">    0.27    0.27</time>
   <time name="diis">    0.91    0.92</time>
   <time name="orth">    0.05    0.05</time>
   <time name="total">    1.82    1.87</time>
   <energy>
    <i name="e_fr_energy">   -256.03580041 </i>
    <i name="e_wo_entrp">   -256.03580041 </i>
    <i name="e_0_energy">   -256.03580041 </i>
   </energy>
  </scstep>
  <scstep>
   <time name="diag">    0.27    0.27</time>
   <time name="diis">    0.91    0.91</time>
   <time name="orth">    0.05    0.05</time>
   <time name="total">    1.80    1.84</time>
   <energy>
    <i name="e_fr_energy">   -258.52329796 </i>
    <i name="e_wo_entrp">   -258.52329796 </i>
    <i name="e_0_energy">   -258.52329796 </i>
   </energy>
  </scstep>
  <scstep>
   <time name="diag">    0.27    0.27</time>
   <time name="diis">    1.13    1.14</time>
   <time name="orth">    0.05    0.05</time>
   <time name="total">    2.02    2.05</time>
   <energy>
    <i name="e_fr_energy">   -258.70790261 </i>
    <i name="e_wo_entrp">   -258.70790261 </i>
    <i name="e_0_energy">   -258.70790261 </i>
   </energy>
  </scstep>
  <scstep>
   <time name="diag">    0.27    0.27</time>
   <time name="diis">    0.96    0.97</time>
   <time name="orth">    0.05    0.05</time>
   <time name="total">    1.83    1.89</time>
   <energy>
    <i name="e_fr_energy">   -258.68138672 </i>
    <i name="e_wo_entrp">   -258.68138672 </i>
    <i name="e_0_energy">   -258.68138672 </i>
   </energy>
  </scstep>
  <scstep>
   <time name="diag">    0.27    0.27</time>
   <time name="diis">    0.96    0.97</time>
   <time name="orth">    0.05    0.05</time>
   <time name="total">    1.85    1.90</time>
   <energy>
    <i name="e_fr_energy">   -258.70219681 </i>
    <i name="e_wo_entrp">   -258.70219681 </i>
    <i name="e_0_energy">   -258.70219681 </i>
   </energy>
  </scstep>
  <scstep>
   <time name="diag">    0.27    0.27</time>
   <time name="diis">    1.07    1.08</time>
   <time name="orth">    0.05    0.05</time>
   <time name="total">    1.95    1.99</time>
   <energy>
    <i name="e_fr_energy">   -258.70815758 </i>
    <i name="e_wo_entrp">   -258.70815758 </i>
    <i name="e_0_energy">   -258.70815758 </i>
   </energy>
  </scstep>
  <scstep>
   <time name="diag">    0.27    0.27</time>
   <time name="diis">    1.05    1.06</time>
   <time name="orth">    0.05    0.05</time>
   <time name="total">    1.92    1.95</time>
   <energy>
    <i name="e_fr_energy">   -258.70949505 </i>
    <i name="e_wo_entrp">   -258.70949505 </i>
    <i name="e_0_energy">   -258.70949505 </i>
   </energy>
  </scstep>
  <scstep>
   <time name="diag">    0.27    0.27</time>
   <time name="diis">    1.23    1.24</time>
   <time name="orth">    0.05    0.05</time>
   <time name="total">    2.10    2.14</time>
   <energy>
    <i name="e_fr_energy">   -258.70995406 </i>
    <i name="e_wo_entrp">   -258.70995406 </i>
    <i name="e_0_energy">   -258.70995406 </i>
   </energy>
  </scstep>
  <scstep>
   <time name="diag">    0.27    0.27</time>
   <time name="diis">    1.18    1.19</time>
   <time name="orth">    0.05    0.05</time>
   <time name="total">    2.06    2.09</time>
   <energy>
    <i name="e_fr_energy">   -258.71004029 </i>
    <i name="e_wo_entrp">   -258.71004029 </i>
    <i name="e_0_energy">   -258.71004029 </i>
   </energy>
  </scstep>
  <scstep>
   <time name="diag">    0.27    0.27</time>
   <time name="diis">    1.05    1.06</time>
   <time name="orth">    0.05    0.05</time>
   <time name="total">    1.93    1.96</time>
   <energy>
    <i name="e_fr_energy">   -258.71006022 </i>
    <i name="e_wo_entrp">   -258.71006022 </i>
    <i name="e_0_energy">   -258.71006022 </i>
   </energy>
  </scstep>
  <scstep>
   <time name="diag">    0.27    0.27</time>
   <time name="diis">    1.18    1.20</time>
   <time name="orth">    0.05    0.05</time>
   <time name="total">    2.06    2.10</time>
   <energy>
    <i name="e_fr_energy">   -258.71006699 </i>
    <i name="e_wo_entrp">   -258.71006699 </i>
    <i name="e_0_energy">   -258.71006699 </i>
   </energy>
  </scstep>
  <scstep>
   <time name="diag">    0.27    0.27</time>
   <time name="diis">    0.95    0.96</time>
   <time name="orth">    0.05    0.05</time>
   <time name="total">    1.82    1.85</time>
   <energy>
    <i name="e_fr_energy">   -258.71006681 </i>
    <i name="e_wo_entrp">   -258.71006681 </i>
    <i name="e_0_energy">   -258.71006681 </i>
   </energy>
  </scstep>
  <scstep>
   <time name="diag">    0.27    0.27</time>
   <time name="diis">    0.71    0.72</time>
   <time name="orth">    0.05    0.05</time>
   <time name="total">    1.48    1.50</time>
   <energy>
    <i name="alphaZ">    296.83041573 </i>
    <i name="ewald">  -8756.51427799 </i>
    <i name="hartreedc">  -2241.55714784 </i>
    <i name="XCdc">    537.61239281 </i>
    <i name="pawpsdc">   9839.39265239 </i>
    <i name="pawaedc">  -9983.57094828 </i>
    <i name="eentropy">     -0.00000000 </i>
    <i name="bandstr">  -2654.04314898 </i>
    <i name="atom">  12703.13999606 </i>
    <i name="e_fr_energy">   -258.71006611 </i>
    <i name="e_wo_entrp">   -258.71006611 </i>
    <i name="e_0_energy">   -258.71006611 </i>
   </energy>
  </scstep>
  <structure>
   <crystal>
    <varray name="basis" >
     <v>       9.70654078       0.00000000       0.00000000 </v>
     <v>       0.00000000       9.70654078       0.00000000 </v>
     <v>       0.00000000       0.00000000       9.70654078 </v>
    </varray>
    <i name="volume">    914.52051171 </i>
    <varray name="rec_basis" >
     <v>       0.10302331       0.00000000       0.00000000 </v>
     <v>       0.00000000       0.10302331       0.00000000 </v>
     <v>       0.00000000       0.00000000       0.10302331 </v>
    </varray>
   </crystal>
   <varray name="positions" >
    <v>       0.96451412       0.33997821       0.33997821 </v>
    <v>       0.96418940       0.82822222       0.82822222 </v>
    <v>       0.02258817       0.17871803       0.78037246 </v>
    <v>       0.02258817       0.78037246       0.17871803 </v>
    <v>       0.19513204       0.20811200       0.98308110 </v>
    <v>       0.31277603       0.70117783       0.01904727 </v>
    <v>       0.80202751       0.21022582       0.02472092 </v>
    <v>       0.67932109       0.69226423       0.97183703 </v>
    <v>       0.19513204       0.98308110       0.20811200 </v>
    <v>       0.31277603       0.01904727       0.70117783 </v>
    <v>       0.67932109       0.97183703       0.69226423 </v>
    <v>       0.80202751       0.02472092       0.21022582 </v>
    <v>       0.15910247       0.69632489       0.46237928 </v>
    <v>       0.30497981       0.20585209       0.52449987 </v>
    <v>       0.80736639       0.70207895       0.51710366 </v>
    <v>       0.67583342       0.20160969       0.47797700 </v>
    <v>       0.15910247       0.46237928       0.69632489 </v>
    <v>       0.30497981       0.52449987       0.20585209 </v>
    <v>       0.67583342       0.47797700       0.20160969 </v>
    <v>       0.80736639       0.51710366       0.70207895 </v>
    <v>       0.46159767       0.33249612       0.83623228 </v>
    <v>       0.46159767       0.83623228       0.33249612 </v>
    <v>       0.52450897       0.23957892       0.23957892 </v>
    <v>       0.51967580       0.73003915       0.73003915 </v>
    <v>       0.48952988       0.50351070       0.50351070 </v>
    <v>       0.50321023       0.99924223       0.99924223 </v>
    <v>       0.99791817       0.49957299       0.00354938 </v>
    <v>       0.99791817       0.00354938       0.49957299 </v>
    <v>       0.11542357       0.88530362       0.62917437 </v>
    <v>       0.11493439       0.13482490       0.38320685 </v>
    <v>       0.89047985       0.87343237       0.37109076 </v>
    <v>       0.86233969       0.11876430       0.61456802 </v>
    <v>       0.86233969       0.61456802       0.11876430 </v>
    <v>       0.89047985       0.37109076       0.87343237 </v>
    <v>       0.11542357       0.62917437       0.88530362 </v>
    <v>       0.11493439       0.38320685       0.13482490 </v>
    <v>       0.61915296       0.12856558       0.88014995 </v>
    <v>       0.61915296       0.88014995       0.12856558 </v>
    <v>       0.37136400       0.11682587       0.11682587 </v>
    <v>       0.38675680       0.87420142       0.87420142 </v>
    <v>       0.60795266       0.63313495       0.38588875 </v>
    <v>       0.60795266       0.38588875       0.63313495 </v>
    <v>       0.34822795       0.61442631       0.61442631 </v>
    <v>       0.38014263       0.37506751       0.37506751 </v>
    <v>       0.75072739       0.74808013       0.74808013 </v>
    <v>       0.75304694       0.25450587       0.25450587 </v>
    <v>       0.24866866       0.75450249       0.24500657 </v>
    <v>       0.24866866       0.24500657       0.75450249 </v>
    <v>       0.99606229       0.01468198       0.01468198 </v>
    <v>       0.98394713       0.51777125       0.51777125 </v>
    <v>       0.49182988       0.01933079       0.51519059 </v>
    <v>       0.49182988       0.51519059       0.01933079 </v>
   </varray>
  </structure>
  <varray name="forces" >
   <v>       0.00022072       0.00012872       0.00012872 </v>
   <v>       0.00011155      -0.00022090      -0.00022090 </v>
   <v>       0.00000683      -0.00282301       0.00146531 </v>
   <v>       0.00000683       0.00146531      -0.00282301 </v>
   <v>       0.00027227       0.00049552       0.00033983 </v>
   <v>       0.00046331      -0.00024301      -0.00011650 </v>
   <v>      -0.00059528       0.00059792       0.00018759 </v>
   <v>       0.00023087      -0.00026690       0.00007585 </v>
   <v>       0.00027227       0.00033983       0.00049552 </v>
   <v>       0.00046331      -0.00011650      -0.00024301 </v>
   <v>       0.00023087       0.00007585      -0.00026690 </v>
   <v>      -0.00059528       0.00018759       0.00059792 </v>
   <v>      -0.00100394       0.00032539      -0.00051997 </v>
   <v>       0.00004461       0.00011005       0.00028408 </v>
   <v>       0.00004942       0.00014552      -0.00007125 </v>
   <v>      -0.00035793       0.00055646       0.00035679 </v>
   <v>      -0.00100394      -0.00051997       0.00032539 </v>
   <v>       0.00004461       0.00028408       0.00011005 </v>
   <v>      -0.00035793       0.00035679       0.00055646 </v>
   <v>       0.00004942      -0.00007125       0.00014552 </v>
   <v>      -0.00028781      -0.00027110       0.00030649 </v>
   <v>      -0.00028781       0.00030649      -0.00027110 </v>
   <v>      -0.00001723       0.00010317       0.00010317 </v>
   <v>       0.00005911      -0.00043013      -0.00043013 </v>
   <v>      -0.00002310      -0.00037875      -0.00037875 </v>
   <v>       0.00118159       0.00035382       0.00035382 </v>
   <v>       0.00079155      -0.00078953       0.00085221 </v>
   <v>       0.00079155       0.00085221      -0.00078953 </v>
   <v>       0.00070338      -0.00063232       0.00111297 </v>
   <v>       0.00023034       0.00069256      -0.00022098 </v>
   <v>       0.00006438      -0.00096576      -0.00097784 </v>
   <v>      -0.00081601       0.00104348       0.00035401 </v>
   <v>      -0.00081601       0.00035401       0.00104348 </v>
   <v>       0.00006438      -0.00097784      -0.00096576 </v>
   <v>       0.00070338       0.00111297      -0.00063232 </v>
   <v>       0.00023034      -0.00022098       0.00069256 </v>
   <v>       0.00046219       0.00070517      -0.00060996 </v>
   <v>       0.00046219      -0.00060996       0.00070517 </v>
   <v>      -0.00033597       0.00034181       0.00034181 </v>
   <v>      -0.00095558      -0.00101299      -0.00101299 </v>
   <v>       0.00026251       0.00104573      -0.00032475 </v>
   <v>       0.00026251      -0.00032475       0.00104573 </v>
   <v>      -0.00201140       0.00084062       0.00084062 </v>
   <v>      -0.00025534      -0.00027128      -0.00027128 </v>
   <v>       0.00024769       0.00008390       0.00008390 </v>
   <v>       0.00030091       0.00038857       0.00038857 </v>
   <v>      -0.00003722       0.00015907      -0.00016167 </v>
   <v>      -0.00003722      -0.00016167       0.00015907 </v>
   <v>       0.00025069      -0.00062274      -0.00062274 </v>
   <v>      -0.00025884      -0.00050514      -0.00050514 </v>
   <v>       0.00025912      -0.00027609      -0.00074004 </v>
   <v>       0.00025912      -0.00074004      -0.00027609 </v>
  </varray>
  <varray name="stress" >
   <v>      -2.30023297       5.02838654       5.02838654 </v>
   <v>       5.02838513       1.17948637      -6.06599203 </v>
   <v>       5.02838513      -6.06599203       1.17948637 </v>
  </varray>
  <energy>
   <i name="e_fr_energy">   -272.08652906 </i>
   <i name="e_wo_entrp">   -272.08652906 </i>
   <i name="e_0_energy">   -272.08652906 </i>
  </energy>
  <time name="totalsc">   50.75   52.03</time>
 </calculation>
 <calculation>
  <scstep>
   <time name="dav">    1.70    1.71</time>
   <time name="total">    2.27    2.31</time>
   <energy>
    <i name="alphaZ">    296.83041573 </i>
    <i name="ewald">  -8756.54358233 </i>
    <i name="hartreedc">  -2241.53771748 </i>
    <i name="XCdc">    537.61179336 </i>
    <i name="pawpsdc">   9839.38438414 </i>
    <i name="pawaedc">  -9983.56258671 </i>
    <i name="eentropy">     -0.00000000 </i>
    <i name="bandstr">  -2654.03276911 </i>
    <i name="atom">  12703.13999606 </i>
    <i name="e_fr_energy">   -258.71006634 </i>
    <i name="e_wo_entrp">   -258.71006634 </i>
    <i name="e_0_energy">   -258.71006634 </i>
   </energy>
  </scstep>
  <scstep>
   <time name="diag">    0.28    0.28</time>
   <time name="diis">    0.62    0.63</time>
   <time name="orth">    0.05    0.05</time>
   <time name="total">    1.40    1.41</time>
   <energy>
    <i name="alphaZ">    296.83041573 </i>
    <i name="ewald">  -8756.54358233 </i>
    <i name="hartreedc">  -2241.53823328 </i>
    <i name="XCdc">    537.61156793 </i>
    <i name="pawpsdc">   9839.33935504 </i>
    <i name="pawaedc">  -9983.51704637 </i>
    <i name="eentropy">     -0.00000000 </i>
    <i name="bandstr">  -2654.03253927 </i>
    <i name="atom">  12703.13999606 </i>
    <i name="e_fr_energy">   -258.71006649 </i>
    <i name="e_wo_entrp">   -258.71006649 </i>
    <i name="e_0_energy">   -258.71006649 </i>
   </energy>
  </scstep>
  <structure>
   <crystal>
    <varray name="basis" >
     <v>       9.70654078       0.00000000       0.00000000 </v>
     <v>       0.00000000       9.70654078       0.00000000 </v>
     <v>       0.00000000       0.00000000       9.70654078 </v>
    </varray>
    <i name="volume">    914.52051171 </i>
    <varray name="rec_basis" >
     <v>       0.10302331       0.00000000       0.00000000 </v>
     <v>       0.00000000       0.10302331       0.00000000 </v>
     <v>       0.00000000       0.00000000       0.10302331 </v>
    </varray>
   </crystal>
   <varray name="positions" >
    <v>       0.96451456       0.33997846       0.33997846 </v>
    <v>       0.96418962       0.82822178       0.82822178 </v>
    <v>       0.02258818       0.17871242       0.78037538 </v>
    <v>       0.02258818       0.78037538       0.17871242 </v>
    <v>       0.19513258       0.20811299       0.98308177 </v>
    <v>       0.31277695       0.70117735       0.01904703 </v>
    <v>       0.80202633       0.21022701       0.02472129 </v>
    <v>       0.67932155       0.69226369       0.97183718 </v>
    <v>       0.19513258       0.98308177       0.20811299 </v>
    <v>       0.31277695       0.01904703       0.70117735 </v>
    <v>       0.67932155       0.97183718       0.69226369 </v>
    <v>       0.80202633       0.02472129       0.21022701 </v>
    <v>       0.15910048       0.69632554       0.46237825 </v>
    <v>       0.30497990       0.20585230       0.52450043 </v>
    <v>       0.80736649       0.70207924       0.51710351 </v>
    <v>       0.67583271       0.20161080       0.47797771 </v>
    <v>       0.15910048       0.46237825       0.69632554 </v>
    <v>       0.30497990       0.52450043       0.20585230 </v>
    <v>       0.67583271       0.47797771       0.20161080 </v>
    <v>       0.80736649       0.51710351       0.70207924 </v>
    <v>       0.46159710       0.33249558       0.83623289 </v>
    <v>       0.46159710       0.83623289       0.33249558 </v>
    <v>       0.52450894       0.23957912       0.23957912 </v>
    <v>       0.51967592       0.73003830       0.73003830 </v>
    <v>       0.48952983       0.50350995       0.50350995 </v>
    <v>       0.50321258       0.99924294       0.99924294 </v>
    <v>       0.99791975       0.49957142       0.00355107 </v>
    <v>       0.99791975       0.00355107       0.49957142 </v>
    <v>       0.11542497       0.88530237       0.62917658 </v>
    <v>       0.11493485       0.13482628       0.38320641 </v>
    <v>       0.89047998       0.87343045       0.37108881 </v>
    <v>       0.86233806       0.11876637       0.61456873 </v>
    <v>       0.86233806       0.61456873       0.11876637 </v>
    <v>       0.89047998       0.37108881       0.87343045 </v>
    <v>       0.11542497       0.62917658       0.88530237 </v>
    <v>       0.11493485       0.38320641       0.13482628 </v>
    <v>       0.61915388       0.12856699       0.88014874 </v>
    <v>       0.61915388       0.88014874       0.12856699 </v>
    <v>       0.37136334       0.11682655       0.11682655 </v>
    <v>       0.38675490       0.87419941       0.87419941 </v>
    <v>       0.60795318       0.63313703       0.38588810 </v>
    <v>       0.60795318       0.38588810       0.63313703 </v>
    <v>       0.34822395       0.61442798       0.61442798 </v>
    <v>       0.38014212       0.37506697       0.37506697 </v>
    <v>       0.75072789       0.74808029       0.74808029 </v>
    <v>       0.75304754       0.25450665       0.25450665 </v>
    <v>       0.24866858       0.75450280       0.24500625 </v>
    <v>       0.24866858       0.24500625       0.75450280 </v>
    <v>       0.99606279       0.01468074       0.01468074 </v>
    <v>       0.98394661       0.51777025       0.51777025 </v>
    <v>       0.49183040       0.01933024       0.51518912 </v>
    <v>       0.49183040       0.51518912       0.01933024 </v>
   </varray>
  </structure>
  <varray name="forces" >
   <v>       0.00008482       0.00007848       0.00007848 </v>
   <v>       0.00006358      -0.00017023      -0.00017023 </v>
   <v>       0.00001624      -0.00177838       0.00080646 </v>
   <v>       0.00001624       0.00080646      -0.00177838 </v>
   <v>       0.00016437       0.00024083       0.00010500 </v>
   <v>       0.00031544      -0.00019008      -0.00014255 </v>
   <v>      -0.00034624       0.00032224       0.00006215 </v>
   <v>       0.00011613      -0.00023575      -0.00002277 </v>
   <v>       0.00016437       0.00010500       0.00024083 </v>
   <v>       0.00031544      -0.00014255      -0.00019008 </v>
   <v>       0.00011613      -0.00002277      -0.00023575 </v>
   <v>      -0.00034624       0.00006215       0.00032224 </v>
   <v>      -0.00064409       0.00012857      -0.00032465 </v>
   <v>       0.00007249      -0.00000103       0.00015579 </v>
   <v>       0.00006580       0.00004341      -0.00007168 </v>
   <v>      -0.00023804       0.00027557       0.00018061 </v>
   <v>      -0.00064409      -0.00032465       0.00012857 </v>
   <v>       0.00007249       0.00015579      -0.00000103 </v>
   <v>      -0.00023804       0.00018061       0.00027557 </v>
   <v>       0.00006580      -0.00007168       0.00004341 </v>
   <v>      -0.00019759      -0.00017857       0.00013269 </v>
   <v>      -0.00019759       0.00013269      -0.00017857 </v>
   <v>       0.00001444      -0.00000279      -0.00000279 </v>
   <v>      -0.00000977      -0.00032845      -0.00032845 </v>
   <v>      -0.00020659       0.00004866       0.00004866 </v>
   <v>       0.00054320      -0.00011266      -0.00011266 </v>
   <v>       0.00031975      -0.00028995       0.00019149 </v>
   <v>       0.00031975       0.00019149      -0.00028995 </v>
   <v>       0.00012447      -0.00006764       0.00024590 </v>
   <v>       0.00033852       0.00035790      -0.00028164 </v>
   <v>       0.00034491      -0.00033965      -0.00032870 </v>
   <v>      -0.00018229       0.00029160       0.00000519 </v>
   <v>      -0.00018229       0.00000519       0.00029160 </v>
   <v>       0.00034491      -0.00032870      -0.00033965 </v>
   <v>       0.00012447       0.00024590      -0.00006764 </v>
   <v>       0.00033852      -0.00028164       0.00035790 </v>
   <v>       0.00025097       0.00023345      -0.00034041 </v>
   <v>       0.00025097      -0.00034041       0.00023345 </v>
   <v>       0.00000609       0.00004240       0.00004240 </v>
   <v>      -0.00007215      -0.00022593      -0.00022593 </v>
   <v>       0.00001840       0.00031288      -0.00005501 </v>
   <v>       0.00001840      -0.00005501       0.00031288 </v>
   <v>      -0.00070529       0.00020927       0.00020927 </v>
   <v>       0.00001636      -0.00019450      -0.00019450 </v>
   <v>       0.00002659      -0.00005431      -0.00005431 </v>
   <v>      -0.00013205       0.00009908       0.00009908 </v>
   <v>      -0.00013870       0.00003759      -0.00031846 </v>
   <v>      -0.00013870      -0.00031846       0.00003759 </v>
   <v>       0.00006652       0.00008650       0.00008650 </v>
   <v>      -0.00040253       0.00050026       0.00050026 </v>
   <v>      -0.00004717       0.00050411       0.00035775 </v>
   <v>      -0.00004717       0.00035775       0.00050411 </v>
  </varray>
  <varray name="stress" >
   <v>      -2.31513852       5.02899783       5.02899783 </v>
   <v>       5.02899660       1.16461946      -6.06802956 </v>
   <v>       5.02899660      -6.06802956       1.16461946 </v>
  </varray>
  <energy>
   <i name="e_fr_energy">   -272.08653045 </i>
   <i name="e_wo_entrp">   -272.08653045 </i>
   <i name="e_0_energy">   -272.08653045 </i>
  </energy>
  <time name="totalsc">    6.36    6.49</time>
 </calculation>
 <calculation>
  <scstep>
   <time name="dav">    1.68    1.70</time>
   <time name="total">    2.25    2.29</time>
   <energy>
    <i name="alphaZ">    296.83041573 </i>
    <i name="ewald">  -8756.56326710 </i>
    <i name="hartreedc">  -2241.52323596 </i>
    <i name="XCdc">    537.61097966 </i>
    <i name="pawpsdc">   9839.31250300 </i>
    <i name="pawaedc">  -9983.48973931 </i>
    <i name="eentropy">     -0.00000000 </i>
    <i name="bandstr">  -2654.02771839 </i>
    <i name="atom">  12703.13999606 </i>
    <i name="e_fr_energy">   -258.71006630 </i>
    <i name="e_wo_entrp">   -258.71006630 </i>
    <i name="e_0_energy">   -258.71006630 </i>
   </energy>
  </scstep>
  <scstep>
   <time name="diag">    0.28    0.28</time>
   <time name="diis">    0.61    0.61</time>
   <time name="orth">    0.05    0.05</time>
   <time name="total">    1.38    1.39</time>
   <energy>
    <i name="alphaZ">    296.83041573 </i>
    <i name="ewald">  -8756.56326710 </i>
    <i name="hartreedc">  -2241.52161045 </i>
    <i name="XCdc">    537.61081282 </i>
    <i name="pawpsdc">   9839.27946347 </i>
    <i name="pawaedc">  -9983.45645071 </i>
    <i name="eentropy">     -0.00000000 </i>
    <i name="bandstr">  -2654.02942609 </i>
    <i name="atom">  12703.13999606 </i>
    <i name="e_fr_energy">   -258.71006627 </i>
    <i name="e_wo_entrp">   -258.71006627 </i>
    <i name="e_0_energy">   -258.71006627 </i>
   </energy>
  </scstep>
  <structure>
   <crystal>
    <varray name="basis" >
     <v>       9.70654078       0.00000000       0.00000000 </v>
     <v>       0.00000000       9.70654078       0.00000000 </v>
     <v>       0.00000000       0.00000000       9.70654078 </v>
    </varray>
    <i name="volume">    914.52051171 </i>
    <varray name="rec_basis" >
     <v>       0.10302331       0.00000000       0.00000000 </v>
     <v>       0.00000000       0.10302331       0.00000000 </v>
     <v>       0.00000000       0.00000000       0.10302331 </v>
    </varray>
   </crystal>
   <varray name="positions" >
    <v>       0.96451486       0.33997864       0.33997864 </v>
    <v>       0.96418977       0.82822149       0.82822149 </v>
    <v>       0.02258819       0.17870865       0.78037734 </v>
    <v>       0.02258819       0.78037734       0.17870865 </v>
    <v>       0.19513294       0.20811365       0.98308223 </v>
    <v>       0.31277757       0.70117702       0.01904688 </v>
    <v>       0.80202554       0.21022781       0.02472154 </v>
    <v>       0.67932185       0.69226334       0.97183728 </v>
    <v>       0.19513294       0.98308223       0.20811365 </v>
    <v>       0.31277757       0.01904688       0.70117702 </v>
    <v>       0.67932185       0.97183728       0.69226334 </v>
    <v>       0.80202554       0.02472154       0.21022781 </v>
    <v>       0.15909914       0.69632597       0.46237755 </v>
    <v>       0.30497996       0.20585245       0.52450081 </v>
    <v>       0.80736656       0.70207944       0.51710342 </v>
    <v>       0.67583223       0.20161154       0.47797818 </v>
    <v>       0.15909914       0.46237755       0.69632597 </v>
    <v>       0.30497996       0.52450081       0.20585245 </v>
    <v>       0.67583223       0.47797818       0.20161154 </v>
    <v>       0.80736656       0.51710342       0.70207944 </v>
    <v>       0.46159671       0.33249522       0.83623330 </v>
    <v>       0.46159671       0.83623330       0.33249522 </v>
    <v>       0.52450891       0.23957926       0.23957926 </v>
    <v>       0.51967599       0.73003772       0.73003772 </v>
    <v>       0.48952980       0.50350944       0.50350944 </v>
    <v>       0.50321416       0.99924341       0.99924341 </v>
    <v>       0.99792080       0.49957037       0.00355221 </v>
    <v>       0.99792080       0.00355221       0.49957037 </v>
    <v>       0.11542591       0.88530152       0.62917807 </v>
    <v>       0.11493516       0.13482721       0.38320612 </v>
    <v>       0.89048007       0.87342916       0.37108751 </v>
    <v>       0.86233697       0.11876777       0.61456920 </v>
    <v>       0.86233697       0.61456920       0.11876777 </v>
    <v>       0.89048007       0.37108751       0.87342916 </v>
    <v>       0.11542591       0.62917807       0.88530152 </v>
    <v>       0.11493516       0.38320612       0.13482721 </v>
    <v>       0.61915450       0.12856793       0.88014792 </v>
    <v>       0.61915450       0.88014792       0.12856793 </v>
    <v>       0.37136289       0.11682701       0.11682701 </v>
    <v>       0.38675362       0.87419805       0.87419805 </v>
    <v>       0.60795353       0.63313843       0.38588767 </v>
    <v>       0.60795353       0.38588767       0.63313843 </v>
    <v>       0.34822127       0.61442911       0.61442911 </v>
    <v>       0.38014178       0.37506660       0.37506660 </v>
    <v>       0.75072822       0.74808041       0.74808041 </v>
    <v>       0.75304794       0.25450717       0.25450717 </v>
    <v>       0.24866853       0.75450301       0.24500603 </v>
    <v>       0.24866853       0.24500603       0.75450301 </v>
    <v>       0.99606312       0.01467991       0.01467991 </v>
    <v>       0.98394627       0.51776957       0.51776957 </v>
    <v>       0.49183074       0.01932987       0.51518813 </v>
    <v>       0.49183074       0.51518813       0.01932987 </v>
   </varray>
  </structure>
  <varray name="forces" >
   <v>       0.00008544       0.00013686       0.00013686 </v>
   <v>       0.00008782      -0.00017450      -0.00017450 </v>
   <v>       0.00002601      -0.00233424       0.00110382 </v>
   <v>       0.00002601       0.00110382      -0.00233424 </v>
   <v>       0.00021345       0.00028939       0.00012214 </v>
   <v>       0.00036236      -0.00019242      -0.00016926 </v>
   <v>      -0.00041291       0.00042630       0.00008162 </v>
   <v>       0.00014106      -0.00025779      -0.00002352 </v>
   <v>       0.00021345       0.00012214       0.00028939 </v>
   <v>       0.00036236      -0.00016926      -0.00019242 </v>
   <v>       0.00014106      -0.00002352      -0.00025779 </v>
   <v>      -0.00041291       0.00008162       0.00042630 </v>
   <v>      -0.00080756       0.00018595      -0.00040154 </v>
   <v>       0.00009025       0.00002711       0.00020198 </v>
   <v>       0.00007905       0.00004563      -0.00005553 </v>
   <v>      -0.00025646       0.00032924       0.00023080 </v>
   <v>      -0.00080756      -0.00040154       0.00018595 </v>
   <v>       0.00009025       0.00020198       0.00002711 </v>
   <v>      -0.00025646       0.00023080       0.00032924 </v>
   <v>       0.00007905      -0.00005553       0.00004563 </v>
   <v>      -0.00022660      -0.00016856       0.00019382 </v>
   <v>      -0.00022660       0.00019382      -0.00016856 </v>
   <v>       0.00002169       0.00001359       0.00001359 </v>
   <v>      -0.00001800      -0.00035442      -0.00035442 </v>
   <v>      -0.00037054       0.00039157       0.00039157 </v>
   <v>       0.00006556      -0.00034406      -0.00034406 </v>
   <v>      -0.00001811       0.00011514      -0.00015923 </v>
   <v>      -0.00001811      -0.00015923       0.00011514 </v>
   <v>       0.00002080       0.00013785       0.00011493 </v>
   <v>       0.00038397       0.00049889      -0.00029256 </v>
   <v>       0.00055190      -0.00022510      -0.00026946 </v>
   <v>       0.00001031       0.00029223      -0.00015276 </v>
   <v>       0.00001031      -0.00015276       0.00029223 </v>
   <v>       0.00055190      -0.00026946      -0.00022510 </v>
   <v>       0.00002080       0.00011493       0.00013785 </v>
   <v>       0.00038397      -0.00029256       0.00049889 </v>
   <v>       0.00024361       0.00023361      -0.00027349 </v>
   <v>       0.00024361      -0.00027349       0.00023361 </v>
   <v>       0.00016964       0.00001155       0.00001155 </v>
   <v>       0.00015726      -0.00000134      -0.00000134 </v>
   <v>      -0.00008761       0.00031581       0.00005678 </v>
   <v>      -0.00008761       0.00005678       0.00031581 </v>
   <v>      -0.00053086       0.00000092       0.00000092 </v>
   <v>       0.00000707      -0.00015897      -0.00015897 </v>
   <v>       0.00011999      -0.00000951      -0.00000951 </v>
   <v>      -0.00001326       0.00021307       0.00021307 </v>
   <v>      -0.00012147       0.00009323      -0.00031675 </v>
   <v>      -0.00012147      -0.00031675       0.00009323 </v>
   <v>       0.00018321      -0.00020047      -0.00020047 </v>
   <v>      -0.00048316       0.00027635       0.00027635 </v>
   <v>       0.00006700       0.00037242       0.00002292 </v>
   <v>       0.00006700       0.00002292       0.00037242 </v>
  </varray>
  <varray name="stress" >
   <v>      -2.32280853       5.02913605       5.02913605 </v>
   <v>       5.02913483       1.15662671      -6.06910192 </v>
   <v>       5.02913483      -6.06910192       1.15662671 </v>
  </varray>
  <energy>
   <i name="e_fr_energy">   -272.08653091 </i>
   <i name="e_wo_entrp">   -272.08653091 </i>
   <i name="e_0_energy">   -272.08653091 </i>
  </energy>
  <time name="totalsc">    6.31    6.41</time>
 </calculation>
 <calculation>
  <scstep>
   <time name="dav">    1.80    1.82</time>
   <time name="total">    2.35    2.38</time>
   <energy>
    <i name="alphaZ">    296.83041573 </i>
    <i name="ewald">  -8756.60263290 </i>
    <i name="hartreedc">  -2241.49033582 </i>
    <i name="XCdc">    537.60986705 </i>
    <i name="pawpsdc">   9839.26234561 </i>
    <i name="pawaedc">  -9983.43919642 </i>
    <i name="eentropy">     -0.00000000 </i>
    <i name="bandstr">  -2654.02052454 </i>
    <i name="atom">  12703.13999606 </i>
    <i name="e_fr_energy">   -258.71006522 </i>
    <i name="e_wo_entrp">   -258.71006522 </i>
    <i name="e_0_energy">   -258.71006522 </i>
   </energy>
  </scstep>
  <scstep>
   <time name="diag">    0.27    0.28</time>
   <time name="diis">    0.68    0.69</time>
   <time name="orth">    0.05    0.05</time>
   <time name="total">    1.45    1.46</time>
   <energy>
    <i name="alphaZ">    296.83041573 </i>
    <i name="ewald">  -8756.60263290 </i>
    <i name="hartreedc">  -2241.48780787 </i>
    <i name="XCdc">    537.60971805 </i>
    <i name="pawpsdc">   9839.22189861 </i>
    <i name="pawaedc">  -9983.39861810 </i>
    <i name="eentropy">     -0.00000000 </i>
    <i name="bandstr">  -2654.02303494 </i>
    <i name="atom">  12703.13999606 </i>
    <i name="e_fr_energy">   -258.71006536 </i>
    <i name="e_wo_entrp">   -258.71006536 </i>
    <i name="e_0_energy">   -258.71006536 </i>
   </energy>
  </scstep>
  <structure>
   <crystal>
    <varray name="basis" >
     <v>       9.70654078       0.00000000       0.00000000 </v>
     <v>       0.00000000       9.70654078       0.00000000 </v>
     <v>       0.00000000       0.00000000       9.70654078 </v>
    </varray>
    <i name="volume">    914.52051171 </i>
    <varray name="rec_basis" >
     <v>       0.10302331       0.00000000       0.00000000 </v>
     <v>       0.00000000       0.10302331       0.00000000 </v>
     <v>       0.00000000       0.00000000       0.10302331 </v>
    </varray>
   </crystal>
   <varray name="positions" >
    <v>       0.96451544       0.33997898       0.33997898 </v>
    <v>       0.96419007       0.82822090       0.82822090 </v>
    <v>       0.02258821       0.17870111       0.78038125 </v>
    <v>       0.02258821       0.78038125       0.17870111 </v>
    <v>       0.19513367       0.20811497       0.98308313 </v>
    <v>       0.31277881       0.70117637       0.01904657 </v>
    <v>       0.80202395       0.21022940       0.02472204 </v>
    <v>       0.67932247       0.69226263       0.97183748 </v>
    <v>       0.19513367       0.98308313       0.20811497 </v>
    <v>       0.31277881       0.01904657       0.70117637 </v>
    <v>       0.67932247       0.97183748       0.69226263 </v>
    <v>       0.80202395       0.02472204       0.21022940 </v>
    <v>       0.15909646       0.69632684       0.46237617 </v>
    <v>       0.30498008       0.20585274       0.52450157 </v>
    <v>       0.80736669       0.70207982       0.51710323 </v>
    <v>       0.67583127       0.20161303       0.47797914 </v>
    <v>       0.15909646       0.46237617       0.69632684 </v>
    <v>       0.30498008       0.52450157       0.20585274 </v>
    <v>       0.67583127       0.47797914       0.20161303 </v>
    <v>       0.80736669       0.51710323       0.70207982 </v>
    <v>       0.46159594       0.33249450       0.83623412 </v>
    <v>       0.46159594       0.83623412       0.33249450 </v>
    <v>       0.52450887       0.23957954       0.23957954 </v>
    <v>       0.51967615       0.73003657       0.73003657 </v>
    <v>       0.48952974       0.50350843       0.50350843 </v>
    <v>       0.50321731       0.99924435       0.99924435 </v>
    <v>       0.99792292       0.49956826       0.00355449 </v>
    <v>       0.99792292       0.00355449       0.49956826 </v>
    <v>       0.11542779       0.88529983       0.62918104 </v>
    <v>       0.11493577       0.13482906       0.38320553 </v>
    <v>       0.89048024       0.87342658       0.37108490 </v>
    <v>       0.86233479       0.11877056       0.61457015 </v>
    <v>       0.86233479       0.61457015       0.11877056 </v>
    <v>       0.89048024       0.37108490       0.87342658 </v>
    <v>       0.11542779       0.62918104       0.88529983 </v>
    <v>       0.11493577       0.38320553       0.13482906 </v>
    <v>       0.61915573       0.12856981       0.88014629 </v>
    <v>       0.61915573       0.88014629       0.12856981 </v>
    <v>       0.37136199       0.11682792       0.11682792 </v>
    <v>       0.38675107       0.87419535       0.87419535 </v>
    <v>       0.60795423       0.63314122       0.38588680 </v>
    <v>       0.60795423       0.38588680       0.63314122 </v>
    <v>       0.34821589       0.61443135       0.61443135 </v>
    <v>       0.38014110       0.37506588       0.37506588 </v>
    <v>       0.75072888       0.74808063       0.74808063 </v>
    <v>       0.75304874       0.25450820       0.25450820 </v>
    <v>       0.24866843       0.75450344       0.24500560 </v>
    <v>       0.24866843       0.24500560       0.75450344 </v>
    <v>       0.99606379       0.01467824       0.01467824 </v>
    <v>       0.98394558       0.51776822       0.51776822 </v>
    <v>       0.49183144       0.01932914       0.51518616 </v>
    <v>       0.49183144       0.51518616       0.01932914 </v>
   </varray>
  </structure>
  <varray name="forces" >
   <v>      -0.00003338       0.00013884       0.00013884 </v>
   <v>       0.00005961      -0.00013937      -0.00013937 </v>
   <v>       0.00001672      -0.00154192       0.00063960 </v>
   <v>       0.00001672       0.00063960      -0.00154192 </v>
   <v>       0.00015577       0.00012498      -0.00004557 </v>
   <v>       0.00025361      -0.00012777      -0.00017753 </v>
   <v>      -0.00027161       0.00030086       0.00001866 </v>
   <v>       0.00008852      -0.00023450      -0.00008103 </v>
   <v>       0.00015577      -0.00004557       0.00012498 </v>
   <v>       0.00025361      -0.00017753      -0.00012777 </v>
   <v>       0.00008852      -0.00008103      -0.00023450 </v>
   <v>      -0.00027161       0.00001866       0.00030086 </v>
   <v>      -0.00050625       0.00006040      -0.00021295 </v>
   <v>       0.00010985      -0.00000866       0.00017380 </v>
   <v>       0.00008649      -0.00000892      -0.00002423 </v>
   <v>      -0.00016759       0.00017222       0.00014062 </v>
   <v>      -0.00050625      -0.00021295       0.00006040 </v>
   <v>       0.00010985       0.00017380      -0.00000866 </v>
   <v>      -0.00016759       0.00014062       0.00017222 </v>
   <v>       0.00008649      -0.00002423      -0.00000892 </v>
   <v>      -0.00018382      -0.00008827       0.00010184 </v>
   <v>      -0.00018382       0.00010184      -0.00008827 </v>
   <v>       0.00006957      -0.00003651      -0.00003651 </v>
   <v>      -0.00008835      -0.00026301      -0.00026301 </v>
   <v>      -0.00069432       0.00105937       0.00105937 </v>
   <v>      -0.00084624      -0.00088449      -0.00088449 </v>
   <v>      -0.00068697       0.00085377      -0.00093298 </v>
   <v>      -0.00068697      -0.00093298       0.00085377 </v>
   <v>      -0.00060197       0.00079346      -0.00070469 </v>
   <v>       0.00042425       0.00039936      -0.00033016 </v>
   <v>       0.00093182       0.00045356       0.00035373 </v>
   <v>       0.00077587      -0.00038636      -0.00066528 </v>
   <v>       0.00077587      -0.00066528      -0.00038636 </v>
   <v>       0.00093182       0.00035373       0.00045356 </v>
   <v>      -0.00060197      -0.00070469       0.00079346 </v>
   <v>       0.00042425      -0.00033016       0.00039936 </v>
   <v>       0.00000006      -0.00012379       0.00004594 </v>
   <v>       0.00000006       0.00004594      -0.00012379 </v>
   <v>       0.00059151      -0.00029591      -0.00029591 </v>
   <v>       0.00104883       0.00088539       0.00088539 </v>
   <v>      -0.00043557      -0.00026450       0.00039491 </v>
   <v>      -0.00043557       0.00039491      -0.00026450 </v>
   <v>       0.00067810      -0.00075177      -0.00075177 </v>
   <v>       0.00015224      -0.00003085      -0.00003085 </v>
   <v>       0.00005686      -0.00004803      -0.00004803 </v>
   <v>      -0.00014512       0.00009390       0.00009390 </v>
   <v>      -0.00011322       0.00005349      -0.00032109 </v>
   <v>      -0.00011322      -0.00032109       0.00005349 </v>
   <v>      -0.00005602       0.00017681       0.00017681 </v>
   <v>      -0.00041808       0.00048301       0.00048301 </v>
   <v>      -0.00006358       0.00049664       0.00031499 </v>
   <v>      -0.00006358       0.00031499       0.00049664 </v>
  </varray>
  <varray name="stress" >
   <v>      -2.33415243       5.02965079       5.02965079 </v>
   <v>       5.02964955       1.14529152      -6.07169919 </v>
   <v>       5.02964955      -6.07169919       1.14529152 </v>
  </varray>
  <energy>
   <i name="e_fr_energy">   -272.08653136 </i>
   <i name="e_wo_entrp">   -272.08653136 </i>
   <i name="e_0_energy">   -272.08653136 </i>
  </energy>
  <time name="totalsc">    6.49    6.58</time>
 </calculation>
 <calculation>
  <scstep>
   <time name="dav">    1.53    1.54</time>
   <time name="total">    2.08    2.10</time>
   <energy>
    <i name="alphaZ">    296.83041573 </i>
    <i name="ewald">  -8756.59446058 </i>
    <i name="hartreedc">  -2241.49313986 </i>
    <i name="XCdc">    537.60980883 </i>
    <i name="pawpsdc">   9839.19829416 </i>
    <i name="pawaedc">  -9983.37487557 </i>
    <i name="eentropy">     -0.00000000 </i>
    <i name="bandstr">  -2654.02610429 </i>
    <i name="atom">  12703.13999606 </i>
    <i name="e_fr_energy">   -258.71006553 </i>
    <i name="e_wo_entrp">   -258.71006553 </i>
    <i name="e_0_energy">   -258.71006553 </i>
   </energy>
  </scstep>
  <scstep>
   <time name="diag">    0.27    0.28</time>
   <time name="diis">    0.55    0.56</time>
   <time name="orth">    0.05    0.05</time>
   <time name="total">    1.32    1.33</time>
   <energy>
    <i name="alphaZ">    296.83041573 </i>
    <i name="ewald">  -8756.59446058 </i>
    <i name="hartreedc">  -2241.49272527 </i>
    <i name="XCdc">    537.60979069 </i>
    <i name="pawpsdc">   9839.19557224 </i>
    <i name="pawaedc">  -9983.37211001 </i>
    <i name="eentropy">     -0.00000000 </i>
    <i name="bandstr">  -2654.02654442 </i>
    <i name="atom">  12703.13999606 </i>
    <i name="e_fr_energy">   -258.71006557 </i>
    <i name="e_wo_entrp">   -258.71006557 </i>
    <i name="e_0_energy">   -258.71006557 </i>
   </energy>
  </scstep>
  <structure>
   <crystal>
    <varray name="basis" >
     <v>       9.70654078       0.00000000       0.00000000 </v>
     <v>       0.00000000       9.70654078       0.00000000 </v>
     <v>       0.00000000       0.00000000       9.70654078 </v>
    </varray>
    <i name="volume">    914.52051171 </i>
    <varray name="rec_basis" >
     <v>       0.10302331       0.00000000       0.00000000 </v>
     <v>       0.00000000       0.10302331       0.00000000 </v>
     <v>       0.00000000       0.00000000       0.10302331 </v>
    </varray>
   </crystal>
   <varray name="positions" >
    <v>       0.96451532       0.33997891       0.33997891 </v>
    <v>       0.96419001       0.82822102       0.82822102 </v>
    <v>       0.02258821       0.17870267       0.78038044 </v>
    <v>       0.02258821       0.78038044       0.17870267 </v>
    <v>       0.19513352       0.20811470       0.98308295 </v>
    <v>       0.31277855       0.70117651       0.01904663 </v>
    <v>       0.80202428       0.21022907       0.02472194 </v>
    <v>       0.67932234       0.69226277       0.97183744 </v>
    <v>       0.19513352       0.98308295       0.20811470 </v>
    <v>       0.31277855       0.01904663       0.70117651 </v>
    <v>       0.67932234       0.97183744       0.69226277 </v>
    <v>       0.80202428       0.02472194       0.21022907 </v>
    <v>       0.15909701       0.69632666       0.46237645 </v>
    <v>       0.30498005       0.20585268       0.52450141 </v>
    <v>       0.80736666       0.70207974       0.51710327 </v>
    <v>       0.67583147       0.20161272       0.47797894 </v>
    <v>       0.15909701       0.46237645       0.69632666 </v>
    <v>       0.30498005       0.52450141       0.20585268 </v>
    <v>       0.67583147       0.47797894       0.20161272 </v>
    <v>       0.80736666       0.51710327       0.70207974 </v>
    <v>       0.46159610       0.33249465       0.83623395 </v>
    <v>       0.46159610       0.83623395       0.33249465 </v>
    <v>       0.52450888       0.23957948       0.23957948 </v>
    <v>       0.51967612       0.73003681       0.73003681 </v>
    <v>       0.48952975       0.50350864       0.50350864 </v>
    <v>       0.50321666       0.99924416       0.99924416 </v>
    <v>       0.99792248       0.49956870       0.00355401 </v>
    <v>       0.99792248       0.00355401       0.49956870 </v>
    <v>       0.11542740       0.88530018       0.62918042 </v>
    <v>       0.11493564       0.13482867       0.38320565 </v>
    <v>       0.89048020       0.87342712       0.37108544 </v>
    <v>       0.86233525       0.11876998       0.61456995 </v>
    <v>       0.86233525       0.61456995       0.11876998 </v>
    <v>       0.89048020       0.37108544       0.87342712 </v>
    <v>       0.11542740       0.62918042       0.88530018 </v>
    <v>       0.11493564       0.38320565       0.13482867 </v>
    <v>       0.61915548       0.12856942       0.88014663 </v>
    <v>       0.61915548       0.88014663       0.12856942 </v>
    <v>       0.37136218       0.11682773       0.11682773 </v>
    <v>       0.38675160       0.87419591       0.87419591 </v>
    <v>       0.60795409       0.63314064       0.38588698 </v>
    <v>       0.60795409       0.38588698       0.63314064 </v>
    <v>       0.34821701       0.61443089       0.61443089 </v>
    <v>       0.38014124       0.37506603       0.37506603 </v>
    <v>       0.75072874       0.74808058       0.74808058 </v>
    <v>       0.75304858       0.25450799       0.25450799 </v>
    <v>       0.24866845       0.75450335       0.24500569 </v>
    <v>       0.24866845       0.24500569       0.75450335 </v>
    <v>       0.99606365       0.01467859       0.01467859 </v>
    <v>       0.98394572       0.51776850       0.51776850 </v>
    <v>       0.49183129       0.01932929       0.51518657 </v>
    <v>       0.49183129       0.51518657       0.01932929 </v>
   </varray>
  </structure>
  <varray name="forces" >
   <v>       0.00017798       0.00024639       0.00024639 </v>
   <v>       0.00014829      -0.00027880      -0.00027880 </v>
   <v>       0.00006324      -0.00337581       0.00166603 </v>
   <v>       0.00006324       0.00166603      -0.00337581 </v>
   <v>       0.00037144       0.00053104       0.00024276 </v>
   <v>       0.00060958      -0.00030468      -0.00021654 </v>
   <v>      -0.00067606       0.00073069       0.00016869 </v>
   <v>       0.00027122      -0.00040285      -0.00000713 </v>
   <v>       0.00037144       0.00024276       0.00053104 </v>
   <v>       0.00060958      -0.00021654      -0.00030468 </v>
   <v>       0.00027122      -0.00000713      -0.00040285 </v>
   <v>      -0.00067606       0.00016869       0.00073069 </v>
   <v>      -0.00119582       0.00032050      -0.00059335 </v>
   <v>       0.00013514       0.00010303       0.00038834 </v>
   <v>       0.00012764       0.00011141      -0.00005944 </v>
   <v>      -0.00040553       0.00058587       0.00038353 </v>
   <v>      -0.00119582      -0.00059335       0.00032050 </v>
   <v>       0.00013514       0.00038834       0.00010303 </v>
   <v>      -0.00040553       0.00038353       0.00058587 </v>
   <v>       0.00012764      -0.00005944       0.00011141 </v>
   <v>      -0.00037044      -0.00027147       0.00036760 </v>
[...]
       <r>     7.8501    12.4245   144.2323 </r>
       <r>     8.0424    11.7147   146.4853 </r>
       <r>     8.2346    15.5935   149.4837 </r>
       <r>     8.4268    13.1742   152.0163 </r>
       <r>     8.6191    16.7403   155.2388 </r>
       <r>     8.8113    16.2945   158.3714 </r>
       <r>     9.0036    19.7608   162.1766 </r>
       <r>     9.1958    15.8085   165.2184 </r>
       <r>     9.3880    17.2003   168.5270 </r>
       <r>     9.5803    20.2009   172.4111 </r>
       <r>     9.7725    14.6116   175.2221 </r>
       <r>     9.9648     4.0349   176.0000 </r>
       <r>    10.1570     0.0000   176.0000 </r>
       <r>    10.3493     0.0000   176.0000 </r>
       <r>    10.5415     0.0000   176.0000 </r>
       <r>    10.7337     0.0000   176.0000 </r>
       <r>    10.9260     0.0000   176.0000 </r>
       <r>    11.1182     0.0000   176.0000 </r>
       <r>    11.3105     0.0000   176.0000 </r>
       <r>    11.5027     0.0000   176.0000 </r>
       <r>    11.6949     0.0000   176.0000 </r>
       <r>    11.8872     0.0000   176.0000 </r>
       <r>    12.0794     0.0000   176.0000 </r>
       <r>    12.2717     0.0000   176.0000 </r>
       <r>    12.4639     0.0000   176.0000 </r>
      </set>
      <set comment="spin 2">
       <r>   -45.2084     0.0000     0.0000 </r>
       <r>   -45.0161     0.0000     0.0000 </r>
       <r>   -44.8239     0.0000     0.0000 </r>
       <r>   -44.6316     0.0000     0.0000 </r>
       <r>   -44.4394     0.0000     0.0000 </r>
       <r>   -44.2472     0.0000     0.0000 </r>
       <r>   -44.0549     0.0000     0.0000 </r>
       <r>   -43.8627     0.0000     0.0000 </r>
       <r>   -43.6704     0.0000     0.0000 </r>
       <r>   -43.4782     0.0000     0.0000 </r>
       <r>   -43.2860     0.0000     0.0000 </r>
       <r>   -43.0937     0.0000     0.0000 </r>
       <r>   -42.9015     0.0000     0.0000 </r>
       <r>   -42.7092     0.0000     0.0000 </r>
       <r>   -42.5170    33.2845     6.3986 </r>
       <r>   -42.3247    91.3322    23.9634 </r>
       <r>   -42.1325     0.1569    24.0000 </r>
       <r>   -41.9403     0.0000    24.0000 </r>
       <r>   -41.7480     0.0000    24.0000 </r>
       <r>   -41.5558     0.0000    24.0000 </r>
       <r>   -41.3635     0.0000    24.0000 </r>
       <r>   -41.1713     0.0000    24.0000 </r>
       <r>   -40.9791     0.0000    24.0000 </r>
       <r>   -40.7868     0.0000    24.0000 </r>
       <r>   -40.5946     0.0000    24.0000 </r>
       <r>   -40.4023     0.0000    24.0000 </r>
       <r>   -40.2101     0.0000    24.0000 </r>
       <r>   -40.0179     0.0000    24.0000 </r>
       <r>   -39.8256     0.0000    24.0000 </r>
       <r>   -39.6334     0.0000    24.0000 </r>
       <r>   -39.4411     0.0000    24.0000 </r>
       <r>   -39.2489     0.0000    24.0000 </r>
       <r>   -39.0567     0.0000    24.0000 </r>
       <r>   -38.8644     0.0000    24.0000 </r>
       <r>   -38.6722     0.0000    24.0000 </r>
       <r>   -38.4799     0.0000    24.0000 </r>
       <r>   -38.2877     0.0000    24.0000 </r>
       <r>   -38.0954     0.0000    24.0000 </r>
       <r>   -37.9032     0.0000    24.0000 </r>
       <r>   -37.7110     0.0000    24.0000 </r>
       <r>   -37.5187     0.0000    24.0000 </r>
       <r>   -37.3265     0.0000    24.0000 </r>
       <r>   -37.1342     0.0000    24.0000 </r>
       <r>   -36.9420     0.0000    24.0000 </r>
       <r>   -36.7498     0.0000    24.0000 </r>
       <r>   -36.5575     0.0000    24.0000 </r>
       <r>   -36.3653     0.0000    24.0000 </r>
       <r>   -36.1730     0.0000    24.0000 </r>
       <r>   -35.9808     0.0000    24.0000 </r>
       <r>   -35.7886     0.0000    24.0000 </r>
       <r>   -35.5963     0.0000    24.0000 </r>
       <r>   -35.4041     0.0000    24.0000 </r>
       <r>   -35.2118     0.0000    24.0000 </r>
       <r>   -35.0196     0.0000    24.0000 </r>
       <r>   -34.8274     0.0000    24.0000 </r>
       <r>   -34.6351     0.0000    24.0000 </r>
       <r>   -34.4429     0.0000    24.0000 </r>
       <r>   -34.2506     0.0000    24.0000 </r>
       <r>   -34.0584     0.0000    24.0000 </r>
       <r>   -33.8661     0.0000    24.0000 </r>
       <r>   -33.6739     0.0000    24.0000 </r>
       <r>   -33.4817     0.0000    24.0000 </r>
       <r>   -33.2894     0.0000    24.0000 </r>
       <r>   -33.0972     0.0000    24.0000 </r>
       <r>   -32.9049     0.0000    24.0000 </r>
       <r>   -32.7127     0.0000    24.0000 </r>
       <r>   -32.5205     0.0000    24.0000 </r>
       <r>   -32.3282     0.0000    24.0000 </r>
       <r>   -32.1360     0.0000    24.0000 </r>
       <r>   -31.9437     0.0000    24.0000 </r>
       <r>   -31.7515     0.0000    24.0000 </r>
       <r>   -31.5593     0.0000    24.0000 </r>
       <r>   -31.3670     0.0000    24.0000 </r>
       <r>   -31.1748     0.0000    24.0000 </r>
       <r>   -30.9825     0.0000    24.0000 </r>
       <r>   -30.7903     0.0000    24.0000 </r>
       <r>   -30.5981     0.0000    24.0000 </r>
       <r>   -30.4058     0.0000    24.0000 </r>
       <r>   -30.2136     0.0000    24.0000 </r>
       <r>   -30.0213     0.0000    24.0000 </r>
       <r>   -29.8291     0.0000    24.0000 </r>
       <r>   -29.6369     0.0000    24.0000 </r>
       <r>   -29.4446     0.0000    24.0000 </r>
       <r>   -29.2524     0.0000    24.0000 </r>
       <r>   -29.0601     0.0000    24.0000 </r>
       <r>   -28.8679     0.0000    24.0000 </r>
       <r>   -28.6756     0.0000    24.0000 </r>
       <r>   -28.4834     0.0000    24.0000 </r>
       <r>   -28.2912     0.0000    24.0000 </r>
       <r>   -28.0989     0.0000    24.0000 </r>
       <r>   -27.9067     0.0000    24.0000 </r>
       <r>   -27.7144     0.0000    24.0000 </r>
       <r>   -27.5222     0.0000    24.0000 </r>
       <r>   -27.3300     0.0000    24.0000 </r>
       <r>   -27.1377     0.0000    24.0000 </r>
       <r>   -26.9455     0.0000    24.0000 </r>
       <r>   -26.7532     0.0000    24.0000 </r>
       <r>   -26.5610     0.0000    24.0000 </r>
       <r>   -26.3688     0.0000    24.0000 </r>
       <r>   -26.1765     0.0000    24.0000 </r>
       <r>   -25.9843     0.0000    24.0000 </r>
       <r>   -25.7920     0.0000    24.0000 </r>
       <r>   -25.5998     0.0000    24.0000 </r>
       <r>   -25.4076     0.0000    24.0000 </r>
       <r>   -25.2153     0.0000    24.0000 </r>
       <r>   -25.0231     0.0000    24.0000 </r>
       <r>   -24.8308     0.0000    24.0000 </r>
       <r>   -24.6386     0.0000    24.0000 </r>
       <r>   -24.4463     0.0000    24.0000 </r>
       <r>   -24.2541     0.0000    24.0000 </r>
       <r>   -24.0619     0.0000    24.0000 </r>
       <r>   -23.8696     0.0000    24.0000 </r>
       <r>   -23.6774     0.0000    24.0000 </r>
       <r>   -23.4851     0.0000    24.0000 </r>
       <r>   -23.2929     0.0000    24.0000 </r>
       <r>   -23.1007     0.0000    24.0000 </r>
       <r>   -22.9084     0.0000    24.0000 </r>
       <r>   -22.7162     0.0000    24.0000 </r>
       <r>   -22.5239     0.0000    24.0000 </r>
       <r>   -22.3317     0.0000    24.0000 </r>
       <r>   -22.1395     0.0000    24.0000 </r>
       <r>   -21.9472     0.0000    24.0000 </r>
       <r>   -21.7550     0.0000    24.0000 </r>
       <r>   -21.5627     0.0000    24.0000 </r>
       <r>   -21.3705     0.0000    24.0000 </r>
       <r>   -21.1783     0.0000    24.0000 </r>
       <r>   -20.9860     0.0000    24.0000 </r>
       <r>   -20.7938     0.0000    24.0000 </r>
       <r>   -20.6015     0.0000    24.0000 </r>
       <r>   -20.4093     0.0000    24.0000 </r>
       <r>   -20.2170     0.0000    24.0000 </r>
       <r>   -20.0248     0.0000    24.0000 </r>
       <r>   -19.8326     0.0000    24.0000 </r>
       <r>   -19.6403     0.0000    24.0000 </r>
       <r>   -19.4481     0.0000    24.0000 </r>
       <r>   -19.2558     0.0000    24.0000 </r>
       <r>   -19.0636     0.0000    24.0000 </r>
       <r>   -18.8714     0.0000    24.0000 </r>
       <r>   -18.6791     0.0000    24.0000 </r>
       <r>   -18.4869     0.0000    24.0000 </r>
       <r>   -18.2946     0.0000    24.0000 </r>
       <r>   -18.1024     0.0000    24.0000 </r>
       <r>   -17.9102     0.0000    24.0000 </r>
       <r>   -17.7179     0.0000    24.0000 </r>
       <r>   -17.5257     0.0000    24.0000 </r>
       <r>   -17.3334     0.0000    24.0000 </r>
       <r>   -17.1412     0.0000    24.0000 </r>
       <r>   -16.9490     0.0000    24.0000 </r>
       <r>   -16.7567     0.0000    24.0000 </r>
       <r>   -16.5645     0.0000    24.0000 </r>
       <r>   -16.3722     0.0000    24.0000 </r>
       <r>   -16.1800     0.0000    24.0000 </r>
       <r>   -15.9877     0.0000    24.0000 </r>
       <r>   -15.7955     0.0000    24.0000 </r>
       <r>   -15.6033     0.0000    24.0000 </r>
       <r>   -15.4110     0.0000    24.0000 </r>
       <r>   -15.2188     0.0000    24.0000 </r>
       <r>   -15.0265     0.0000    24.0000 </r>
       <r>   -14.8343     0.0000    24.0000 </r>
       <r>   -14.6421     0.0000    24.0000 </r>
       <r>   -14.4498     0.0000    24.0000 </r>
       <r>   -14.2576     0.0000    24.0000 </r>
       <r>   -14.0653     0.0000    24.0000 </r>
       <r>   -13.8731     0.0000    24.0000 </r>
       <r>   -13.6809     0.0000    24.0000 </r>
       <r>   -13.4886     0.0000    24.0000 </r>
       <r>   -13.2964     0.0000    24.0000 </r>
       <r>   -13.1041    15.9482    27.0659 </r>
       <r>   -12.9119     4.8589    28.0000 </r>
       <r>   -12.7197     0.0001    28.0000 </r>
       <r>   -12.5274     6.3430    29.2194 </r>
       <r>   -12.3352    14.4641    32.0000 </r>
       <r>   -12.1429     0.0000    32.0000 </r>
       <r>   -11.9507     0.0000    32.0000 </r>
       <r>   -11.7584     0.0000    32.0000 </r>
       <r>   -11.5662     0.0000    32.0000 </r>
       <r>   -11.3740     0.0000    32.0000 </r>
       <r>   -11.1817     0.0000    32.0000 </r>
       <r>   -10.9895     0.0000    32.0000 </r>
       <r>   -10.7972     0.0000    32.0000 </r>
       <r>   -10.6050     0.0000    32.0000 </r>
       <r>   -10.4128     1.7272    32.3320 </r>
       <r>   -10.2205    17.6054    35.7165 </r>
       <r>   -10.0283    41.9334    43.7782 </r>
       <r>    -9.8360     1.1505    44.0000 </r>
       <r>    -9.6438     0.0000    44.0000 </r>
       <r>    -9.4516     0.0000    44.0000 </r>
       <r>    -9.2593     0.0000    44.0000 </r>
       <r>    -9.0671     0.0000    44.0000 </r>
       <r>    -8.8748     0.0000    44.0000 </r>
       <r>    -8.6826     0.0000    44.0000 </r>
       <r>    -8.4904     5.2590    45.0110 </r>
       <r>    -8.2981    15.4937    48.0000 </r>
       <r>    -8.1059     0.0000    48.0000 </r>
       <r>    -7.9136     0.0000    48.0000 </r>
       <r>    -7.7214     0.0000    48.0000 </r>
       <r>    -7.5291     0.0000    48.0000 </r>
       <r>    -7.3369     0.0000    48.0000 </r>
       <r>    -7.1447     0.0000    48.0000 </r>
       <r>    -6.9524     0.0000    48.0000 </r>
       <r>    -6.7602     0.0000    48.0000 </r>
       <r>    -6.5679     0.0000    48.0000 </r>
       <r>    -6.3757     0.0000    48.0000 </r>
       <r>    -6.1835     5.1619    48.9923 </r>
       <r>    -5.9912     0.0334    49.0000 </r>
       <r>    -5.7990     8.5376    50.6413 </r>
       <r>    -5.6067     7.0438    52.0000 </r>
       <r>    -5.4145     0.0000    52.0000 </r>
       <r>    -5.2223     0.0000    52.0000 </r>
       <r>    -5.0300     0.0000    52.0000 </r>
       <r>    -4.8378     0.0000    52.0000 </r>
       <r>    -4.6455     0.0000    52.0000 </r>
       <r>    -4.4533     0.0000    52.0000 </r>
       <r>    -4.2611     0.0000    52.0000 </r>
       <r>    -4.0688     0.0000    52.0000 </r>
       <r>    -3.8766     0.0000    52.0000 </r>
       <r>    -3.6843     0.0000    52.0000 </r>
       <r>    -3.4921     0.0000    52.0000 </r>
       <r>    -3.2999    10.1208    53.9456 </r>
       <r>    -3.1076     5.4851    55.0001 </r>
       <r>    -2.9154     4.8259    55.9278 </r>
       <r>    -2.7231    10.1772    57.8858 </r>
       <r>    -2.5309    20.9944    61.9232 </r>
       <r>    -2.3386    10.7680    64.0000 </r>
       <r>    -2.1464     0.0000    64.0000 </r>
       <r>    -1.9542     0.0000    64.0000 </r>
       <r>    -1.7619     0.0000    64.0000 </r>
       <r>    -1.5697     0.0070    64.0013 </r>
       <r>    -1.3774     8.7015    65.6741 </r>
       <r>    -1.1852    32.9144    72.0016 </r>
       <r>    -0.9930    20.7963    76.0000 </r>
       <r>    -0.8007     0.0000    76.0000 </r>
       <r>    -0.6085     6.1662    77.1854 </r>
       <r>    -0.4162    11.2720    79.3523 </r>
       <r>    -0.2240    12.2657    81.7103 </r>
       <r>    -0.0318    34.2887    88.3020 </r>
       <r>     0.1605    26.0014    93.3013 </r>
       <r>     0.3527    14.0365    96.0000 </r>
       <r>     0.5450     0.0202    96.0039 </r>
       <r>     0.7372    15.4010    98.9646 </r>
       <r>     0.9294    24.9166   103.7553 </r>
       <r>     1.1217    19.3714   107.4802 </r>
       <r>     1.3139    31.8874   113.6108 </r>
       <r>     1.5062    25.8573   118.5845 </r>
       <r>     1.6984     7.2204   119.9727 </r>
       <r>     1.8907     0.1419   120.0000 </r>
       <r>     2.0829     0.0000   120.0000 </r>
       <r>     2.2751     0.0000   120.0000 </r>
       <r>     2.4674     0.0000   120.0000 </r>
       <r>     2.6596     0.0000   120.0000 </r>
       <r>     2.8519     0.0000   120.0000 </r>
       <r>     3.0441     0.0000   120.0000 </r>
       <r>     3.2363     0.0000   120.0000 </r>
       <r>     3.4286     0.0000   120.0000 </r>
       <r>     3.6208     0.0000   120.0000 </r>
       <r>     3.8131     0.0000   120.0000 </r>
       <r>     4.0053     0.0000   120.0000 </r>
       <r>     4.1975     0.0072   120.0014 </r>
       <r>     4.3898     5.1936   120.9998 </r>
       <r>     4.5820     0.0000   121.0000 </r>
       <r>     4.7743     0.0000   121.0000 </r>
       <r>     4.9665     0.0000   121.0000 </r>
       <r>     5.1587     7.5454   122.4505 </r>
       <r>     5.3510     8.0557   124.0000 </r>
       <r>     5.5432     0.0000   124.0000 </r>
       <r>     5.7355     1.1201   124.2153 </r>
       <r>     5.9277    14.2970   126.9638 </r>
       <r>     6.1200    12.7418   129.4141 </r>
       <r>     6.3122     4.5022   130.2796 </r>
       <r>     6.5044    12.3882   132.6611 </r>
       <r>     6.6967     9.0087   134.3929 </r>
       <r>     6.8889     8.4163   136.0151 </r>
       <r>     7.0812     5.1220   137.0000 </r>
       <r>     7.2734     4.8653   137.9353 </r>
       <r>     7.4656     7.8026   139.4353 </r>
       <r>     7.6579    12.5280   141.8437 </r>
       <r>     7.8501    12.4245   144.2323 </r>
       <r>     8.0424    11.7147   146.4853 </r>
       <r>     8.2346    15.5935   149.4837 </r>
       <r>     8.4268    13.1742   152.0163 </r>
       <r>     8.6191    16.7403   155.2388 </r>
       <r>     8.8113    16.2945   158.3714 </r>
       <r>     9.0036    19.7608   162.1766 </r>
       <r>     9.1958    15.8084   165.2183 </r>
       <r>     9.3880    17.1973   168.5264 </r>
       <r>     9.5803    20.1609   172.4028 </r>
       <r>     9.7725    14.9593   175.2791 </r>
       <r>     9.9648     3.7296   176.0000 </r>
       <r>    10.1570     0.0000   176.0000 </r>
       <r>    10.3493     0.0000   176.0000 </r>
       <r>    10.5415     0.0000   176.0000 </r>
       <r>    10.7337     0.0000   176.0000 </r>
       <r>    10.9260     0.0000   176.0000 </r>
       <r>    11.1182     0.0000   176.0000 </r>
       <r>    11.3105     0.0000   176.0000 </r>
       <r>    11.5027     0.0000   176.0000 </r>
       <r>    11.6949     0.0000   176.0000 </r>
       <r>    11.8872     0.0000   176.0000 </r>
       <r>    12.0794     0.0000   176.0000 </r>
       <r>    12.2717     0.0000   176.0000 </r>
       <r>    12.4639     0.0000   176.0000 </r>
      </set>
     </set>
    </array>
   </total>
  </dos>
 </calculation>
 <structure name="finalpos" >
  <crystal>
   <varray name="basis" >
    <v>       9.70654078       0.00000000       0.00000000 </v>
    <v>       0.00000000       9.70654078       0.00000000 </v>
    <v>       0.00000000       0.00000000       9.70654078 </v>
   </varray>
   <i name="volume">    914.52051171 </i>
   <varray name="rec_basis" >
    <v>       0.10302331       0.00000000       0.00000000 </v>
    <v>       0.00000000       0.10302331       0.00000000 </v>
    <v>       0.00000000       0.00000000       0.10302331 </v>
   </varray>
  </crystal>
  <varray name="positions" >
   <v>       0.96451595       0.33997959       0.33997959 </v>
   <v>       0.96419043       0.82822002       0.82822002 </v>
   <v>       0.02258840       0.17869098       0.78038612 </v>
   <v>       0.02258840       0.78038612       0.17869098 </v>
   <v>       0.19513468       0.20811643       0.98308380 </v>
   <v>       0.31278059       0.70117544       0.01904597 </v>
   <v>       0.80202197       0.21023148       0.02472259 </v>
   <v>       0.67932321       0.69226145       0.97183740 </v>
   <v>       0.19513468       0.98308380       0.20811643 </v>
   <v>       0.31278059       0.01904597       0.70117544 </v>
   <v>       0.67932321       0.97183740       0.69226145 </v>
   <v>       0.80202197       0.02472259       0.21023148 </v>
   <v>       0.15909288       0.69632777       0.46237432 </v>
   <v>       0.30498048       0.20585297       0.52450265 </v>
   <v>       0.80736706       0.70208012       0.51710306 </v>
   <v>       0.67583002       0.20161474       0.47798022 </v>
   <v>       0.15909288       0.46237432       0.69632777 </v>
   <v>       0.30498048       0.52450265       0.20585297 </v>
   <v>       0.67583002       0.47798022       0.20161474 </v>
   <v>       0.80736706       0.51710306       0.70208012 </v>
   <v>       0.46159484       0.33249365       0.83623506 </v>
   <v>       0.46159484       0.83623506       0.33249365 </v>
   <v>       0.52450910       0.23957968       0.23957968 </v>
   <v>       0.51967626       0.73003488       0.73003488 </v>
   <v>       0.48952791       0.50351072       0.50351072 </v>
   <v>       0.50321678       0.99924248       0.99924248 </v>
   <v>       0.99792231       0.49956950       0.00355319 </v>
   <v>       0.99792231       0.00355319       0.49956950 </v>
   <v>       0.11542748       0.88530090       0.62918100 </v>
   <v>       0.11493733       0.13483131       0.38320431 </v>
   <v>       0.89048286       0.87342605       0.37108396 </v>
   <v>       0.86233544       0.11877146       0.61456900 </v>
   <v>       0.86233544       0.61456900       0.11877146 </v>
   <v>       0.89048286       0.37108396       0.87342605 </v>
   <v>       0.11542748       0.62918100       0.88530090 </v>
   <v>       0.11493733       0.38320431       0.13483131 </v>
   <v>       0.61915660       0.12857063       0.88014542 </v>
   <v>       0.61915660       0.88014542       0.12857063 </v>
   <v>       0.37136298       0.11682782       0.11682782 </v>
   <v>       0.38675230       0.87419591       0.87419591 </v>
   <v>       0.60795356       0.63314231       0.38588732 </v>
   <v>       0.60795356       0.38588732       0.63314231 </v>
   <v>       0.34821424       0.61443066       0.61443066 </v>
   <v>       0.38014103       0.37506530       0.37506530 </v>
   <v>       0.75072936       0.74808064       0.74808064 </v>
   <v>       0.75304894       0.25450906       0.25450906 </v>
   <v>       0.24866798       0.75450380       0.24500453 </v>
   <v>       0.24866798       0.24500453       0.75450380 </v>
   <v>       0.99606412       0.01467765       0.01467765 </v>
   <v>       0.98394408       0.51776853       0.51776853 </v>
   <v>       0.49183177       0.01932998       0.51518565 </v>
   <v>       0.49183177       0.51518565       0.01932998 </v>
  </varray>
 </structure>
</modeling>
