unknown system                          
           1
     9.706541    0.000000    0.000000
     0.000000    9.706541    0.000000
     0.000000    0.000000    9.706541
   Li   P    S    Cl
    24     4    20     4
Direct configuration=     1
   0.96451412  0.33997821  0.33997821
   0.96418940  0.82822222  0.82822222
   0.02258817  0.17871803  0.78037246
   0.02258817  0.78037246  0.17871803
   0.19513204  0.20811200  0.98308110
   0.31277603  0.70117783  0.01904727
   0.80202751  0.21022582  0.02472092
   0.67932109  0.69226423  0.97183703
   0.19513204  0.98308110  0.20811200
   0.31277603  0.01904727  0.70117783
   0.67932109  0.97183703  0.69226423
   0.80202751  0.02472092  0.21022582
   0.15910247  0.69632489  0.46237928
   0.30497981  0.20585209  0.52449987
   0.80736639  0.70207895  0.51710366
   0.67583342  0.20160969  0.47797700
   0.15910247  0.46237928  0.69632489
   0.30497981  0.52449987  0.20585209
   0.67583342  0.47797700  0.20160969
   0.80736639  0.51710366  0.70207895
   0.46159767  0.33249612  0.83623228
   0.46159767  0.83623228  0.33249612
   0.52450897  0.23957892  0.23957892
   0.51967580  0.73003915  0.73003915
   0.48952988  0.50351070  0.50351070
   0.50321023  0.99924223  0.99924223
   0.99791817  0.49957299  0.00354938
   0.99791817  0.00354938  0.49957299
   0.11542357  0.88530362  0.62917437
   0.11493439  0.13482490  0.38320685
   0.89047985  0.87343237  0.37109076
   0.86233969  0.11876430  0.61456802
   0.86233969  0.61456802  0.11876430
   0.89047985  0.37109076  0.87343237
   0.11542357  0.62917437  0.88530362
   0.11493439  0.38320685  0.13482490
   0.61915296  0.12856558  0.88014995
   0.61915296  0.88014995  0.12856558
   0.37136400  0.11682587  0.11682587
   0.38675680  0.87420142  0.87420142
   0.60795266  0.63313495  0.38588875
   0.60795266  0.38588875  0.63313495
   0.34822795  0.61442631  0.61442631
   0.38014263  0.37506751  0.37506751
   0.75072739  0.74808013  0.74808013
   0.75304694  0.25450587  0.25450587
   0.24866866  0.75450249  0.24500657
   0.24866866  0.24500657  0.75450249
   0.99606229  0.01468198  0.01468198
   0.98394713  0.51777125  0.51777125
   0.49182988  0.01933079  0.51519059
   0.49182988  0.51519059  0.01933079
Direct configuration=     2
   0.96451456  0.33997846  0.33997846
   0.96418962  0.82822178  0.82822178
   0.02258818  0.17871242  0.78037538
   0.02258818  0.78037538  0.17871242
   0.19513258  0.20811299  0.98308177
   0.31277695  0.70117735  0.01904703
   0.80202633  0.21022701  0.02472129
   0.67932155  0.69226369  0.97183718
   0.19513258  0.98308177  0.20811299
   0.31277695  0.01904703  0.70117735
   0.67932155  0.97183718  0.69226369
   0.80202633  0.02472129  0.21022701
   0.15910048  0.69632554  0.46237825
   0.30497990  0.20585230  0.52450043
   0.80736649  0.70207924  0.51710351
   0.67583271  0.20161080  0.47797771
   0.15910048  0.46237825  0.69632554
   0.30497990  0.52450043  0.20585230
   0.67583271  0.47797771  0.20161080
   0.80736649  0.51710351  0.70207924
   0.46159710  0.33249558  0.83623289
   0.46159710  0.83623289  0.33249558
   0.52450894  0.23957912  0.23957912
   0.51967592  0.73003830  0.73003830
   0.48952983  0.50350995  0.50350995
   0.50321258  0.99924294  0.99924294
   0.99791975  0.49957142  0.00355107
   0.99791975  0.00355107  0.49957142
   0.11542497  0.88530237  0.62917658
   0.11493485  0.13482628  0.38320641
   0.89047998  0.87343045  0.37108881
   0.86233806  0.11876637  0.61456873
   0.86233806  0.61456873  0.11876637
   0.89047998  0.37108881  0.87343045
   0.11542497  0.62917658  0.88530237
   0.11493485  0.38320641  0.13482628
   0.61915388  0.12856699  0.88014874
   0.61915388  0.88014874  0.12856699
   0.37136334  0.11682655  0.11682655
   0.38675490  0.87419941  0.87419941
   0.60795318  0.63313703  0.38588810
   0.60795318  0.38588810  0.63313703
   0.34822395  0.61442798  0.61442798
   0.38014212  0.37506697  0.37506697
   0.75072789  0.74808029  0.74808029
   0.75304754  0.25450665  0.25450665
   0.24866858  0.75450280  0.24500625
   0.24866858  0.24500625  0.75450280
   0.99606279  0.01468074  0.01468074
   0.98394661  0.51777025  0.51777025
   0.49183040  0.01933024  0.51518912
   0.49183040  0.51518912  0.01933024
Direct configuration=     3
   0.96451486  0.33997864  0.33997864
   0.96418977  0.82822149  0.82822149
   0.02258819  0.17870865  0.78037734
   0.02258819  0.78037734  0.17870865
   0.19513294  0.20811365  0.98308223
   0.31277757  0.70117702  0.01904688
   0.80202554  0.21022781  0.02472154
   0.67932185  0.69226334  0.97183728
   0.19513294  0.98308223  0.20811365
   0.31277757  0.01904688  0.70117702
   0.67932185  0.97183728  0.69226334
   0.80202554  0.02472154  0.21022781
   0.15909914  0.69632597  0.46237755
   0.30497996  0.20585245  0.52450081
   0.80736656  0.70207944  0.51710342
   0.67583223  0.20161154  0.47797818
   0.15909914  0.46237755  0.69632597
   0.30497996  0.52450081  0.20585245
   0.67583223  0.47797818  0.20161154
   0.80736656  0.51710342  0.70207944
   0.46159671  0.33249522  0.83623330
   0.46159671  0.83623330  0.33249522
   0.52450891  0.23957926  0.23957926
   0.51967599  0.73003772  0.73003772
   0.48952980  0.50350944  0.50350944
   0.50321416  0.99924341  0.99924341
   0.99792080  0.49957037  0.00355221
   0.99792080  0.00355221  0.49957037
   0.11542591  0.88530152  0.62917807
   0.11493516  0.13482721  0.38320612
   0.89048007  0.87342916  0.37108751
   0.86233697  0.11876777  0.61456920
   0.86233697  0.61456920  0.11876777
   0.89048007  0.37108751  0.87342916
   0.11542591  0.62917807  0.88530152
   0.11493516  0.38320612  0.13482721
   0.61915450  0.12856793  0.88014792
   0.61915450  0.88014792  0.12856793
   0.37136289  0.11682701  0.11682701
   0.38675362  0.87419805  0.87419805
   0.60795353  0.63313843  0.38588767
   0.60795353  0.38588767  0.63313843
   0.34822127  0.61442911  0.61442911
   0.38014178  0.37506660  0.37506660
   0.75072822  0.74808041  0.74808041
   0.75304794  0.25450717  0.25450717
   0.24866853  0.75450301  0.24500603
   0.24866853  0.24500603  0.75450301
   0.99606312  0.01467991  0.01467991
   0.98394627  0.51776957  0.51776957
   0.49183074  0.01932987  0.51518813
   0.49183074  0.51518813  0.01932987
Direct configuration=     4
   0.96451544  0.33997898  0.33997898
   0.96419007  0.82822090  0.82822090
   0.02258821  0.17870111  0.78038125
   0.02258821  0.78038125  0.17870111
   0.19513367  0.20811497  0.98308313
   0.31277881  0.70117637  0.01904657
   0.80202395  0.21022940  0.02472204
   0.67932247  0.69226263  0.97183748
   0.19513367  0.98308313  0.20811497
   0.31277881  0.01904657  0.70117637
   0.67932247  0.97183748  0.69226263
   0.80202395  0.02472204  0.21022940
   0.15909646  0.69632684  0.46237617
   0.30498008  0.20585274  0.52450157
   0.80736669  0.70207982  0.51710323
   0.67583127  0.20161303  0.47797914
   0.15909646  0.46237617  0.69632684
   0.30498008  0.52450157  0.20585274
   0.67583127  0.47797914  0.20161303
   0.80736669  0.51710323  0.70207982
   0.46159594  0.33249450  0.83623412
   0.46159594  0.83623412  0.33249450
   0.52450887  0.23957954  0.23957954
   0.51967615  0.73003657  0.73003657
   0.48952974  0.50350843  0.50350843
   0.50321731  0.99924435  0.99924435
   0.99792292  0.49956826  0.00355449
   0.99792292  0.00355449  0.49956826
   0.11542779  0.88529983  0.62918104
   0.11493577  0.13482906  0.38320553
   0.89048024  0.87342658  0.37108490
   0.86233479  0.11877056  0.61457015
   0.86233479  0.61457015  0.11877056
   0.89048024  0.37108490  0.87342658
   0.11542779  0.62918104  0.88529983
   0.11493577  0.38320553  0.13482906
   0.61915573  0.12856981  0.88014629
   0.61915573  0.88014629  0.12856981
   0.37136199  0.11682792  0.11682792
   0.38675107  0.87419535  0.87419535
   0.60795423  0.63314122  0.38588680
   0.60795423  0.38588680  0.63314122
   0.34821589  0.61443135  0.61443135
   0.38014110  0.37506588  0.37506588
   0.75072888  0.74808063  0.74808063
   0.75304874  0.25450820  0.25450820
   0.24866843  0.75450344  0.24500560
   0.24866843  0.24500560  0.75450344
   0.99606379  0.01467824  0.01467824
   0.98394558  0.51776822  0.51776822
   0.49183144  0.01932914  0.51518616
   0.49183144  0.51518616  0.01932914
Direct configuration=     5
   0.96451532  0.33997891  0.33997891
   0.96419001  0.82822102  0.82822102
   0.02258821  0.17870267  0.78038044
   0.02258821  0.78038044  0.17870267
   0.19513352  0.20811470  0.98308295
   0.31277855  0.70117651  0.01904663
   0.80202428  0.21022907  0.02472194
   0.67932234  0.69226277  0.97183744
   0.19513352  0.98308295  0.20811470
   0.31277855  0.01904663  0.70117651
   0.67932234  0.97183744  0.69226277
   0.80202428  0.02472194  0.21022907
   0.15909701  0.69632666  0.46237645
   0.30498005  0.20585268  0.52450141
   0.80736666  0.70207974  0.51710327
   0.67583147  0.20161272  0.47797894
   0.15909701  0.46237645  0.69632666
   0.30498005  0.52450141  0.20585268
   0.67583147  0.47797894  0.20161272
   0.80736666  0.51710327  0.70207974
   0.46159610  0.33249465  0.83623395
   0.46159610  0.83623395  0.33249465
   0.52450888  0.23957948  0.23957948
   0.51967612  0.73003681  0.73003681
   0.48952975  0.50350864  0.50350864
   0.50321666  0.99924416  0.99924416
   0.99792248  0.49956870  0.00355401
   0.99792248  0.00355401  0.49956870
   0.11542740  0.88530018  0.62918042
   0.11493564  0.13482867  0.38320565
   0.89048020  0.87342712  0.37108544
   0.86233525  0.11876998  0.61456995
   0.86233525  0.61456995  0.11876998
   0.89048020  0.37108544  0.87342712
   0.11542740  0.62918042  0.88530018
   0.11493564  0.38320565  0.13482867
   0.61915548  0.12856942  0.88014663
   0.61915548  0.88014663  0.12856942
   0.37136218  0.11682773  0.11682773
   0.38675160  0.87419591  0.87419591
   0.60795409  0.63314064  0.38588698
   0.60795409  0.38588698  0.63314064
   0.34821701  0.61443089  0.61443089
   0.38014124  0.37506603  0.37506603
   0.75072874  0.74808058  0.74808058
   0.75304858  0.25450799  0.25450799
   0.24866845  0.75450335  0.24500569
   0.24866845  0.24500569  0.75450335
   0.99606365  0.01467859  0.01467859
   0.98394572  0.51776850  0.51776850
   0.49183129  0.01932929  0.51518657
   0.49183129  0.51518657  0.01932929
Direct configuration=     6
   0.96451543  0.33997897  0.33997897
   0.96419006  0.82822091  0.82822091
   0.02258821  0.17870136  0.78038112
   0.02258821  0.78038112  0.17870136
   0.19513365  0.20811493  0.98308310
   0.31277877  0.70117639  0.01904658
   0.80202400  0.21022935  0.02472202
   0.67932245  0.69226265  0.97183748
   0.19513365  0.98308310  0.20811493
   0.31277877  0.01904658  0.70117639
   0.67932245  0.97183748  0.69226265
   0.80202400  0.02472202  0.21022935
   0.15909654  0.69632681  0.46237621
   0.30498007  0.20585274  0.52450154
   0.80736668  0.70207981  0.51710323
   0.67583131  0.20161298  0.47797910
   0.15909654  0.46237621  0.69632681
   0.30498007  0.52450154  0.20585274
   0.67583131  0.47797910  0.20161298
   0.80736668  0.51710323  0.70207981
   0.46159597  0.33249452  0.83623409
   0.46159597  0.83623409  0.33249452
   0.52450887  0.23957953  0.23957953
   0.51967615  0.73003661  0.73003661
   0.48952974  0.50350846  0.50350846
   0.50321721  0.99924432  0.99924432
   0.99792285  0.49956833  0.00355441
   0.99792285  0.00355441  0.49956833
   0.11542772  0.88529989  0.62918094
   0.11493575  0.13482899  0.38320555
   0.89048023  0.87342667  0.37108498
   0.86233487  0.11877046  0.61457012
   0.86233487  0.61457012  0.11877046
   0.89048023  0.37108498  0.87342667
   0.11542772  0.62918094  0.88529989
   0.11493575  0.38320555  0.13482899
   0.61915569  0.12856975  0.88014635
   0.61915569  0.88014635  0.12856975
   0.37136202  0.11682789  0.11682789
   0.38675115  0.87419544  0.87419544
   0.60795421  0.63314113  0.38588683
   0.60795421  0.38588683  0.63314113
   0.34821607  0.61443128  0.61443128
   0.38014112  0.37506590  0.37506590
   0.75072886  0.74808062  0.74808062
   0.75304872  0.25450817  0.25450817
   0.24866844  0.75450343  0.24500562
   0.24866844  0.24500562  0.75450343
   0.99606377  0.01467830  0.01467830
   0.98394560  0.51776827  0.51776827
   0.49183141  0.01932916  0.51518622
   0.49183141  0.51518622  0.01932916
Direct configuration=     7
   0.96451595  0.33997959  0.33997959
   0.96419043  0.82822002  0.82822002
   0.02258840  0.17869098  0.78038612
   0.02258840  0.78038612  0.17869098
   0.19513468  0.20811643  0.98308380
   0.31278059  0.70117544  0.01904597
   0.80202197  0.21023148  0.02472259
   0.67932321  0.69226145  0.97183740
   0.19513468  0.98308380  0.20811643
   0.31278059  0.01904597  0.70117544
   0.67932321  0.97183740  0.69226145
   0.80202197  0.02472259  0.21023148
   0.15909288  0.69632777  0.46237432
   0.30498048  0.20585297  0.52450265
   0.80736706  0.70208012  0.51710306
   0.67583002  0.20161474  0.47798022
   0.15909288  0.46237432  0.69632777
   0.30498048  0.52450265  0.20585297
   0.67583002  0.47798022  0.20161474
   0.80736706  0.51710306  0.70208012
   0.46159484  0.33249365  0.83623506
   0.46159484  0.83623506  0.33249365
   0.52450910  0.23957968  0.23957968
   0.51967626  0.73003488  0.73003488
   0.48952791  0.50351072  0.50351072
   0.50321678  0.99924248  0.99924248
   0.99792231  0.49956950  0.00355319
   0.99792231  0.00355319  0.49956950
   0.11542748  0.88530090  0.62918100
   0.11493733  0.13483131  0.38320431
   0.89048286  0.87342605  0.37108396
   0.86233544  0.11877146  0.61456900
   0.86233544  0.61456900  0.11877146
   0.89048286  0.37108396  0.87342605
   0.11542748  0.62918100  0.88530090
   0.11493733  0.38320431  0.13483131
   0.61915660  0.12857063  0.88014542
   0.61915660  0.88014542  0.12857063
   0.37136298  0.11682782  0.11682782
   0.38675230  0.87419591  0.87419591
   0.60795356  0.63314231  0.38588732
   0.60795356  0.38588732  0.63314231
   0.34821424  0.61443066  0.61443066
   0.38014103  0.37506530  0.37506530
   0.75072936  0.74808064  0.74808064
   0.75304894  0.25450906  0.25450906
   0.24866798  0.75450380  0.24500453
   0.24866798  0.24500453  0.75450380
   0.99606412  0.01467765  0.01467765
   0.98394408  0.51776853  0.51776853
   0.49183177  0.01932998  0.51518565
   0.49183177  0.51518565  0.01932998
