  52  52   0   4
  0.1742597E+02  0.9676838E-09  0.9676838E-09  0.9676838E-09  0.2000000E-15
  1.000000000000000E-004
  CAR 
 unknown system                          
     12.57717382    -45.22580574  301      2.02813005      1.00000000
    -45.226  0.0000E+00  0.0000E+00  0.0000E+00  0.0000E+00
    -45.033  0.0000E+00  0.0000E+00  0.0000E+00  0.0000E+00
    -44.840  0.0000E+00  0.0000E+00  0.0000E+00  0.0000E+00
    -44.648  0.0000E+00  0.0000E+00  0.0000E+00  0.0000E+00
    -44.455  0.0000E+00  0.0000E+00  0.0000E+00  0.0000E+00
    -44.262  0.0000E+00  0.0000E+00  0.0000E+00  0.0000E+00
    -44.070  0.0000E+00  0.0000E+00  0.0000E+00  0.0000E+00
    -43.877  0.0000E+00  0.0000E+00  0.0000E+00  0.0000E+00
    -43.684  0.0000E+00  0.0000E+00  0.0000E+00  0.0000E+00
    -43.492  0.0000E+00  0.0000E+00  0.0000E+00  0.0000E+00
    -43.299  0.0000E+00  0.0000E+00  0.0000E+00  0.0000E+00
    -43.106  0.0000E+00  0.0000E+00  0.0000E+00  0.0000E+00
    -42.914  0.0000E+00  0.0000E+00  0.0000E+00  0.0000E+00
    -42.721  0.1938E-10  0.1938E-10  0.3735E-11  0.3735E-11
    -42.528  0.1184E-01  0.1184E-01  0.2281E-02  0.2281E-02
    -42.336  0.9438E-01  0.9438E-01  0.2047E-01  0.2047E-01
    -42.143  0.1834E-01  0.1834E-01  0.2400E-01  0.2400E-01
    -41.950  0.0000E+00  0.0000E+00  0.2400E-01  0.2400E-01
    -41.758  0.0000E+00  0.0000E+00  0.2400E-01  0.2400E-01
    -41.565  0.0000E+00  0.0000E+00  0.2400E-01  0.2400E-01
    -41.372  0.0000E+00  0.0000E+00  0.2400E-01  0.2400E-01
    -41.180  0.0000E+00  0.0000E+00  0.2400E-01  0.2400E-01
    -40.987  0.0000E+00  0.0000E+00  0.2400E-01  0.2400E-01
    -40.794  0.0000E+00  0.0000E+00  0.2400E-01  0.2400E-01
    -40.602  0.0000E+00  0.0000E+00  0.2400E-01  0.2400E-01
    -40.409  0.0000E+00  0.0000E+00  0.2400E-01  0.2400E-01
    -40.216  0.0000E+00  0.0000E+00  0.2400E-01  0.2400E-01
    -40.024  0.0000E+00  0.0000E+00  0.2400E-01  0.2400E-01
    -39.831  0.0000E+00  0.0000E+00  0.2400E-01  0.2400E-01
    -39.638  0.0000E+00  0.0000E+00  0.2400E-01  0.2400E-01
    -39.446  0.0000E+00  0.0000E+00  0.2400E-01  0.2400E-01
    -39.253  0.0000E+00  0.0000E+00  0.2400E-01  0.2400E-01
    -39.060  0.0000E+00  0.0000E+00  0.2400E-01  0.2400E-01
    -38.867  0.0000E+00  0.0000E+00  0.2400E-01  0.2400E-01
    -38.675  0.0000E+00  0.0000E+00  0.2400E-01  0.2400E-01
    -38.482  0.0000E+00  0.0000E+00  0.2400E-01  0.2400E-01
    -38.289  0.0000E+00  0.0000E+00  0.2400E-01  0.2400E-01
    -38.097  0.0000E+00  0.0000E+00  0.2400E-01  0.2400E-01
    -37.904  0.0000E+00  0.0000E+00  0.2400E-01  0.2400E-01
    -37.711  0.0000E+00  0.0000E+00  0.2400E-01  0.2400E-01
    -37.519  0.0000E+00  0.0000E+00  0.2400E-01  0.2400E-01
    -37.326  0.0000E+00  0.0000E+00  0.2400E-01  0.2400E-01
    -37.133  0.0000E+00  0.0000E+00  0.2400E-01  0.2400E-01
    -36.941  0.0000E+00  0.0000E+00  0.2400E-01  0.2400E-01
    -36.748  0.0000E+00  0.0000E+00  0.2400E-01  0.2400E-01
    -36.555  0.0000E+00  0.0000E+00  0.2400E-01  0.2400E-01
    -36.363  0.0000E+00  0.0000E+00  0.2400E-01  0.2400E-01
    -36.170  0.0000E+00  0.0000E+00  0.2400E-01  0.2400E-01
    -35.977  0.0000E+00  0.0000E+00  0.2400E-01  0.2400E-01
    -35.785  0.0000E+00  0.0000E+00  0.2400E-01  0.2400E-01
    -35.592  0.0000E+00  0.0000E+00  0.2400E-01  0.2400E-01
    -35.399  0.0000E+00  0.0000E+00  0.2400E-01  0.2400E-01
    -35.207  0.0000E+00  0.0000E+00  0.2400E-01  0.2400E-01
    -35.014  0.0000E+00  0.0000E+00  0.2400E-01  0.2400E-01
    -34.821  0.0000E+00  0.0000E+00  0.2400E-01  0.2400E-01
    -34.629  0.0000E+00  0.0000E+00  0.2400E-01  0.2400E-01
    -34.436  0.0000E+00  0.0000E+00  0.2400E-01  0.2400E-01
    -34.243  0.0000E+00  0.0000E+00  0.2400E-01  0.2400E-01
    -34.051  0.0000E+00  0.0000E+00  0.2400E-01  0.2400E-01
    -33.858  0.0000E+00  0.0000E+00  0.2400E-01  0.2400E-01
    -33.665  0.0000E+00  0.0000E+00  0.2400E-01  0.2400E-01
    -33.473  0.0000E+00  0.0000E+00  0.2400E-01  0.2400E-01
    -33.280  0.0000E+00  0.0000E+00  0.2400E-01  0.2400E-01
    -33.087  0.0000E+00  0.0000E+00  0.2400E-01  0.2400E-01
    -32.895  0.0000E+00  0.0000E+00  0.2400E-01  0.2400E-01
    -32.702  0.0000E+00  0.0000E+00  0.2400E-01  0.2400E-01
    -32.509  0.0000E+00  0.0000E+00  0.2400E-01  0.2400E-01
    -32.316  0.0000E+00  0.0000E+00  0.2400E-01  0.2400E-01
    -32.124  0.0000E+00  0.0000E+00  0.2400E-01  0.2400E-01
    -31.931  0.0000E+00  0.0000E+00  0.2400E-01  0.2400E-01
    -31.738  0.0000E+00  0.0000E+00  0.2400E-01  0.2400E-01
    -31.546  0.0000E+00  0.0000E+00  0.2400E-01  0.2400E-01
    -31.353  0.0000E+00  0.0000E+00  0.2400E-01  0.2400E-01
    -31.160  0.0000E+00  0.0000E+00  0.2400E-01  0.2400E-01
    -30.968  0.0000E+00  0.0000E+00  0.2400E-01  0.2400E-01
    -30.775  0.0000E+00  0.0000E+00  0.2400E-01  0.2400E-01
    -30.582  0.0000E+00  0.0000E+00  0.2400E-01  0.2400E-01
    -30.390  0.0000E+00  0.0000E+00  0.2400E-01  0.2400E-01
    -30.197  0.0000E+00  0.0000E+00  0.2400E-01  0.2400E-01
    -30.004  0.0000E+00  0.0000E+00  0.2400E-01  0.2400E-01
    -29.812  0.0000E+00  0.0000E+00  0.2400E-01  0.2400E-01
    -29.619  0.0000E+00  0.0000E+00  0.2400E-01  0.2400E-01
    -29.426  0.0000E+00  0.0000E+00  0.2400E-01  0.2400E-01
    -29.234  0.0000E+00  0.0000E+00  0.2400E-01  0.2400E-01
    -29.041  0.0000E+00  0.0000E+00  0.2400E-01  0.2400E-01
    -28.848  0.0000E+00  0.0000E+00  0.2400E-01  0.2400E-01
    -28.656  0.0000E+00  0.0000E+00  0.2400E-01  0.2400E-01
    -28.463  0.0000E+00  0.0000E+00  0.2400E-01  0.2400E-01
    -28.270  0.0000E+00  0.0000E+00  0.2400E-01  0.2400E-01
    -28.078  0.0000E+00  0.0000E+00  0.2400E-01  0.2400E-01
    -27.885  0.0000E+00  0.0000E+00  0.2400E-01  0.2400E-01
    -27.692  0.0000E+00  0.0000E+00  0.2400E-01  0.2400E-01
    -27.500  0.0000E+00  0.0000E+00  0.2400E-01  0.2400E-01
    -27.307  0.0000E+00  0.0000E+00  0.2400E-01  0.2400E-01
    -27.114  0.0000E+00  0.0000E+00  0.2400E-01  0.2400E-01
    -26.922  0.0000E+00  0.0000E+00  0.2400E-01  0.2400E-01
    -26.729  0.0000E+00  0.0000E+00  0.2400E-01  0.2400E-01
    -26.536  0.0000E+00  0.0000E+00  0.2400E-01  0.2400E-01
    -26.343  0.0000E+00  0.0000E+00  0.2400E-01  0.2400E-01
    -26.151  0.0000E+00  0.0000E+00  0.2400E-01  0.2400E-01
    -25.958  0.0000E+00  0.0000E+00  0.2400E-01  0.2400E-01
    -25.765  0.0000E+00  0.0000E+00  0.2400E-01  0.2400E-01
    -25.573  0.0000E+00  0.0000E+00  0.2400E-01  0.2400E-01
    -25.380  0.0000E+00  0.0000E+00  0.2400E-01  0.2400E-01
    -25.187  0.0000E+00  0.0000E+00  0.2400E-01  0.2400E-01
    -24.995  0.0000E+00  0.0000E+00  0.2400E-01  0.2400E-01
    -24.802  0.0000E+00  0.0000E+00  0.2400E-01  0.2400E-01
    -24.609  0.0000E+00  0.0000E+00  0.2400E-01  0.2400E-01
    -24.417  0.0000E+00  0.0000E+00  0.2400E-01  0.2400E-01
    -24.224  0.0000E+00  0.0000E+00  0.2400E-01  0.2400E-01
    -24.031  0.0000E+00  0.0000E+00  0.2400E-01  0.2400E-01
    -23.839  0.0000E+00  0.0000E+00  0.2400E-01  0.2400E-01
    -23.646  0.0000E+00  0.0000E+00  0.2400E-01  0.2400E-01
    -23.453  0.0000E+00  0.0000E+00  0.2400E-01  0.2400E-01
    -23.261  0.0000E+00  0.0000E+00  0.2400E-01  0.2400E-01
    -23.068  0.0000E+00  0.0000E+00  0.2400E-01  0.2400E-01
    -22.875  0.0000E+00  0.0000E+00  0.2400E-01  0.2400E-01
    -22.683  0.0000E+00  0.0000E+00  0.2400E-01  0.2400E-01
    -22.490  0.0000E+00  0.0000E+00  0.2400E-01  0.2400E-01
    -22.297  0.0000E+00  0.0000E+00  0.2400E-01  0.2400E-01
    -22.105  0.0000E+00  0.0000E+00  0.2400E-01  0.2400E-01
    -21.912  0.0000E+00  0.0000E+00  0.2400E-01  0.2400E-01
    -21.719  0.0000E+00  0.0000E+00  0.2400E-01  0.2400E-01
    -21.527  0.0000E+00  0.0000E+00  0.2400E-01  0.2400E-01
    -21.334  0.0000E+00  0.0000E+00  0.2400E-01  0.2400E-01
    -21.141  0.0000E+00  0.0000E+00  0.2400E-01  0.2400E-01
    -20.949  0.0000E+00  0.0000E+00  0.2400E-01  0.2400E-01
    -20.756  0.0000E+00  0.0000E+00  0.2400E-01  0.2400E-01
    -20.563  0.0000E+00  0.0000E+00  0.2400E-01  0.2400E-01
    -20.371  0.0000E+00  0.0000E+00  0.2400E-01  0.2400E-01
    -20.178  0.0000E+00  0.0000E+00  0.2400E-01  0.2400E-01
    -19.985  0.0000E+00  0.0000E+00  0.2400E-01  0.2400E-01
    -19.792  0.0000E+00  0.0000E+00  0.2400E-01  0.2400E-01
    -19.600  0.0000E+00  0.0000E+00  0.2400E-01  0.2400E-01
    -19.407  0.0000E+00  0.0000E+00  0.2400E-01  0.2400E-01
    -19.214  0.0000E+00  0.0000E+00  0.2400E-01  0.2400E-01
    -19.022  0.0000E+00  0.0000E+00  0.2400E-01  0.2400E-01
    -18.829  0.0000E+00  0.0000E+00  0.2400E-01  0.2400E-01
    -18.636  0.0000E+00  0.0000E+00  0.2400E-01  0.2400E-01
    -18.444  0.0000E+00  0.0000E+00  0.2400E-01  0.2400E-01
    -18.251  0.0000E+00  0.0000E+00  0.2400E-01  0.2400E-01
    -18.058  0.0000E+00  0.0000E+00  0.2400E-01  0.2400E-01
    -17.866  0.0000E+00  0.0000E+00  0.2400E-01  0.2400E-01
    -17.673  0.0000E+00  0.0000E+00  0.2400E-01  0.2400E-01
    -17.480  0.0000E+00  0.0000E+00  0.2400E-01  0.2400E-01
    -17.288  0.0000E+00  0.0000E+00  0.2400E-01  0.2400E-01
    -17.095  0.0000E+00  0.0000E+00  0.2400E-01  0.2400E-01
    -16.902  0.0000E+00  0.0000E+00  0.2400E-01  0.2400E-01
    -16.710  0.0000E+00  0.0000E+00  0.2400E-01  0.2400E-01
    -16.517  0.0000E+00  0.0000E+00  0.2400E-01  0.2400E-01
    -16.324  0.0000E+00  0.0000E+00  0.2400E-01  0.2400E-01
    -16.132  0.0000E+00  0.0000E+00  0.2400E-01  0.2400E-01
    -15.939  0.0000E+00  0.0000E+00  0.2400E-01  0.2400E-01
    -15.746  0.0000E+00  0.0000E+00  0.2400E-01  0.2400E-01
    -15.554  0.0000E+00  0.0000E+00  0.2400E-01  0.2400E-01
    -15.361  0.0000E+00  0.0000E+00  0.2400E-01  0.2400E-01
    -15.168  0.0000E+00  0.0000E+00  0.2400E-01  0.2400E-01
    -14.976  0.0000E+00  0.0000E+00  0.2400E-01  0.2400E-01
    -14.783  0.0000E+00  0.0000E+00  0.2400E-01  0.2400E-01
    -14.590  0.0000E+00  0.0000E+00  0.2400E-01  0.2400E-01
    -14.398  0.0000E+00  0.0000E+00  0.2400E-01  0.2400E-01
    -14.205  0.0000E+00  0.0000E+00  0.2400E-01  0.2400E-01
    -14.012  0.0000E+00  0.0000E+00  0.2400E-01  0.2400E-01
    -13.820  0.0000E+00  0.0000E+00  0.2400E-01  0.2400E-01
    -13.627  0.0000E+00  0.0000E+00  0.2400E-01  0.2400E-01
    -13.434  0.0000E+00  0.0000E+00  0.2400E-01  0.2400E-01
    -13.241  0.9147E-17  0.9147E-17  0.2400E-01  0.2400E-01
    -13.049  0.8344E-02  0.8344E-02  0.2561E-01  0.2561E-01
    -12.856  0.1242E-01  0.1242E-01  0.2800E-01  0.2800E-01
    -12.663  0.5354E-02  0.5354E-02  0.2903E-01  0.2903E-01
    -12.471  0.1520E-01  0.1520E-01  0.3197E-01  0.3197E-01
    -12.278  0.9659E-04  0.9659E-04  0.3200E-01  0.3200E-01
    -12.085  0.0000E+00  0.0000E+00  0.3200E-01  0.3200E-01
    -11.893  0.0000E+00  0.0000E+00  0.3200E-01  0.3200E-01
    -11.700  0.0000E+00  0.0000E+00  0.3200E-01  0.3200E-01
    -11.507  0.0000E+00  0.0000E+00  0.3200E-01  0.3200E-01
    -11.315  0.0000E+00  0.0000E+00  0.3200E-01  0.3200E-01
    -11.122  0.0000E+00  0.0000E+00  0.3200E-01  0.3200E-01
    -10.929  0.0000E+00  0.0000E+00  0.3200E-01  0.3200E-01
    -10.737  0.0000E+00  0.0000E+00  0.3200E-01  0.3200E-01
    -10.544  0.0000E+00  0.0000E+00  0.3200E-01  0.3200E-01
    -10.351  0.7245E-03  0.7245E-03  0.3214E-01  0.3214E-01
    -10.159  0.1665E-01  0.1665E-01  0.3535E-01  0.3535E-01
     -9.966  0.3268E-01  0.3268E-01  0.4164E-01  0.4164E-01
     -9.773  0.1155E-01  0.1155E-01  0.4388E-01  0.4388E-01
     -9.581  0.6177E-03  0.6177E-03  0.4400E-01  0.4400E-01
     -9.388  0.0000E+00  0.0000E+00  0.4400E-01  0.4400E-01
     -9.195  0.0000E+00  0.0000E+00  0.4400E-01  0.4400E-01
     -9.003  0.0000E+00  0.0000E+00  0.4400E-01  0.4400E-01
     -8.810  0.0000E+00  0.0000E+00  0.4400E-01  0.4400E-01
     -8.617  0.0000E+00  0.0000E+00  0.4400E-01  0.4400E-01
     -8.425  0.4476E-03  0.4476E-03  0.4409E-01  0.4409E-01
     -8.232  0.1669E-01  0.1669E-01  0.4730E-01  0.4730E-01
     -8.039  0.3624E-02  0.3624E-02  0.4800E-01  0.4800E-01
     -7.847  0.0000E+00  0.0000E+00  0.4800E-01  0.4800E-01
     -7.654  0.0000E+00  0.0000E+00  0.4800E-01  0.4800E-01
     -7.461  0.0000E+00  0.0000E+00  0.4800E-01  0.4800E-01
     -7.269  0.0000E+00  0.0000E+00  0.4800E-01  0.4800E-01
     -7.076  0.0000E+00  0.0000E+00  0.4800E-01  0.4800E-01
     -6.883  0.0000E+00  0.0000E+00  0.4800E-01  0.4800E-01
     -6.690  0.0000E+00  0.0000E+00  0.4800E-01  0.4800E-01
     -6.498  0.0000E+00  0.0000E+00  0.4800E-01  0.4800E-01
     -6.305  0.2132E-16  0.2132E-16  0.4800E-01  0.4800E-01
     -6.112  0.3923E-02  0.3923E-02  0.4876E-01  0.4876E-01
     -5.920  0.1267E-02  0.1267E-02  0.4900E-01  0.4900E-01
     -5.727  0.4206E-02  0.4206E-02  0.4981E-01  0.4981E-01
     -5.534  0.1134E-01  0.1134E-01  0.5200E-01  0.5200E-01
     -5.342  0.0000E+00  0.0000E+00  0.5200E-01  0.5200E-01
     -5.149  0.0000E+00  0.0000E+00  0.5200E-01  0.5200E-01
     -4.956  0.0000E+00  0.0000E+00  0.5200E-01  0.5200E-01
     -4.764  0.0000E+00  0.0000E+00  0.5200E-01  0.5200E-01
     -4.571  0.0000E+00  0.0000E+00  0.5200E-01  0.5200E-01
     -4.378  0.0000E+00  0.0000E+00  0.5200E-01  0.5200E-01
     -4.186  0.0000E+00  0.0000E+00  0.5200E-01  0.5200E-01
     -3.993  0.0000E+00  0.0000E+00  0.5200E-01  0.5200E-01
     -3.800  0.0000E+00  0.0000E+00  0.5200E-01  0.5200E-01
     -3.608  0.0000E+00  0.0000E+00  0.5200E-01  0.5200E-01
     -3.415  0.2737E-17  0.2737E-17  0.5200E-01  0.5200E-01
     -3.222  0.5421E-02  0.5421E-02  0.5304E-01  0.5304E-01
     -3.030  0.1015E-01  0.1015E-01  0.5500E-01  0.5500E-01
     -2.837  0.4442E-02  0.4442E-02  0.5586E-01  0.5586E-01
     -2.644  0.1061E-01  0.1061E-01  0.5790E-01  0.5790E-01
     -2.452  0.1465E-01  0.1465E-01  0.6072E-01  0.6072E-01
     -2.259  0.1639E-01  0.1639E-01  0.6388E-01  0.6388E-01
     -2.066  0.6029E-03  0.6029E-03  0.6400E-01  0.6400E-01
     -1.874  0.0000E+00  0.0000E+00  0.6400E-01  0.6400E-01
     -1.681  0.2146E-05  0.2146E-05  0.6400E-01  0.6400E-01
     -1.488  0.1037E-01  0.1037E-01  0.6600E-01  0.6600E-01
     -1.296  0.2029E-01  0.2029E-01  0.6991E-01  0.6991E-01
     -1.103  0.2262E-01  0.2262E-01  0.7427E-01  0.7427E-01
     -0.910  0.8951E-02  0.8951E-02  0.7600E-01  0.7600E-01
     -0.718  0.1146E-07  0.1146E-07  0.7600E-01  0.7600E-01
     -0.525  0.1132E-01  0.1132E-01  0.7818E-01  0.7818E-01
     -0.332  0.1015E-01  0.1015E-01  0.8014E-01  0.8014E-01
     -0.139  0.1318E-01  0.1318E-01  0.8268E-01  0.8268E-01
      0.053  0.2846E-01  0.2846E-01  0.8817E-01  0.8817E-01
      0.246  0.2234E-01  0.2234E-01  0.9248E-01  0.9248E-01
      0.439  0.1688E-01  0.1688E-01  0.9573E-01  0.9573E-01
      0.631  0.1348E-02  0.1348E-02  0.9600E-01  0.9600E-01
      0.824  0.1582E-01  0.1582E-01  0.9905E-01  0.9905E-01
      1.017  0.2050E-01  0.2050E-01  0.1030E+00  0.1030E+00
      1.209  0.2246E-01  0.2246E-01  0.1073E+00  0.1073E+00
      1.402  0.2507E-01  0.2507E-01  0.1122E+00  0.1122E+00
      1.595  0.2433E-01  0.2433E-01  0.1168E+00  0.1168E+00
      1.787  0.1530E-01  0.1530E-01  0.1198E+00  0.1198E+00
      1.980  0.1070E-02  0.1070E-02  0.1200E+00  0.1200E+00
      2.173  0.0000E+00  0.0000E+00  0.1200E+00  0.1200E+00
      2.365  0.0000E+00  0.0000E+00  0.1200E+00  0.1200E+00
      2.558  0.0000E+00  0.0000E+00  0.1200E+00  0.1200E+00
      2.751  0.0000E+00  0.0000E+00  0.1200E+00  0.1200E+00
      2.943  0.0000E+00  0.0000E+00  0.1200E+00  0.1200E+00
      3.136  0.0000E+00  0.0000E+00  0.1200E+00  0.1200E+00
      3.329  0.0000E+00  0.0000E+00  0.1200E+00  0.1200E+00
      3.521  0.0000E+00  0.0000E+00  0.1200E+00  0.1200E+00
      3.714  0.0000E+00  0.0000E+00  0.1200E+00  0.1200E+00
      3.907  0.0000E+00  0.0000E+00  0.1200E+00  0.1200E+00
      4.099  0.0000E+00  0.0000E+00  0.1200E+00  0.1200E+00
      4.292  0.5179E-06  0.5179E-06  0.1200E+00  0.1200E+00
      4.485  0.5006E-02  0.5006E-02  0.1210E+00  0.1210E+00
      4.677  0.1838E-03  0.1838E-03  0.1210E+00  0.1210E+00
      4.870  0.0000E+00  0.0000E+00  0.1210E+00  0.1210E+00
      5.063  0.5859E-05  0.5859E-05  0.1210E+00  0.1210E+00
      5.255  0.5207E-02  0.5207E-02  0.1220E+00  0.1220E+00
      5.448  0.1035E-01  0.1035E-01  0.1240E+00  0.1240E+00
      5.641  0.0000E+00  0.0000E+00  0.1240E+00  0.1240E+00
      5.833  0.8728E-03  0.8728E-03  0.1242E+00  0.1242E+00
      6.026  0.1384E-01  0.1384E-01  0.1268E+00  0.1268E+00
      6.219  0.1278E-01  0.1278E-01  0.1293E+00  0.1293E+00
      6.412  0.5013E-02  0.5013E-02  0.1303E+00  0.1303E+00
      6.604  0.1057E-01  0.1057E-01  0.1323E+00  0.1323E+00
      6.797  0.1042E-01  0.1042E-01  0.1343E+00  0.1343E+00
      6.990  0.8854E-02  0.8854E-02  0.1360E+00  0.1360E+00
      7.182  0.5098E-02  0.5098E-02  0.1370E+00  0.1370E+00
      7.375  0.5305E-02  0.5305E-02  0.1380E+00  0.1380E+00
      7.568  0.1138E-01  0.1138E-01  0.1402E+00  0.1402E+00
      7.760  0.1120E-01  0.1120E-01  0.1424E+00  0.1424E+00
      7.953  0.1080E-01  0.1080E-01  0.1445E+00  0.1445E+00
      8.146  0.1563E-01  0.1563E-01  0.1475E+00  0.1475E+00
      8.338  0.1342E-01  0.1342E-01  0.1501E+00  0.1501E+00
      8.531  0.1645E-01  0.1645E-01  0.1532E+00  0.1532E+00
      8.724  0.1208E-01  0.1208E-01  0.1556E+00  0.1556E+00
      8.916  0.1736E-01  0.1736E-01  0.1589E+00  0.1589E+00
      9.109  0.1517E-01  0.1517E-01  0.1618E+00  0.1618E+00
      9.302  0.2228E-01  0.2228E-01  0.1661E+00  0.1661E+00
      9.494  0.1493E-01  0.1493E-01  0.1690E+00  0.1690E+00
      9.687  0.1707E-01  0.1750E-01  0.1723E+00  0.1724E+00
      9.880  0.1484E-01  0.1519E-01  0.1752E+00  0.1753E+00
     10.072  0.4327E-02  0.3577E-02  0.1760E+00  0.1760E+00
     10.265  0.0000E+00  0.0000E+00  0.1760E+00  0.1760E+00
     10.458  0.0000E+00  0.0000E+00  0.1760E+00  0.1760E+00
     10.650  0.0000E+00  0.0000E+00  0.1760E+00  0.1760E+00
     10.843  0.0000E+00  0.0000E+00  0.1760E+00  0.1760E+00
     11.036  0.0000E+00  0.0000E+00  0.1760E+00  0.1760E+00
     11.228  0.0000E+00  0.0000E+00  0.1760E+00  0.1760E+00
     11.421  0.0000E+00  0.0000E+00  0.1760E+00  0.1760E+00
     11.614  0.0000E+00  0.0000E+00  0.1760E+00  0.1760E+00
     11.806  0.0000E+00  0.0000E+00  0.1760E+00  0.1760E+00
     11.999  0.0000E+00  0.0000E+00  0.1760E+00  0.1760E+00
     12.192  0.0000E+00  0.0000E+00  0.1760E+00  0.1760E+00
     12.384  0.0000E+00  0.0000E+00  0.1760E+00  0.1760E+00
     12.577  0.0000E+00  0.0000E+00  0.1760E+00  0.1760E+00
