 vasp.6.4.1 05Apr23 (build Jun 07 2023 15:38:11) complex                        
  
 executed on             LinuxIFC date 2023.10.16  22:29:49
 running  128 mpi-ranks, with    1 threads/rank, on    1 nodes
 distrk:  each k-point on  128 cores,    1 groups
 distr:  one band on NCORE=  32 cores,    4 groups


--------------------------------------------------------------------------------------------------------


 INCAR:
   GGA = PE
   PREC = Accu
   EDIFF = 1.e-6
   EDIFFG = -1.e-3
   ENCUT = 520.
   NELM = 100
   NELMDL = -10
   LASPH = .TRUE.
   LREAL = Auto
   LMAXMIX = 4
   ISPIN = 2
   LDIAG = .TRUE.
   LPLANE = .TRUE.
   IVDW = 12
   SIGMA = 0.03
   ISMEAR = 0
   NSW = 1000    number of steps for IOM
   IBRION = 2    ionic relax: 0-MD 1-quasi-New 2-CG
   ISIF = 2    ionic relaxation + stress tensor calcn.
   LCHARG = .FALSE.
   LWAVE = .FALSE.
   ALGO = F
   KPAR = 1
   NPAR = 4
   POTIM = 0.2

 POTCAR:    PAW_PBE Li_sv_GW 25Mar2010            
 POTCAR:    PAW_PBE P_GW 19Mar2012                
 POTCAR:    PAW_PBE S_GW 19Mar2012                
 POTCAR:    PAW_PBE Cl_GW 19Mar2012               
 -----------------------------------------------------------------------------
|                                                                             |
|           W    W    AA    RRRRR   N    N  II  N    N   GGGG   !!!           |
|           W    W   A  A   R    R  NN   N  II  NN   N  G    G  !!!           |
|           W    W  A    A  R    R  N N  N  II  N N  N  G       !!!           |
|           W WW W  AAAAAA  RRRRR   N  N N  II  N  N N  G  GGG   !            |
|           WW  WW  A    A  R   R   N   NN  II  N   NN  G    G                |
|           W    W  A    A  R    R  N    N  II  N    N   GGGG   !!!           |
|                                                                             |
|     You use a magnetic or noncollinear calculation, but did not specify     |
|     the initial magnetic moment with the MAGMOM tag. Note that a            |
|     default of 1 will be used for all atoms. This ferromagnetic setup       |
|     may break the symmetry of the crystal, in particular it may rule        |
|     out finding an antiferromagnetic solution. Thence, we recommend         |
|     setting the initial magnetic moment manually or verifying carefully     |
|     that this magnetic setup is desired.                                    |
|                                                                             |
 -----------------------------------------------------------------------------

 POTCAR:    PAW_PBE Li_sv_GW 25Mar2010            
   SHA256 =  24a6ace15a582615486b36ce4dc781b048409f4015b7684ed1273ae395fa2fdc Li_sv_GW/POTCAR       
   COPYR  = (c) Copyright 25Mar2010 Georg Kresse                                                    
   COPYR  = This file is part of the software VASP. Any use, copying, and all other rights are regul
   COPYR  = If you do not have a valid VASP license, you may not use, copy or distribute this file. 
   VRHFIN =Li: 1s2s                                                                                 
   LEXCH  = PE                                                                                      
   EATOM  =   200.9989 eV,   14.7730 Ry                                                             
                                                                                                    
   TITEL  = PAW_PBE Li_sv_GW 25Mar2010                                                              
   LULTRA =        F    use ultrasoft PP ?                                                          
   IUNSCR =        0    unscreen: 0-lin 1-nonlin 2-no                                               
   RPACOR =    0.000    partial core radius                                                         
   POMASS =    7.010; ZVAL   =    3.000    mass and valenz                                          
   RCORE  =    1.500    outmost cutoff radius                                                       
   RWIGS  =    1.600; RWIGS  =    0.847    wigner-seitz radius (au A)                               
   ENMAX  =  433.699; ENMIN  =  325.274 eV                                                          
   RCLOC  =    1.003    cutoff for local pot                                                        
   LCOR   =        T    correct aug charges                                                         
   LPAW   =        T    paw PP                                                                      
   EAUG   = 1041.699                                                                                
   RMAX   =    1.536    core radius for proj-oper                                                   
   RAUG   =    1.300    factor for augmentation sphere                                              
   RDEP   =    1.520    radius for radial grids                                                     
   RDEPT  =    1.300    core radius for aug-charge                                                  
                                                                                                    
   Atomic configuration                                                                             
    4 entries                                                                                       
     n  l   j            E        occ.                                                              
     1  0  0.50       -53.3604   2.0000                                                             
     1  0  0.50       -52.0001   0.0000                                                             
     2  1  0.50        -1.5636   1.0000                                                             
     3  2  1.50        -1.3606   0.0000                                                             
   Description                                                                                      
     l       E           TYP  RCUT    TYP  RCUT                                                     
     0    -53.3603633     23  1.200                                                                 
     0    -52.0001064     23  1.200                                                                 
     0    176.8757380     23  1.300                                                                 
     1     -1.5635925     23  1.500                                                                 
     1    108.8466080     23  1.500                                                                 
     2     81.6349560     23  1.500                                                                 
  local pseudopotential read in
  kinetic energy density of atom read in
  atomic valenz-charges read in
  non local Contribution for L=           0  read in
    real space projection operators read in
  non local Contribution for L=           0  read in
    real space projection operators read in
  non local Contribution for L=           0  read in
    real space projection operators read in
  non local Contribution for L=           1  read in
    real space projection operators read in
  non local Contribution for L=           1  read in
    real space projection operators read in
  non local Contribution for L=           2  read in
    real space projection operators read in
    PAW grid and wavefunctions read in
 
   number of l-projection  operators is LMAX  =           6
   number of lm-projection operators is LMMAX =          14
 
 POTCAR:    PAW_PBE P_GW 19Mar2012                
   SHA256 =  715c28f2291d37b61637ce89646c59f66f71c8b8d8bfba631e5feb9f7b42defe P_GW/POTCAR           
   COPYR  = (c) Copyright 19Mar2012 Georg Kresse                                                    
   COPYR  = This file is part of the software VASP. Any use, copying, and all other rights are regul
   COPYR  = If you do not have a valid VASP license, you may not use, copy or distribute this file. 
   VRHFIN =P : s2p3                                                                                 
   LEXCH  = PE                                                                                      
   EATOM  =   176.0430 eV,   12.9388 Ry                                                             
                                                                                                    
   TITEL  = PAW_PBE P_GW 19Mar2012                                                                  
   LULTRA =        F    use ultrasoft PP ?                                                          
   IUNSCR =        1    unscreen: 0-lin 1-nonlin 2-no                                               
   RPACOR =    1.400    partial core radius                                                         
   POMASS =   30.974; ZVAL   =    5.000    mass and valenz                                          
   RCORE  =    2.000    outmost cutoff radius                                                       
   RWIGS  =    1.900; RWIGS  =    1.005    wigner-seitz radius (au A)                               
   ENMAX  =  255.040; ENMIN  =  191.280 eV                                                          
   ICORE  =        3    local potential                                                             
   LCOR   =        T    correct aug charges                                                         
   LPAW   =        T    paw PP                                                                      
   EAUG   =  499.732                                                                                
   DEXC   =    0.000                                                                                
   RMAX   =    2.047    core radius for proj-oper                                                   
   RAUG   =    1.300    factor for augmentation sphere                                              
   RDEP   =    2.059    radius for radial grids                                                     
   RDEPT  =    1.900    core radius for aug-charge                                                  
                                                                                                    
   Atomic configuration                                                                             
    7 entries                                                                                       
     n  l   j            E        occ.                                                              
     1  0  0.50     -2084.0982   2.0000                                                             
     2  0  0.50      -173.9859   2.0000                                                             
     2  1  1.50      -124.4865   6.0000                                                             
     3  0  0.50       -13.9692   2.0000                                                             
     3  1  0.50        -5.5067   3.0000                                                             
     3  2  1.50        -6.8029   0.0000                                                             
     4  3  2.50        -1.3606   0.0000                                                             
   Description                                                                                      
     l       E           TYP  RCUT    TYP  RCUT                                                     
     0    -13.9691528     23  1.900                                                                 
     0    102.0436950     23  1.900                                                                 
     1     -5.5066939     23  1.900                                                                 
     1    102.0436950     23  1.900                                                                 
     2     -8.1634956     23  2.000                                                                 
     2     81.6349560     23  2.000                                                                 
     3     27.2116520     23  2.000                                                                 
  local pseudopotential read in
  partial core-charges read in
  partial kinetic energy density read in
  kinetic energy density of atom read in
  atomic valenz-charges read in
  non local Contribution for L=           0  read in
    real space projection operators read in
  non local Contribution for L=           0  read in
    real space projection operators read in
  non local Contribution for L=           1  read in
    real space projection operators read in
  non local Contribution for L=           1  read in
    real space projection operators read in
  non local Contribution for L=           2  read in
    real space projection operators read in
  non local Contribution for L=           2  read in
    real space projection operators read in
    PAW grid and wavefunctions read in
 
   number of l-projection  operators is LMAX  =           6
   number of lm-projection operators is LMMAX =          18
 
 POTCAR:    PAW_PBE S_GW 19Mar2012                
   SHA256 =  357db9cfb0783579b2eebe03197c2d807131fea8ea663b1fcfb6ce2fa75af011 S_GW/POTCAR           
   COPYR  = (c) Copyright 19Mar2012 Georg Kresse                                                    
   COPYR  = This file is part of the software VASP. Any use, copying, and all other rights are regul
   COPYR  = If you do not have a valid VASP license, you may not use, copy or distribute this file. 
   VRHFIN =S : s2p4                                                                                 
   LEXCH  = PE                                                                                      
   EATOM  =   276.8230 eV,   20.3459 Ry                                                             
                                                                                                    
   TITEL  = PAW_PBE S_GW 19Mar2012                                                                  
   LULTRA =        F    use ultrasoft PP ?                                                          
   IUNSCR =        1    unscreen: 0-lin 1-nonlin 2-no                                               
   RPACOR =    1.400    partial core radius                                                         
   POMASS =   32.066; ZVAL   =    6.000    mass and valenz                                          
   RCORE  =    1.900    outmost cutoff radius                                                       
   RWIGS  =    1.900; RWIGS  =    1.005    wigner-seitz radius (au A)                               
   ENMAX  =  258.689; ENMIN  =  194.016 eV                                                          
   ICORE  =        3    local potential                                                             
   LCOR   =        T    correct aug charges                                                         
   LPAW   =        T    paw PP                                                                      
   EAUG   =  488.319                                                                                
   DEXC   =    0.000                                                                                
   RMAX   =    1.942    core radius for proj-oper                                                   
   RAUG   =    1.300    factor for augmentation sphere                                              
   RDEP   =    1.954    radius for radial grids                                                     
   RDEPT  =    1.900    core radius for aug-charge                                                  
                                                                                                    
   Atomic configuration                                                                             
    7 entries                                                                                       
     n  l   j            E        occ.                                                              
     1  0  0.50     -2405.8406   2.0000                                                             
     2  0  0.50      -211.7007   2.0000                                                             
     2  1  1.50      -156.4958   6.0000                                                             
     3  0  0.50       -17.2562   2.0000                                                             
     3  1  0.50        -7.0085   4.0000                                                             
     3  2  1.50        -8.1635   0.0000                                                             
     4  3  2.50        -1.3606   0.0000                                                             
   Description                                                                                      
     l       E           TYP  RCUT    TYP  RCUT                                                     
     0    -17.2561639     23  1.700                                                                 
     0     88.4378690     23  1.900                                                                 
     1     -7.0085399     23  1.900                                                                 
     1     88.4378690     23  1.900                                                                 
     2    -10.8846608     23  1.900                                                                 
     2     54.4233040     23  1.900                                                                 
     3     27.2116520     23  1.800                                                                 
  local pseudopotential read in
  partial core-charges read in
  partial kinetic energy density read in
  kinetic energy density of atom read in
  atomic valenz-charges read in
  non local Contribution for L=           0  read in
    real space projection operators read in
  non local Contribution for L=           0  read in
    real space projection operators read in
  non local Contribution for L=           1  read in
    real space projection operators read in
  non local Contribution for L=           1  read in
    real space projection operators read in
  non local Contribution for L=           2  read in
    real space projection operators read in
  non local Contribution for L=           2  read in
    real space projection operators read in
    PAW grid and wavefunctions read in
 
   number of l-projection  operators is LMAX  =           6
   number of lm-projection operators is LMMAX =          18
 
 POTCAR:    PAW_PBE Cl_GW 19Mar2012               
   SHA256 =  3ef3b3169d6a9a89979f58b4cf17d927a58518fc660d8883d88cacaee8175441 Cl_GW/POTCAR          
   COPYR  = (c) Copyright 19Mar2012 Georg Kresse                                                    
   COPYR  = This file is part of the software VASP. Any use, copying, and all other rights are regul
   COPYR  = If you do not have a valid VASP license, you may not use, copy or distribute this file. 
   VRHFIN =Cl: s2p5                                                                                 
   LEXCH  = PE                                                                                      
   EATOM  =   409.7259 eV,   30.1140 Ry                                                             
                                                                                                    
   TITEL  = PAW_PBE Cl_GW 19Mar2012                                                                 
   LULTRA =        F    use ultrasoft PP ?                                                          
   IUNSCR =        1    unscreen: 0-lin 1-nonlin 2-no                                               
   RPACOR =    1.400    partial core radius                                                         
   POMASS =   35.453; ZVAL   =    7.000    mass and valenz                                          
   RCORE  =    1.900    outmost cutoff radius                                                       
   RWIGS  =    1.900; RWIGS  =    1.005    wigner-seitz radius (au A)                               
   ENMAX  =  262.472; ENMIN  =  196.854 eV                                                          
   ICORE  =        3    local potential                                                             
   LCOR   =        T    correct aug charges                                                         
   LPAW   =        T    paw PP                                                                      
   EAUG   =  456.703                                                                                
   DEXC   =    0.000                                                                                
   RMAX   =    1.945    core radius for proj-oper                                                   
   RAUG   =    1.300    factor for augmentation sphere                                              
   RDEP   =    2.020    radius for radial grids                                                     
   RDEPT  =    1.900    core radius for aug-charge                                                  
                                                                                                    
   Atomic configuration                                                                             
    7 entries                                                                                       
     n  l   j            E        occ.                                                              
     1  0  0.50     -2751.1850   2.0000                                                             
     2  0  0.50      -252.6861   2.0000                                                             
     2  1  1.50      -191.6157   6.0000                                                             
     3  0  0.50       -20.6916   2.0000                                                             
     3  1  0.50        -8.5949   5.0000                                                             
     3  2  1.50        -9.5241   0.0000                                                             
     4  3  2.50        -9.5241   0.0000                                                             
   Description                                                                                      
     l       E           TYP  RCUT    TYP  RCUT                                                     
     0    -20.6915657     23  1.700                                                                 
     0     95.2407820     23  1.800                                                                 
     1     -8.5948577     23  1.900                                                                 
     1     95.2407820     23  1.900                                                                 
     2    -10.8846608     23  1.900                                                                 
     2     54.4233040     23  1.900                                                                 
     3     27.2116520     23  1.900                                                                 
  local pseudopotential read in
  partial core-charges read in
  partial kinetic energy density read in
  kinetic energy density of atom read in
  atomic valenz-charges read in
  non local Contribution for L=           0  read in
    real space projection operators read in
  non local Contribution for L=           0  read in
    real space projection operators read in
  non local Contribution for L=           1  read in
    real space projection operators read in
  non local Contribution for L=           1  read in
    real space projection operators read in
  non local Contribution for L=           2  read in
    real space projection operators read in
  non local Contribution for L=           2  read in
    real space projection operators read in
    PAW grid and wavefunctions read in
 
   number of l-projection  operators is LMAX  =           6
   number of lm-projection operators is LMMAX =          18
 
 Optimization of the real space projectors (new method)

 maximal supplied QI-value         = 25.13
 optimisation between [QCUT,QGAM] = [ 11.56, 23.12] = [ 37.43,149.72] Ry 
 Optimized for a Real-space Cutoff    1.28 Angstroem

   l    n(q)    QCUT    max X(q) W(low)/X(q) W(high)/X(q)  e(spline) 
   0      9    11.561    87.733    0.11E-03    0.32E-04    0.56E-06
   0      9    11.561    82.800    0.11E-03    0.35E-04    0.56E-06
   0      9    11.561     2.509    0.22E-03    0.42E-04    0.79E-06
   1      8    11.561    12.580    0.94E-04    0.26E-03    0.21E-06
   1      8    11.561     1.319    0.33E-04    0.15E-03    0.19E-06
   2      8    11.561     1.993    0.36E-04    0.89E-04    0.26E-06
 Optimization of the real space projectors (new method)

 maximal supplied QI-value         = 18.90
 optimisation between [QCUT,QGAM] = [ 11.53, 23.24] = [ 37.21,151.29] Ry 
 Optimized for a Real-space Cutoff    1.21 Angstroem

   l    n(q)    QCUT    max X(q) W(low)/X(q) W(high)/X(q)  e(spline) 
   0      8    11.527     8.355    0.73E-04    0.70E-04    0.26E-07
   0      8    11.527     1.401    0.17E-03    0.17E-03    0.63E-07
   1      8    11.527     4.747    0.13E-03    0.17E-03    0.11E-06
   1      8    11.527     2.025    0.16E-03    0.18E-03    0.12E-06
   2      7    11.527     3.169    0.51E-04    0.25E-03    0.60E-07
   2      7    11.527     3.441    0.82E-04    0.22E-03    0.14E-06
 Optimization of the real space projectors (new method)

 maximal supplied QI-value         = 19.84
 optimisation between [QCUT,QGAM] = [ 11.51, 23.22] = [ 37.09,150.92] Ry 
 Optimized for a Real-space Cutoff    1.49 Angstroem

   l    n(q)    QCUT    max X(q) W(low)/X(q) W(high)/X(q)  e(spline) 
   0     10    11.508     7.541    0.34E-04    0.13E-04    0.69E-07
   0     10    11.508     1.809    0.49E-04    0.27E-04    0.14E-06
   1     10    11.508     4.107    0.27E-05    0.41E-05    0.14E-06
   1     10    11.508     2.196    0.26E-05    0.25E-05    0.22E-06
   2      9    11.508     4.265    0.18E-03    0.11E-03    0.81E-06
   2      9    11.508     1.925    0.97E-04    0.76E-04    0.47E-06
 Optimization of the real space projectors (new method)

 maximal supplied QI-value         = 19.84
 optimisation between [QCUT,QGAM] = [ 11.51, 23.22] = [ 37.09,150.92] Ry 
 Optimized for a Real-space Cutoff    1.21 Angstroem

   l    n(q)    QCUT    max X(q) W(low)/X(q) W(high)/X(q)  e(spline) 
   0      8    11.508     6.761    0.57E-04    0.57E-04    0.35E-07
   0      8    11.508     1.642    0.14E-03    0.14E-03    0.91E-07
   1      8    11.508     3.519    0.20E-04    0.72E-04    0.47E-07
   1      8    11.508     2.150    0.27E-04    0.11E-03    0.89E-07
   2      7    11.508     2.976    0.19E-03    0.33E-03    0.16E-06
   2      7    11.508     1.494    0.14E-03    0.29E-03    0.14E-06
  PAW_PBE Li_sv_GW 25Mar2010            :
 energy of atom  1       EATOM= -200.9989
 kinetic energy error for atom=    0.0127 (will be added to EATOM!!)
  PAW_PBE P_GW 19Mar2012                :
 energy of atom  2       EATOM= -176.0430
 kinetic energy error for atom=    0.0011 (will be added to EATOM!!)
  PAW_PBE S_GW 19Mar2012                :
 energy of atom  3       EATOM= -276.8230
 kinetic energy error for atom=    0.0024 (will be added to EATOM!!)
  PAW_PBE Cl_GW 19Mar2012               :
 energy of atom  4       EATOM= -409.7259
 kinetic energy error for atom=    0.0030 (will be added to EATOM!!)
 
 
 POSCAR: Li24 P4 S20 Cl4
  positions in direct lattice
  velocities in cartesian coordinates
 exchange correlation table for  LEXCH =        8
   RHO(1)=    0.500       N(1)  =     2000
   RHO(2)=  100.500       N(2)  =     4000

 VTST: version 4.1, (05/19/21)

 CHAIN: initializing optimizer
 
 OPT: Using VASP Conjugate-Gradient optimizer
 CHAIN: Read ICHAIN            0
 
 POSCAR: Li24 P4 S20 Cl4
  positions in direct lattice
  velocities in cartesian coordinates
 


--------------------------------------------------------------------------------------------------------


 ion  position               nearest neighbor table
   1  0.965  0.336  0.336-
   2  0.983  0.674  0.674-
   3  0.027  0.329  0.709-
   4  0.027  0.709  0.329-
   5  0.309  0.281  0.986-
   6  0.171  0.798  0.035-
   7  0.654  0.265  0.029-
   8  0.829  0.784  0.975-
   9  0.309  0.986  0.281-
  10  0.171  0.035  0.798-
  11  0.829  0.975  0.784-
  12  0.654  0.029  0.265-
  13  0.327  0.807  0.480-
  14  0.230  0.299  0.519-
  15  0.700  0.818  0.522-
  16  0.698  0.213  0.468-
  17  0.327  0.480  0.807-
  18  0.230  0.519  0.299-
  19  0.698  0.468  0.213-
  20  0.700  0.522  0.818-
  21  0.467  0.173  0.673-
  22  0.467  0.673  0.173-
  23  0.966  0.143  0.143-
  24  0.529  0.761  0.761-
  25  0.511  0.499  0.499-  44 2.04  41 2.05  42 2.05  43 2.07
  26  0.504  0.986  0.986-  40 2.05  39 2.05  38 2.05  37 2.05
  27  0.001  0.486  0.008-  34 2.05  33 2.05  35 2.06  36 2.06
  28  0.001  0.008  0.486-  31 2.05  32 2.05  29 2.06  30 2.06
  29  0.120  0.879  0.606-  28 2.06
  30  0.126  0.130  0.363-  28 2.06
  31  0.872  0.896  0.361-  28 2.05
  32  0.889  0.138  0.610-  28 2.05
  33  0.889  0.610  0.138-  27 2.05
  34  0.872  0.361  0.896-  27 2.05
  35  0.120  0.606  0.879-  27 2.06
  36  0.126  0.363  0.130-  27 2.06
  37  0.624  0.097  0.850-  26 2.05
  38  0.624  0.850  0.097-  26 2.05
  39  0.428  0.126  0.126-  26 2.05
  40  0.355  0.880  0.880-  26 2.05
  41  0.626  0.630  0.378-  25 2.05
  42  0.626  0.378  0.630-  25 2.05
  43  0.384  0.621  0.621-  25 2.07
  44  0.408  0.369  0.369-  25 2.04
  45  0.764  0.744  0.744-
  46  0.767  0.242  0.242-
  47  0.254  0.753  0.255-
  48  0.254  0.255  0.753-
  49  0.998  0.972  0.972-
  50  0.045  0.496  0.496-
  51  0.511  0.996  0.482-
  52  0.511  0.482  0.996-
 
  LATTYP: Found a simple cubic cell.
 ALAT       =     9.6768378671
  
  Lattice vectors:
  
 A1 = (   9.6768378671,   0.0000000000,   0.0000000000)
 A2 = (   0.0000000000,   9.6768378671,   0.0000000000)
 A3 = (   0.0000000000,   0.0000000000,   9.6768378671)


Analysis of symmetry for initial positions (statically):
=====================================================================
 Subroutine PRICEL returns:
 Original cell was already a primitive cell.
 

 Routine SETGRP: Setting up the symmetry group for a 
 simple cubic supercell.


 Subroutine GETGRP returns: Found  2 space group operations
 (whereof  2 operations were pure point group operations)
 out of a pool of 48 trial point group operations.


The static configuration has the point symmetry C_1h.


Analysis of symmetry for dynamics (positions and initial velocities):
=====================================================================
 Subroutine PRICEL returns:
 Original cell was already a primitive cell.
 

 Routine SETGRP: Setting up the symmetry group for a 
 simple cubic supercell.


 Subroutine GETGRP returns: Found  2 space group operations
 (whereof  2 operations were pure point group operations)
 out of a pool of 48 trial point group operations.


The dynamic configuration has the point symmetry C_1h.


Analysis of structural, dynamic, and magnetic symmetry:
=====================================================================
 Subroutine PRICEL returns:
 Original cell was already a primitive cell.
 

 Routine SETGRP: Setting up the symmetry group for a 
 simple cubic supercell.


 Subroutine GETGRP returns: Found  2 space group operations
 (whereof  2 operations were pure point group operations)
 out of a pool of 48 trial point group operations.


The overall configuration has the point symmetry C_1h.


 Subroutine INISYM returns: Found  2 space group operations
 (whereof  2 operations are pure point group operations),
 and found     1 'primitive' translations


----------------------------------------------------------------------------------------

                                     Primitive cell                                     

  volume of cell :     906.1506

  direct lattice vectors                    reciprocal lattice vectors
     9.676837867  0.000000000  0.000000000     0.103339543  0.000000000  0.000000000
     0.000000000  9.676837867  0.000000000     0.000000000  0.103339543  0.000000000
     0.000000000  0.000000000  9.676837867     0.000000000  0.000000000  0.103339543

  length of vectors
     9.676837867  9.676837867  9.676837867     0.103339543  0.103339543  0.103339543

  position of ions in fractional coordinates (direct lattice)
     0.964994305  0.335508834  0.335508834
     0.982531802  0.673816385  0.673816385
     0.026679003  0.328547692  0.709445170
     0.026679003  0.709445170  0.328547692
     0.308898024  0.280890604  0.986216008
     0.171271502  0.797674793  0.034510733
     0.653984000  0.264837737  0.028765865
     0.828699485  0.783549791  0.974708904
     0.308898024  0.986216008  0.280890604
     0.171271502  0.034510733  0.797674793
     0.828699485  0.974708904  0.783549791
     0.653984000  0.028765865  0.264837737
     0.327469762  0.806897187  0.479627018
     0.229752285  0.298890843  0.519373227
     0.699886265  0.818111749  0.521892474
     0.698168243  0.212965170  0.467605513
     0.327469762  0.479627018  0.806897187
     0.229752285  0.519373227  0.298890843
     0.698168243  0.467605513  0.212965170
     0.699886265  0.521892474  0.818111749
     0.466596738  0.173494722  0.672640829
     0.466596738  0.672640829  0.173494722
     0.966498908  0.142657135  0.142657135
     0.529097010  0.760878375  0.760878375
     0.511282459  0.499322947  0.499322947
     0.504495487  0.985815925  0.985815925
     0.001211585  0.485987431  0.007663595
     0.001211585  0.007663595  0.485987431
     0.120307193  0.878808319  0.605981154
     0.125715886  0.129795695  0.363073989
     0.872335015  0.896023477  0.361040903
     0.889089009  0.137972894  0.610443103
     0.889089009  0.610443103  0.137972894
     0.872335015  0.361040903  0.896023477
     0.120307193  0.605981154  0.878808319
     0.125715886  0.363073989  0.129795695
     0.624003833  0.096779819  0.850058155
     0.624003833  0.850058155  0.096779819
     0.428341729  0.125582534  0.125582534
     0.355228061  0.879593940  0.879593940
     0.625607677  0.630072578  0.377888773
     0.625607677  0.377888773  0.630072578
     0.383710049  0.620543475  0.620543475
     0.407849324  0.369284513  0.369284513
     0.763587838  0.743592704  0.743592704
     0.766593161  0.242080761  0.242080761
     0.253783968  0.753235392  0.255256089
     0.253783968  0.255256089  0.753235392
     0.997739246  0.972334156  0.972334156
     0.045390883  0.495656612  0.495656612
     0.511230809  0.996044043  0.482390213
     0.511230809  0.482390213  0.996044043

  ion indices of the primitive-cell ions
   primitive index   ion index
                 1           1
                 2           2
                 3           3
                 4           4
                 5           5
                 6           6
                 7           7
                 8           8
                 9           9
                10          10
                11          11
                12          12
                13          13
                14          14
                15          15
                16          16
                17          17
                18          18
                19          19
                20          20
                21          21
                22          22
                23          23
                24          24
                25          25
                26          26
                27          27
                28          28
                29          29
                30          30
                31          31
                32          32
                33          33
                34          34
                35          35
                36          36
                37          37
                38          38
                39          39
                40          40
                41          41
                42          42
                43          43
                44          44
                45          45
                46          46
                47          47
                48          48
                49          49
                50          50
                51          51
                52          52

----------------------------------------------------------------------------------------

 
 
 KPOINTS: Automatic mesh                          

Automatic generation of k-mesh.
 Grid dimensions read from file:
 generate k-points for:    2    2    2

 Generating k-lattice:

  Cartesian coordinates                     Fractional coordinates (reciprocal lattice)
     0.051669771  0.000000000  0.000000000     0.500000000  0.000000000  0.000000000
     0.000000000  0.051669771  0.000000000     0.000000000  0.500000000  0.000000000
     0.000000000  0.000000000  0.051669771     0.000000000  0.000000000  0.500000000

  Length of vectors
     0.051669771  0.051669771  0.051669771

  Shift w.r.t. Gamma in fractional coordinates (k-lattice)
     0.500000000  0.500000000  0.500000000

 
 Subroutine IBZKPT returns following result:
 ===========================================
 
 Found      3 irreducible k-points:
 
 Following reciprocal coordinates:
            Coordinates               Weight
  0.250000  0.250000  0.250000      2.000000
 -0.250000  0.250000  0.250000      2.000000
 -0.250000 -0.250000  0.250000      4.000000
 
 Following cartesian coordinates:
            Coordinates               Weight
  0.025835  0.025835  0.025835      2.000000
 -0.025835  0.025835  0.025835      2.000000
 -0.025835 -0.025835  0.025835      4.000000
 


--------------------------------------------------------------------------------------------------------




 Dimension of arrays:
   k-points           NKPTS =      3   k-points in BZ     NKDIM =      3   number of bands    NBANDS=    176
   number of dos      NEDOS =    301   number of ions     NIONS =     52
   non local maximal  LDIM  =      6   non local SUM 2l+1 LMDIM =     18
   total plane-waves  NPLWV = 373248
   max r-space proj   IRMAX =   5747   max aug-charges    IRDMAX=  17582
   dimension x,y,z NGX =    72 NGY =   72 NGZ =   72
   dimension x,y,z NGXF=   144 NGYF=  144 NGZF=  144
   support grid    NGXF=   144 NGYF=  144 NGZF=  144
   ions per type =              24   4  20   4
   NGX,Y,Z   is equivalent  to a cutoff of  12.37, 12.37, 12.37 a.u.
   NGXF,Y,Z  is equivalent  to a cutoff of  24.74, 24.74, 24.74 a.u.

 SYSTEM =  unknown system                          
 POSCAR =  Li24 P4 S20 Cl4                         

 Startparameter for this run:
   NWRITE =      2    write-flag & timer
   PREC   = accu      normal or accurate (medium, high low for compatibility)
   ISTART =      0    job   : 0-new  1-cont  2-samecut
   ICHARG =      2    charge: 1-file 2-atom 10-const
   ISPIN  =      2    spin polarized calculation?
   LNONCOLLINEAR =      F non collinear calculations
   LSORBIT =      F    spin-orbit coupling
   INIWAV =      1    electr: 0-lowe 1-rand  2-diag
   LASPH  =      T    aspherical Exc in radial PAW
 Electronic Relaxation 1
   ENCUT  =  520.0 eV  38.22 Ry    6.18 a.u.  17.99 17.99 17.99*2*pi/ulx,y,z
   ENINI  =  520.0     initial cutoff
   ENAUG  = 1041.7 eV  augmentation charge cutoff
   NELM   =    100;   NELMIN=  2; NELMDL=-10     # of ELM steps 
   EDIFF  = 0.1E-05   stopping-criterion for ELM
   LREAL  =      T    real-space projection
   NLSPLINE    = F    spline interpolate recip. space projectors
   LCOMPAT=      F    compatible to vasp.4.4
   GGA_COMPAT  = T    GGA compatible to vasp.4.4-vasp.4.6
   LMAXPAW     = -100 max onsite density
   LMAXMIX     =    4 max onsite mixed and CHGCAR
   VOSKOWN=      0    Vosko Wilk Nusair interpolation
   ROPT   =   -0.00025  -0.00025  -0.00025  -0.00025
 Ionic relaxation
   EDIFFG = -.1E-02   stopping-criterion for IOM
   NSW    =   1000    number of steps for IOM
   NBLOCK =      1;   KBLOCK =   1000    inner block; outer block 
   IBRION =      2    ionic relax: 0-MD 1-quasi-New 2-CG
   NFREE  =      1    steps in history (QN), initial steepest desc. (CG)
   ISIF   =      2    stress and relaxation
   IWAVPR =     11    prediction:  0-non 1-charg 2-wave 3-comb
   ISYM   =      2    0-nonsym 1-usesym 2-fastsym
   LCORR  =      T    Harris-Foulkes like correction to forces

   POTIM  = 0.2000    time-step for ionic-motion
   TEIN   =    0.0    initial temperature
   TEBEG  =    0.0;   TEEND  =   0.0 temperature during run
   SMASS  =  -3.00    Nose mass-parameter (am)
   estimated Nose-frequenzy (Omega)   =  0.10E-29 period in steps = 0.31E+47 mass=  -0.214E-26a.u.
   SCALEE = 1.0000    scale energy and forces
   NPACO  =    256;   APACO  = 10.0  distance and # of slots for P.C.
   PSTRESS=    0.0 pullay stress

  Mass of Ions in am
   POMASS =   7.01 30.97 32.07 35.45
  Ionic Valenz
   ZVAL   =   3.00  5.00  6.00  7.00
  Atomic Wigner-Seitz radii
   RWIGS  =  -1.00 -1.00 -1.00 -1.00
  virtual crystal weights 
   VCA    =   1.00  1.00  1.00  1.00
   NELECT =     240.0000    total number of electrons
   NUPDOWN=      -1.0000    fix difference up-down

 DOS related values:
   EMIN   =  10.00;   EMAX   =-10.00  energy-range for DOS
   EFERMI =   0.00;   METHOD = LEGACY      
   ISMEAR =     0;   SIGMA  =   0.03  broadening in eV -4-tet -1-fermi 0-gaus

 Electronic relaxation 2 (details)
   IALGO  =     68    algorithm
   LDIAG  =      T    sub-space diagonalisation (order eigenvalues)
   LSUBROT=      F    optimize rotation matrix (better conditioning)
   TURBO    =      0    0=normal 1=particle mesh
   IRESTART =      0    0=no restart 2=restart with 2 vectors
   NREBOOT  =      0    no. of reboots
   NMIN     =      0    reboot dimension
   EREF     =   0.00    reference energy to select bands
   IMIX   =      4    mixing-type and parameters
     AMIX     =   0.40;   BMIX     =  1.00
     AMIX_MAG =   1.60;   BMIX_MAG =  1.00
     AMIN     =   0.10
     WC   =   100.;   INIMIX=   1;  MIXPRE=   1;  MAXMIX= -45

 Intra band minimization:
   WEIMIN = 0.0010     energy-eigenvalue tresh-hold
   EBREAK =  0.14E-08  absolut break condition
   DEPER  =   0.30     relativ break condition  

   TIME   =   0.40     timestep for ELM

  volume/ion in A,a.u.               =      17.43       117.60
  Fermi-wavevector in a.u.,A,eV,Ry     =   1.051345  1.986753 15.038868  1.105326
  Thomas-Fermi vector in A             =   2.186384
 
 Write flags
   LWAVE        =      F    write WAVECAR
   LDOWNSAMPLE  =      F    k-point downsampling of WAVECAR
   LCHARG       =      F    write CHGCAR
   LVTOT        =      F    write LOCPOT, total local potential
   LVHAR        =      F    write LOCPOT, Hartree potential only
   LELF         =      F    write electronic localiz. function (ELF)
   LORBIT       =      0    0 simple, 1 ext, 2 COOP (PROOUT), +10 PAW based schemes


 Dipole corrections
   LMONO  =      F    monopole corrections only (constant potential shift)
   LDIPOL =      F    correct potential (dipole corrections)
   IDIPOL =      0    1-x, 2-y, 3-z, 4-all directions 
   EPSILON=  1.0000000 bulk dielectric constant

 Exchange correlation treatment:
   GGA     =    PE    GGA type
   LEXCH   =     8    internal setting for exchange type
   LIBXC   =     F    Libxc                    
   VOSKOWN =     0    Vosko Wilk Nusair interpolation
   LHFCALC =     F    Hartree Fock is set to
   LHFONE  =     F    Hartree Fock one center treatment
   AEXX    =    0.0000 exact exchange contribution

 Linear response parameters
   LEPSILON=     F    determine dielectric tensor
   LRPA    =     F    only Hartree local field effects (RPA)
   LNABLA  =     F    use nabla operator in PAW spheres
   LVEL    =     F    velocity operator in full k-point grid
   CSHIFT  =0.1000    complex shift for real part using Kramers Kronig
   OMEGAMAX=  -1.0    maximum frequency
   DEG_THRESHOLD= 0.2000000E-02 threshold for treating states as degnerate
   RTIME   =   -0.100 relaxation time in fs
  (WPLASMAI=    0.000 imaginary part of plasma frequency in eV, 0.658/RTIME)
   DFIELD  = 0.0000000 0.0000000 0.0000000 field for delta impulse in time
 
  Optional k-point grid parameters
   LKPOINTS_OPT  =     F    use optional k-point grid
   KPOINTS_OPT_MODE=     1    mode for optional k-point grid
 
 Orbital magnetization related:
   ORBITALMAG=     F  switch on orbital magnetization
   LCHIMAG   =     F  perturbation theory with respect to B field
   DQ        =  0.001000  dq finite difference perturbation B field
   LLRAUG    =     F  two centre corrections for induced B field
   LBONE     =     F  B-component reconstruction in AE one-centre
   LVGVCALC  =     T  calculate vGv susceptibility
   LVGVAPPL  =     F  apply vGv susceptibility instead of pGv for G=0

 Random number generation:
   RANDOM_GENERATOR = DEFAULT
   PCG_SEED         = not used


--------------------------------------------------------------------------------------------------------


 conjugate gradient relaxation of ions
 charge density and potential will be updated during run
 spin polarized calculation
 RMM-DIIS sequential band-by-band and
  variant of blocked Davidson during initial phase
 perform sub-space diagonalisation
    before iterative eigenvector-optimisation
 modified Broyden-mixing scheme, WC =      100.0
 initial mixing is a Kerker type mixing with AMIX =  0.4000 and BMIX =      1.0000
 Hartree-type preconditioning will be used
 using additional bands           56
 real space projection scheme for non local part
 use partial core corrections
 calculate Harris-corrections to forces 
   (improved forces if not selfconsistent)
 use gradient corrections 
 use of overlap-Matrix (Vanderbilt PP)
 Gauss-broadening in eV      SIGMA  =   0.03


--------------------------------------------------------------------------------------------------------


  energy-cutoff  :      520.00
  volume of cell :      906.15
      direct lattice vectors                 reciprocal lattice vectors
     9.676837867  0.000000000  0.000000000     0.103339543  0.000000000  0.000000000
     0.000000000  9.676837867  0.000000000     0.000000000  0.103339543  0.000000000
     0.000000000  0.000000000  9.676837867     0.000000000  0.000000000  0.103339543

  length of vectors
     9.676837867  9.676837867  9.676837867     0.103339543  0.103339543  0.103339543


 
 k-points in units of 2pi/SCALE and weight: Automatic mesh                          
   0.02583489  0.02583489  0.02583489       0.250
  -0.02583489  0.02583489  0.02583489       0.250
  -0.02583489 -0.02583489  0.02583489       0.500
 
 k-points in reciprocal lattice and weights: Automatic mesh                          
   0.25000000  0.25000000  0.25000000       0.250
  -0.25000000  0.25000000  0.25000000       0.250
  -0.25000000 -0.25000000  0.25000000       0.500
 
 position of ions in fractional coordinates (direct lattice) 
   0.96499430  0.33550883  0.33550883
   0.98253180  0.67381638  0.67381638
   0.02667900  0.32854769  0.70944517
   0.02667900  0.70944517  0.32854769
   0.30889802  0.28089060  0.98621601
   0.17127150  0.79767479  0.03451073
   0.65398400  0.26483774  0.02876587
   0.82869948  0.78354979  0.97470890
   0.30889802  0.98621601  0.28089060
   0.17127150  0.03451073  0.79767479
   0.82869948  0.97470890  0.78354979
   0.65398400  0.02876587  0.26483774
   0.32746976  0.80689719  0.47962702
   0.22975228  0.29889084  0.51937323
   0.69988626  0.81811175  0.52189247
   0.69816824  0.21296517  0.46760551
   0.32746976  0.47962702  0.80689719
   0.22975228  0.51937323  0.29889084
   0.69816824  0.46760551  0.21296517
   0.69988626  0.52189247  0.81811175
   0.46659674  0.17349472  0.67264083
   0.46659674  0.67264083  0.17349472
   0.96649891  0.14265713  0.14265713
   0.52909701  0.76087838  0.76087838
   0.51128246  0.49932295  0.49932295
   0.50449549  0.98581592  0.98581592
   0.00121159  0.48598743  0.00766360
   0.00121159  0.00766360  0.48598743
   0.12030719  0.87880832  0.60598115
   0.12571589  0.12979569  0.36307399
   0.87233501  0.89602348  0.36104090
   0.88908901  0.13797289  0.61044310
   0.88908901  0.61044310  0.13797289
   0.87233501  0.36104090  0.89602348
   0.12030719  0.60598115  0.87880832
   0.12571589  0.36307399  0.12979569
   0.62400383  0.09677982  0.85005815
   0.62400383  0.85005815  0.09677982
   0.42834173  0.12558253  0.12558253
   0.35522806  0.87959394  0.87959394
   0.62560768  0.63007258  0.37788877
   0.62560768  0.37788877  0.63007258
   0.38371005  0.62054348  0.62054348
   0.40784932  0.36928451  0.36928451
   0.76358784  0.74359270  0.74359270
   0.76659316  0.24208076  0.24208076
   0.25378397  0.75323539  0.25525609
   0.25378397  0.25525609  0.75323539
   0.99773925  0.97233416  0.97233416
   0.04539088  0.49565661  0.49565661
   0.51123081  0.99604404  0.48239021
   0.51123081  0.48239021  0.99604404
 
 position of ions in cartesian coordinates  (Angst):
   9.33809343  3.24666459  3.24666459
   9.50780095  6.52041191  6.52041191
   0.25816839  3.17930275  6.86518588
   0.25816839  6.86518588  3.17930275
   2.98915609  2.71813283  9.54345241
   1.65736656  7.71896964  0.33395477
   6.32849714  2.56279184  0.27836262
   8.01919055  7.58228429  9.43210003
   2.98915609  9.54345241  2.71813283
   1.65736656  0.33395477  7.71896964
   8.01919055  9.43210003  7.58228429
   6.32849714  0.27836262  2.56279184
   3.16887180  7.80821326  4.64127289
   2.22327561  2.89231823  5.02589051
   6.77268591  7.91673476  5.05026886
   6.75606089  2.06082942  4.52494273
   3.16887180  4.64127289  7.80821326
   2.22327561  5.02589051  2.89231823
   6.75606089  4.52494273  2.06082942
   6.77268591  5.05026886  7.91673476
   4.51518099  1.67888030  6.50903624
   4.51518099  6.50903624  1.67888030
   9.35265323  1.38046996  1.38046996
   5.11998598  7.36289667  7.36289667
   4.94759746  4.83186720  4.83186720
   4.88192103  9.53958087  9.53958087
   0.01172432  4.70282158  0.07415937
   0.01172432  0.07415937  4.70282158
   1.16419320  8.50408562  5.86398138
   1.21653224  1.25601189  3.51340813
   8.44144451  8.67067391  3.49373428
   8.60357019  1.33514132  5.90715894
   8.60357019  5.90715894  1.33514132
   8.44144451  3.49373428  8.67067391
   1.16419320  5.86398138  8.50408562
   1.21653224  3.51340813  1.25601189
   6.03838392  0.93652262  8.22587494
   6.03838392  8.22587494  0.93652262
   4.14499346  1.21524182  1.21524182
   3.43748435  8.51168795  8.51168795
   6.05390406  6.09711018  3.65676839
   6.05390406  3.65676839  6.09711018
   3.71309993  6.00489860  6.00489860
   3.94669178  3.57350636  3.57350636
   7.38911570  7.19562604  7.19562604
   7.41819772  2.34257628  2.34257628
   2.45582632  7.28893677  2.47007179
   2.45582632  2.47007179  7.28893677
   9.65496092  9.40911998  9.40911998
   0.43924022  4.79638867  4.79638867
   4.94709766  9.63855671  4.66801188
   4.94709766  4.66801188  9.63855671
 


--------------------------------------------------------------------------------------------------------


 k-point   1 :   0.2500 0.2500 0.2500  plane waves:   24420
 k-point   2 :  -0.2500 0.2500 0.2500  plane waves:   24420
 k-point   3 :  -0.2500-0.2500 0.2500  plane waves:   24420

 maximum and minimum number of plane-waves per node :       776      745

 maximum number of plane-waves:     24420
 maximum index in each direction: 
   IXMAX=   18   IYMAX=   18   IZMAX=   17
   IXMIN=  -18   IYMIN=  -18   IZMIN=  -18


 real space projection operators:
  total allocation   :      28192.56 KBytes
  max/ min on nodes  :       1223.25        704.02


 parallel 3D FFT for wavefunctions:
    minimum data exchange during FFTs selected (reduces bandwidth)
 parallel 3D FFT for charge:
    minimum data exchange during FFTs selected (reduces bandwidth)


 total amount of memory used by VASP MPI-rank0    47031. kBytes
=======================================================================

   base      :      30000. kBytes
   nonlr-proj:       6532. kBytes
   fftplans  :       1747. kBytes
   grid      :       5278. kBytes
   one-center:         62. kBytes
   wavefun   :       3412. kBytes
 
     INWAV:  cpu time      0.0001: real time      0.0001
 Broyden mixing: mesh for mixing (old mesh)
   NGX = 35   NGY = 35   NGZ = 35
  (NGX  =144   NGY  =144   NGZ  =144)
  gives a total of  42875 points

 initial charge density was supplied:
 charge density of overlapping atoms calculated
 number of electron     240.0000000 magnetization      52.0000000
 keeping initial charge density in first step


--------------------------------------------------------------------------------------------------------


 Maximum index for non-local projection operator          552
 Maximum index for augmentation-charges          814 (set IRDMAX)


--------------------------------------------------------------------------------------------------------


 First call to EWALD:  gamma=   0.183
 Maximum number of real-space cells 3x 3x 3
 Maximum number of reciprocal cells 3x 3x 3

    FEWALD:  cpu time      0.0031: real time      0.0035


--------------------------------------- Ionic step        1  -------------------------------------------




--------------------------------------- Iteration      1(   1)  ---------------------------------------


    POTLOK:  cpu time      0.0577: real time      0.0706
    SETDIJ:  cpu time      0.4116: real time      0.4201
     EDDAV:  cpu time      1.6587: real time      1.8738
       DOS:  cpu time      0.0025: real time      0.0037
    --------------------------------------------
      LOOP:  cpu time      2.1306: real time      2.3682

 eigenvalue-minimisations  :  2328
 total energy-change (2. order) : 0.1593344E+04  (-0.1131139E+05)
 number of electron     240.0000000 magnetization      52.0000000
 augmentation part      240.0000000 magnetization      52.0000000

 Free energy of the ion-electron system (eV)
  ---------------------------------------------------
  alpha Z        PSCENC =       299.57216437
  Ewald energy   TEWEN  =     -8798.55707328
  -Hartree energ DENC   =     -2120.15813993
  -exchange      EXHF   =         0.00000000
  -V(xc)+E(xc)   XCENC  =       533.97405740
  PAW double counting   =      8141.38806575    -8271.61346273
  entropy T*S    EENTRO =        -0.00843918
  eigenvalues    EBANDS =      -894.39324951
  atomic energy  EATOM  =     12703.13999606
  Solvation  Ediel_sol  =         0.00000000
  ---------------------------------------------------
  free energy    TOTEN  =      1593.34391894 eV

  energy without entropy =     1593.35235812  energy(sigma->0) =     1593.34813853


--------------------------------------------------------------------------------------------------------




--------------------------------------- Iteration      1(   2)  ---------------------------------------


     EDDAV:  cpu time      1.9288: real time      1.9540
       DOS:  cpu time      0.0005: real time      0.0005
    --------------------------------------------
      LOOP:  cpu time      1.9293: real time      1.9545

 eigenvalue-minimisations  :  2856
 total energy-change (2. order) :-0.1646819E+04  (-0.1546116E+04)
 number of electron     240.0000000 magnetization      52.0000000
 augmentation part      240.0000000 magnetization      52.0000000

 Free energy of the ion-electron system (eV)
  ---------------------------------------------------
  alpha Z        PSCENC =       299.57216437
  Ewald energy   TEWEN  =     -8798.55707328
  -Hartree energ DENC   =     -2120.15813993
  -exchange      EXHF   =         0.00000000
  -V(xc)+E(xc)   XCENC  =       533.97405740
  PAW double counting   =      8141.38806575    -8271.61346273
  entropy T*S    EENTRO =        -0.00000000
  eigenvalues    EBANDS =     -2541.22043868
  atomic energy  EATOM  =     12703.13999606
  Solvation  Ediel_sol  =         0.00000000
  ---------------------------------------------------
  free energy    TOTEN  =       -53.47483104 eV

  energy without entropy =      -53.47483104  energy(sigma->0) =      -53.47483104


--------------------------------------------------------------------------------------------------------




--------------------------------------- Iteration      1(   3)  ---------------------------------------


     EDDAV:  cpu time      1.9443: real time      1.9679
       DOS:  cpu time      0.0004: real time      0.0005
    --------------------------------------------
      LOOP:  cpu time      1.9447: real time      1.9683

 eigenvalue-minimisations  :  2880
 total energy-change (2. order) :-0.1747768E+03  (-0.1726485E+03)
 number of electron     240.0000000 magnetization      52.0000000
 augmentation part      240.0000000 magnetization      52.0000000

 Free energy of the ion-electron system (eV)
  ---------------------------------------------------
  alpha Z        PSCENC =       299.57216437
  Ewald energy   TEWEN  =     -8798.55707328
  -Hartree energ DENC   =     -2120.15813993
  -exchange      EXHF   =         0.00000000
  -V(xc)+E(xc)   XCENC  =       533.97405740
  PAW double counting   =      8141.38806575    -8271.61346273
  entropy T*S    EENTRO =        -0.00000000
  eigenvalues    EBANDS =     -2715.99724846
  atomic energy  EATOM  =     12703.13999606
  Solvation  Ediel_sol  =         0.00000000
  ---------------------------------------------------
  free energy    TOTEN  =      -228.25164082 eV

  energy without entropy =     -228.25164082  energy(sigma->0) =     -228.25164082


--------------------------------------------------------------------------------------------------------




--------------------------------------- Iteration      1(   4)  ---------------------------------------


     EDDAV:  cpu time      2.3090: real time      2.3416
       DOS:  cpu time      0.0004: real time      0.0004
    --------------------------------------------
      LOOP:  cpu time      2.3094: real time      2.3420

 eigenvalue-minimisations  :  3544
 total energy-change (2. order) :-0.1331048E+02  (-0.1328726E+02)
 number of electron     240.0000000 magnetization      52.0000000
 augmentation part      240.0000000 magnetization      52.0000000

 Free energy of the ion-electron system (eV)
  ---------------------------------------------------
  alpha Z        PSCENC =       299.57216437
  Ewald energy   TEWEN  =     -8798.55707328
  -Hartree energ DENC   =     -2120.15813993
  -exchange      EXHF   =         0.00000000
  -V(xc)+E(xc)   XCENC  =       533.97405740
  PAW double counting   =      8141.38806575    -8271.61346273
  entropy T*S    EENTRO =        -0.00000000
  eigenvalues    EBANDS =     -2729.30772891
  atomic energy  EATOM  =     12703.13999606
  Solvation  Ediel_sol  =         0.00000000
  ---------------------------------------------------
  free energy    TOTEN  =      -241.56212127 eV

  energy without entropy =     -241.56212127  energy(sigma->0) =     -241.56212127


--------------------------------------------------------------------------------------------------------




--------------------------------------- Iteration      1(   5)  ---------------------------------------


     EDDAV:  cpu time      2.2277: real time      2.2470
       DOS:  cpu time      0.0005: real time      0.0005
    --------------------------------------------
      LOOP:  cpu time      2.2282: real time      2.2475

 eigenvalue-minimisations  :  3400
 total energy-change (2. order) :-0.2355856E+00  (-0.2354901E+00)
 number of electron     240.0000000 magnetization      52.0000000
 augmentation part      240.0000000 magnetization      52.0000000

 Free energy of the ion-electron system (eV)
  ---------------------------------------------------
  alpha Z        PSCENC =       299.57216437
  Ewald energy   TEWEN  =     -8798.55707328
  -Hartree energ DENC   =     -2120.15813993
  -exchange      EXHF   =         0.00000000
  -V(xc)+E(xc)   XCENC  =       533.97405740
  PAW double counting   =      8141.38806575    -8271.61346273
  entropy T*S    EENTRO =        -0.00000000
  eigenvalues    EBANDS =     -2729.54331448
  atomic energy  EATOM  =     12703.13999606
  Solvation  Ediel_sol  =         0.00000000
  ---------------------------------------------------
  free energy    TOTEN  =      -241.79770685 eV

  energy without entropy =     -241.79770685  energy(sigma->0) =     -241.79770685


--------------------------------------------------------------------------------------------------------




--------------------------------------- Iteration      1(   6)  ---------------------------------------


     EDDAV:  cpu time      2.2692: real time      2.3272
       DOS:  cpu time      0.0004: real time      0.0004
    --------------------------------------------
      LOOP:  cpu time      2.2696: real time      2.3276

 eigenvalue-minimisations  :  3472
 total energy-change (2. order) :-0.1008993E-01  (-0.1008881E-01)
 number of electron     240.0000000 magnetization      52.0000000
 augmentation part      240.0000000 magnetization      52.0000000

 Free energy of the ion-electron system (eV)
  ---------------------------------------------------
  alpha Z        PSCENC =       299.57216437
  Ewald energy   TEWEN  =     -8798.55707328
  -Hartree energ DENC   =     -2120.15813993
  -exchange      EXHF   =         0.00000000
  -V(xc)+E(xc)   XCENC  =       533.97405740
  PAW double counting   =      8141.38806575    -8271.61346273
  entropy T*S    EENTRO =        -0.00000000
  eigenvalues    EBANDS =     -2729.55340442
  atomic energy  EATOM  =     12703.13999606
  Solvation  Ediel_sol  =         0.00000000
  ---------------------------------------------------
  free energy    TOTEN  =      -241.80779678 eV

  energy without entropy =     -241.80779678  energy(sigma->0) =     -241.80779678


--------------------------------------------------------------------------------------------------------




--------------------------------------- Iteration      1(   7)  ---------------------------------------


     EDDAV:  cpu time      2.2332: real time      2.2518
       DOS:  cpu time      0.0004: real time      0.0004
    --------------------------------------------
      LOOP:  cpu time      2.2335: real time      2.2521

 eigenvalue-minimisations  :  3416
 total energy-change (2. order) :-0.3604405E-03  (-0.3604164E-03)
 number of electron     240.0000000 magnetization      52.0000000
 augmentation part      240.0000000 magnetization      52.0000000

 Free energy of the ion-electron system (eV)
  ---------------------------------------------------
  alpha Z        PSCENC =       299.57216437
  Ewald energy   TEWEN  =     -8798.55707328
  -Hartree energ DENC   =     -2120.15813993
  -exchange      EXHF   =         0.00000000
  -V(xc)+E(xc)   XCENC  =       533.97405740
  PAW double counting   =      8141.38806575    -8271.61346273
  entropy T*S    EENTRO =        -0.00000000
  eigenvalues    EBANDS =     -2729.55376486
  atomic energy  EATOM  =     12703.13999606
  Solvation  Ediel_sol  =         0.00000000
  ---------------------------------------------------
  free energy    TOTEN  =      -241.80815722 eV

  energy without entropy =     -241.80815722  energy(sigma->0) =     -241.80815722


--------------------------------------------------------------------------------------------------------




--------------------------------------- Iteration      1(   8)  ---------------------------------------


     EDDAV:  cpu time      2.2398: real time      2.2877
       DOS:  cpu time      0.0003: real time      0.0003
    --------------------------------------------
      LOOP:  cpu time      2.2402: real time      2.2881

 eigenvalue-minimisations  :  3408
 total energy-change (2. order) :-0.2117998E-04  (-0.2117932E-04)
 number of electron     240.0000000 magnetization      52.0000000
 augmentation part      240.0000000 magnetization      52.0000000

 Free energy of the ion-electron system (eV)
  ---------------------------------------------------
  alpha Z        PSCENC =       299.57216437
  Ewald energy   TEWEN  =     -8798.55707328
  -Hartree energ DENC   =     -2120.15813993
  -exchange      EXHF   =         0.00000000
  -V(xc)+E(xc)   XCENC  =       533.97405740
  PAW double counting   =      8141.38806575    -8271.61346273
  entropy T*S    EENTRO =        -0.00000000
  eigenvalues    EBANDS =     -2729.55378604
  atomic energy  EATOM  =     12703.13999606
  Solvation  Ediel_sol  =         0.00000000
  ---------------------------------------------------
  free energy    TOTEN  =      -241.80817840 eV

  energy without entropy =     -241.80817840  energy(sigma->0) =     -241.80817840


--------------------------------------------------------------------------------------------------------




--------------------------------------- Iteration      1(   9)  ---------------------------------------


     EDDAV:  cpu time      2.1950: real time      2.2140
       DOS:  cpu time      0.0004: real time      0.0004
    --------------------------------------------
      LOOP:  cpu time      2.1955: real time      2.2145

 eigenvalue-minimisations  :  3336
 total energy-change (2. order) :-0.1363984E-05  (-0.1363924E-05)
 number of electron     240.0000000 magnetization      52.0000000
 augmentation part      240.0000000 magnetization      52.0000000

 Free energy of the ion-electron system (eV)
  ---------------------------------------------------
  alpha Z        PSCENC =       299.57216437
  Ewald energy   TEWEN  =     -8798.55707328
  -Hartree energ DENC   =     -2120.15813993
  -exchange      EXHF   =         0.00000000
  -V(xc)+E(xc)   XCENC  =       533.97405740
  PAW double counting   =      8141.38806575    -8271.61346273
  entropy T*S    EENTRO =        -0.00000000
  eigenvalues    EBANDS =     -2729.55378740
  atomic energy  EATOM  =     12703.13999606
  Solvation  Ediel_sol  =         0.00000000
  ---------------------------------------------------
  free energy    TOTEN  =      -241.80817976 eV

  energy without entropy =     -241.80817976  energy(sigma->0) =     -241.80817976


--------------------------------------------------------------------------------------------------------




--------------------------------------- Iteration      1(  10)  ---------------------------------------


     EDDAV:  cpu time      1.4544: real time      1.4762
       DOS:  cpu time      0.0004: real time      0.0004
    CHARGE:  cpu time      0.1641: real time      0.2758
    MIXING:  cpu time      0.0020: real time      0.0024
    --------------------------------------------
      LOOP:  cpu time      1.6209: real time      1.7548

 eigenvalue-minimisations  :  1952
 total energy-change (2. order) :-0.5974471E-07  (-0.5965221E-07)
 number of electron     239.9999976 magnetization      27.3259165
 augmentation part        1.4860793 magnetization      27.7676115

 Broyden mixing:
  rms(total) = 0.63923E+01    rms(broyden)= 0.63917E+01
  rms(prec ) = 0.66297E+01
  weight for this iteration     100.00

 Free energy of the ion-electron system (eV)
  ---------------------------------------------------
  alpha Z        PSCENC =       299.57216437
  Ewald energy   TEWEN  =     -8798.55707328
  -Hartree energ DENC   =     -2120.15813993
  -exchange      EXHF   =         0.00000000
  -V(xc)+E(xc)   XCENC  =       533.97405740
  PAW double counting   =      8141.38806575    -8271.61346273
  entropy T*S    EENTRO =        -0.00000000
  eigenvalues    EBANDS =     -2729.55378746
  atomic energy  EATOM  =     12703.13999606
  Solvation  Ediel_sol  =         0.00000000
  ---------------------------------------------------
  free energy    TOTEN  =      -241.80817982 eV

  energy without entropy =     -241.80817982  energy(sigma->0) =     -241.80817982


--------------------------------------------------------------------------------------------------------




--------------------------------------- Iteration      1(  11)  ---------------------------------------


    POTLOK:  cpu time      0.0583: real time      0.0604
    SETDIJ:  cpu time      0.4195: real time      0.4235
    EDDIAG:  cpu time      0.2704: real time      0.2719
  RMM-DIIS:  cpu time      0.8782: real time      0.8866
    ORTHCH:  cpu time      0.0519: real time      0.0533
       DOS:  cpu time      0.0005: real time      0.0005
    CHARGE:  cpu time      0.1952: real time      0.3773
    MIXING:  cpu time      0.0010: real time      0.0019
    --------------------------------------------
      LOOP:  cpu time      1.8751: real time      2.0754

 eigenvalue-minimisations  :  2112
 total energy-change (2. order) : 0.6198234E+01  (-0.4757484E+01)
 number of electron     239.9999976 magnetization      16.4306194
 augmentation part        1.6991465 magnetization      16.6170539

 Broyden mixing:
  rms(total) = 0.32849E+01    rms(broyden)= 0.32847E+01
  rms(prec ) = 0.34006E+01
  weight for this iteration     100.00

 eigenvalues of (default mixing * dielectric matrix)
  average eigenvalue GAMMA=   0.7244
  0.7244

 Free energy of the ion-electron system (eV)
  ---------------------------------------------------
  alpha Z        PSCENC =       299.57216437
  Ewald energy   TEWEN  =     -8798.55707328
  -Hartree energ DENC   =     -2169.14240015
  -exchange      EXHF   =         0.00000000
  -V(xc)+E(xc)   XCENC  =       542.43589347
  PAW double counting   =      8925.45147197    -9061.72506383
  entropy T*S    EENTRO =        -0.00000000
  eigenvalues    EBANDS =     -2676.78493467
  atomic energy  EATOM  =     12703.13999606
  Solvation  Ediel_sol  =         0.00000000
  ---------------------------------------------------
  free energy    TOTEN  =      -235.60994606 eV

  energy without entropy =     -235.60994606  energy(sigma->0) =     -235.60994606


--------------------------------------------------------------------------------------------------------




--------------------------------------- Iteration      1(  12)  ---------------------------------------


    POTLOK:  cpu time      0.0533: real time      0.0551
    SETDIJ:  cpu time      0.4269: real time      0.4291
    EDDIAG:  cpu time      0.2695: real time      0.2718
  RMM-DIIS:  cpu time      0.9200: real time      0.9283
    ORTHCH:  cpu time      0.0502: real time      0.0512
       DOS:  cpu time      0.0004: real time      0.0004
    CHARGE:  cpu time      0.1049: real time      0.1541
    MIXING:  cpu time      0.0016: real time      0.0017
    --------------------------------------------
      LOOP:  cpu time      1.8268: real time      1.8916

 eigenvalue-minimisations  :  2212
 total energy-change (2. order) :-0.2036526E+02  (-0.2210047E+01)
 number of electron     239.9999976 magnetization       0.7371835
 augmentation part        1.8044991 magnetization       1.0793176

 Broyden mixing:
  rms(total) = 0.20289E+01    rms(broyden)= 0.20289E+01
  rms(prec ) = 0.20888E+01
  weight for this iteration     100.00

 eigenvalues of (default mixing * dielectric matrix)
  average eigenvalue GAMMA=   1.1350
  1.6005  0.6696

 Free energy of the ion-electron system (eV)
  ---------------------------------------------------
  alpha Z        PSCENC =       299.57216437
  Ewald energy   TEWEN  =     -8798.55707328
  -Hartree energ DENC   =     -2193.78397808
  -exchange      EXHF   =         0.00000000
  -V(xc)+E(xc)   XCENC  =       536.06586265
  PAW double counting   =      9276.19645390    -9416.06596077
  entropy T*S    EENTRO =        -0.00000000
  eigenvalues    EBANDS =     -2662.54267346
  atomic energy  EATOM  =     12703.13999606
  Solvation  Ediel_sol  =         0.00000000
  ---------------------------------------------------
  free energy    TOTEN  =      -255.97520860 eV

  energy without entropy =     -255.97520860  energy(sigma->0) =     -255.97520860


--------------------------------------------------------------------------------------------------------




--------------------------------------- Iteration      1(  13)  ---------------------------------------


    POTLOK:  cpu time      0.0536: real time      0.0545
    SETDIJ:  cpu time      0.4087: real time      0.4104
    EDDIAG:  cpu time      0.2691: real time      0.2709
  RMM-DIIS:  cpu time      0.9010: real time      0.9090
    ORTHCH:  cpu time      0.0499: real time      0.0502
       DOS:  cpu time      0.0004: real time      0.0004
    CHARGE:  cpu time      0.1155: real time      0.1471
    MIXING:  cpu time      0.0012: real time      0.0116
    --------------------------------------------
      LOOP:  cpu time      1.7996: real time      1.8542

 eigenvalue-minimisations  :  2171
 total energy-change (2. order) :-0.2481321E+01  (-0.8770699E+00)
 number of electron     239.9999976 magnetization      -1.9272616
 augmentation part        1.9061479 magnetization      -1.8184349

 Broyden mixing:
  rms(total) = 0.69190E+00    rms(broyden)= 0.69190E+00
  rms(prec ) = 0.72348E+00
  weight for this iteration     100.00

 eigenvalues of (default mixing * dielectric matrix)
  average eigenvalue GAMMA=   1.3090
  2.5273  0.7469  0.6529

 Free energy of the ion-electron system (eV)
  ---------------------------------------------------
  alpha Z        PSCENC =       299.57216437
  Ewald energy   TEWEN  =     -8798.55707328
  -Hartree energ DENC   =     -2221.14173848
  -exchange      EXHF   =         0.00000000
  -V(xc)+E(xc)   XCENC  =       537.52804330
  PAW double counting   =      9767.28932551    -9911.07371702
  entropy T*S    EENTRO =        -0.00000000
  eigenvalues    EBANDS =     -2635.21353047
  atomic energy  EATOM  =     12703.13999606
  Solvation  Ediel_sol  =         0.00000000
  ---------------------------------------------------
  free energy    TOTEN  =      -258.45652999 eV

  energy without entropy =     -258.45652999  energy(sigma->0) =     -258.45652999


--------------------------------------------------------------------------------------------------------




--------------------------------------- Iteration      1(  14)  ---------------------------------------


    POTLOK:  cpu time      0.0533: real time      0.0542
    SETDIJ:  cpu time      0.4096: real time      0.4112
    EDDIAG:  cpu time      0.2684: real time      0.2699
  RMM-DIIS:  cpu time      1.1424: real time      1.1522
    ORTHCH:  cpu time      0.0509: real time      0.0514
       DOS:  cpu time      0.0005: real time      0.0005
    CHARGE:  cpu time      0.1151: real time      0.1338
    MIXING:  cpu time      0.0014: real time      0.0014
    --------------------------------------------
      LOOP:  cpu time      2.0415: real time      2.0746

 eigenvalue-minimisations  :  2758
 total energy-change (2. order) :-0.1972192E+00  (-0.1977379E+00)
 number of electron     239.9999976 magnetization      -0.9029396
 augmentation part        1.8777211 magnetization      -0.8760023

 Broyden mixing:
  rms(total) = 0.32451E+00    rms(broyden)= 0.32451E+00
  rms(prec ) = 0.35895E+00
  weight for this iteration     100.00

 eigenvalues of (default mixing * dielectric matrix)
  average eigenvalue GAMMA=   1.2735
  2.6387  1.1710  0.6904  0.5939

 Free energy of the ion-electron system (eV)
  ---------------------------------------------------
  alpha Z        PSCENC =       299.57216437
  Ewald energy   TEWEN  =     -8798.55707328
  -Hartree energ DENC   =     -2223.01640900
  -exchange      EXHF   =         0.00000000
  -V(xc)+E(xc)   XCENC  =       538.03032228
  PAW double counting   =      9850.60536546    -9995.25751012
  entropy T*S    EENTRO =        -0.00000000
  eigenvalues    EBANDS =     -2633.17060491
  atomic energy  EATOM  =     12703.13999606
  Solvation  Ediel_sol  =         0.00000000
  ---------------------------------------------------
  free energy    TOTEN  =      -258.65374914 eV

  energy without entropy =     -258.65374914  energy(sigma->0) =     -258.65374914


--------------------------------------------------------------------------------------------------------




--------------------------------------- Iteration      1(  15)  ---------------------------------------


    POTLOK:  cpu time      0.0532: real time      0.0541
    SETDIJ:  cpu time      0.4100: real time      0.4115
    EDDIAG:  cpu time      0.2683: real time      0.2706
  RMM-DIIS:  cpu time      0.9544: real time      0.9629
    ORTHCH:  cpu time      0.0500: real time      0.0506
       DOS:  cpu time      0.0005: real time      0.0005
    CHARGE:  cpu time      0.0996: real time      0.1321
    MIXING:  cpu time      0.0012: real time      0.0013
    --------------------------------------------
      LOOP:  cpu time      1.8373: real time      1.8836

 eigenvalue-minimisations  :  2307
 total energy-change (2. order) : 0.2351625E-01  (-0.3499265E-01)
 number of electron     239.9999976 magnetization      -0.2448554
 augmentation part        1.8275733 magnetization      -0.2185082

 Broyden mixing:
  rms(total) = 0.66355E-01    rms(broyden)= 0.66352E-01
  rms(prec ) = 0.78604E-01
  weight for this iteration     100.00

 eigenvalues of (default mixing * dielectric matrix)
  average eigenvalue GAMMA=   1.2732
  2.5496  1.5822  0.9443  0.6856  0.6043

 Free energy of the ion-electron system (eV)
  ---------------------------------------------------
  alpha Z        PSCENC =       299.57216437
  Ewald energy   TEWEN  =     -8798.55707328
  -Hartree energ DENC   =     -2218.35416308
  -exchange      EXHF   =         0.00000000
  -V(xc)+E(xc)   XCENC  =       537.65559396
  PAW double counting   =      9820.51004119    -9964.97211405
  entropy T*S    EENTRO =        -0.00000000
  eigenvalues    EBANDS =     -2637.62467806
  atomic energy  EATOM  =     12703.13999606
  Solvation  Ediel_sol  =         0.00000000
  ---------------------------------------------------
  free energy    TOTEN  =      -258.63023289 eV

  energy without entropy =     -258.63023289  energy(sigma->0) =     -258.63023289


--------------------------------------------------------------------------------------------------------




--------------------------------------- Iteration      1(  16)  ---------------------------------------


    POTLOK:  cpu time      0.0515: real time      0.0541
    SETDIJ:  cpu time      0.4091: real time      0.4109
    EDDIAG:  cpu time      0.2699: real time      0.2715
  RMM-DIIS:  cpu time      0.9734: real time      0.9823
    ORTHCH:  cpu time      0.0496: real time      0.0499
       DOS:  cpu time      0.0004: real time      0.0004
    CHARGE:  cpu time      0.1004: real time      0.1282
    MIXING:  cpu time      0.0013: real time      0.0014
    --------------------------------------------
      LOOP:  cpu time      1.8557: real time      1.8988

 eigenvalue-minimisations  :  2304
 total energy-change (2. order) :-0.2099096E-01  (-0.1059142E-01)
 number of electron     239.9999976 magnetization      -0.1147803
 augmentation part        1.8047829 magnetization      -0.1010029

 Broyden mixing:
  rms(total) = 0.30587E-01    rms(broyden)= 0.30585E-01
  rms(prec ) = 0.37151E-01
  weight for this iteration     100.00

 eigenvalues of (default mixing * dielectric matrix)
  average eigenvalue GAMMA=   1.2494
  2.4665  1.9242  1.0371  0.6219  0.6996  0.7470

 Free energy of the ion-electron system (eV)
  ---------------------------------------------------
  alpha Z        PSCENC =       299.57216437
  Ewald energy   TEWEN  =     -8798.55707328
  -Hartree energ DENC   =     -2217.81586051
  -exchange      EXHF   =         0.00000000
  -V(xc)+E(xc)   XCENC  =       537.56408142
  PAW double counting   =      9808.06496948    -9952.28610635
  entropy T*S    EENTRO =        -0.00000000
  eigenvalues    EBANDS =     -2638.33339506
  atomic energy  EATOM  =     12703.13999606
  Solvation  Ediel_sol  =         0.00000000
  ---------------------------------------------------
  free energy    TOTEN  =      -258.65122386 eV

  energy without entropy =     -258.65122386  energy(sigma->0) =     -258.65122386


[...]
 -0.003   0.002   0.000   0.001   0.004   0.001   0.000   0.000   0.000  -0.000   0.000  -0.000   0.000  -0.000
 -0.002   0.001   0.000   0.001   0.001   0.005   0.000   0.000   0.000  -0.000  -0.000   0.000  -0.000  -0.000
  0.020  -0.021  -0.000   0.003  -0.002  -0.007   0.000  -0.000  -0.000   0.000   0.000   0.000   0.000   0.000
  0.025  -0.026  -0.000   0.003   0.003  -0.002   0.000   0.000  -0.000   0.000   0.000   0.000   0.000  -0.000
 -0.006   0.006   0.000   0.004  -0.001   0.003   0.000  -0.000   0.000   0.000   0.000   0.000  -0.000  -0.000
  0.020  -0.021  -0.000  -0.002   0.003  -0.007  -0.000   0.000  -0.000   0.000   0.000  -0.000   0.000   0.000
  0.010  -0.010  -0.000  -0.002  -0.005  -0.005  -0.000  -0.000  -0.000   0.000  -0.000  -0.000   0.000   0.000
 total augmentation occupancy for first ion, spin component:           2
 -0.000   0.000  -0.000   0.000   0.000  -0.000  -0.000  -0.000   0.000   0.000  -0.000  -0.000   0.000   0.000
  0.000  -0.000   0.000  -0.000  -0.000   0.000   0.000   0.000  -0.000  -0.000   0.000   0.000  -0.000  -0.000
 -0.000   0.000   0.000   0.000   0.000  -0.000   0.000   0.000  -0.000   0.000  -0.000  -0.000   0.000   0.000
  0.000  -0.000   0.000   0.000  -0.000  -0.000   0.000   0.000  -0.000  -0.000   0.000  -0.000   0.000   0.000
  0.000  -0.000   0.000  -0.000   0.000  -0.000   0.000   0.000  -0.000   0.000   0.000  -0.000  -0.000   0.000
 -0.000   0.000  -0.000  -0.000  -0.000   0.000   0.000   0.000  -0.000   0.000  -0.000   0.000   0.000  -0.000
 -0.000   0.000   0.000   0.000   0.000   0.000   0.000   0.000  -0.000  -0.000  -0.000   0.000   0.000  -0.000
 -0.000   0.000   0.000   0.000   0.000   0.000   0.000   0.000  -0.000   0.000  -0.000   0.000  -0.000  -0.000
  0.000  -0.000  -0.000  -0.000  -0.000  -0.000  -0.000  -0.000  -0.000   0.000   0.000  -0.000   0.000   0.000
  0.000  -0.000   0.000  -0.000   0.000   0.000  -0.000   0.000   0.000  -0.000   0.000  -0.000  -0.000   0.000
 -0.000   0.000  -0.000   0.000   0.000  -0.000  -0.000  -0.000   0.000   0.000  -0.000  -0.000   0.000   0.000
 -0.000   0.000  -0.000  -0.000  -0.000   0.000   0.000   0.000  -0.000  -0.000  -0.000  -0.000  -0.000  -0.000
  0.000  -0.000   0.000   0.000  -0.000   0.000   0.000  -0.000   0.000  -0.000   0.000  -0.000  -0.000   0.000
  0.000  -0.000   0.000   0.000   0.000  -0.000  -0.000  -0.000   0.000   0.000   0.000  -0.000   0.000   0.000


------------------------ aborting loop because EDIFF is reached ----------------------------------------


    CHARGE:  cpu time      0.0973: real time      0.1018
    FORLOC:  cpu time      0.0038: real time      0.0039
    FORNL :  cpu time      0.3082: real time      0.3103
    STRESS:  cpu time      0.9205: real time      0.9265
    FORCOR:  cpu time      0.0502: real time      0.0506
    FORHAR:  cpu time      0.0084: real time      0.0085
    MIXING:  cpu time      0.0007: real time      0.0007
    OFIELD:  cpu time      0.0000: real time      0.0000

 ---------------------------------------------------------------------------------------------

         DFTD3 V3.0 Rev 1        
 Edisp (eV)  -13.50143

 E6    (eV) :    -8.3202
 E8    (eV) :    -5.1812
 % E8        : 38.38
    FORVDW:  cpu time      0.2894: real time      0.2920

  FORCE on cell =-STRESS in cart. coord.  units (eV):
  Direction    XX          YY          ZZ          XY          YZ          ZX
  --------------------------------------------------------------------------------------
  Alpha Z   299.57216   299.57216   299.57216
  Ewald   -3017.46483 -2890.58407 -2890.58407    -5.22989    -6.37988    -5.22989
  Hartree   706.35706   757.07252   757.07252     0.83722   -19.41487     0.83722
  E(xc)    -947.81466  -947.49667  -947.49667    -0.02282     0.08218    -0.02282
  Local   -1406.03428 -1567.41491 -1567.41491     5.27980    27.31578     5.27980
  n-local  1482.19717  1480.72635  1480.83841    -0.85663     1.15373     0.10595
  augment  -357.46608  -356.47865  -356.47865     0.18921     0.11801     0.19300
  Kinetic  3253.28585  3238.60396  3238.76479    -3.36036    -3.22688    -2.06077
  Fock        0.00000     0.00000     0.00000     0.00000     0.00000     0.00000
  vdW       -14.30068   -14.30869   -14.30869    -0.00536    -0.02140    -0.00536
  -------------------------------------------------------------------------------------
  Total      -1.66828    -0.17155    -0.17155    -2.03574    -0.37355    -2.03574
  in kB      -2.94971    -0.30332    -0.30332    -3.59942    -0.66048    -3.59942
  external pressure =       -1.19 kB  Pullay stress =        0.00 kB


 VOLUME and BASIS-vectors are now :
 -----------------------------------------------------------------------------
  energy-cutoff  :      520.00
  volume of cell :      906.15
      direct lattice vectors                 reciprocal lattice vectors
     9.676837867  0.000000000  0.000000000     0.103339543  0.000000000  0.000000000
     0.000000000  9.676837867  0.000000000     0.000000000  0.103339543  0.000000000
     0.000000000  0.000000000  9.676837867     0.000000000  0.000000000  0.103339543

  length of vectors
     9.676837867  9.676837867  9.676837867     0.103339543  0.103339543  0.103339543


 FORCES acting on ions
    electron-ion (+dipol)            ewald-force                    non-local-force                 convergence-correction
 -----------------------------------------------------------------------------------------------
   0.115E+02 -.124E+02 -.124E+02   -.126E+02 0.114E+02 0.114E+02   0.109E+01 0.988E+00 0.988E+00   0.772E-04 0.116E-04 0.116E-04
   0.184E+01 0.970E+01 0.970E+01   -.298E+01 -.856E+01 -.856E+01   0.113E+01 -.114E+01 -.114E+01   0.152E-03 0.248E-04 0.248E-04
   0.934E+01 -.761E+01 0.328E+01   -.860E+01 0.621E+01 -.198E+01   -.735E+00 0.141E+01 -.130E+01   0.160E-03 0.787E-04 0.144E-04
   0.934E+01 0.328E+01 -.761E+01   -.860E+01 -.198E+01 0.621E+01   -.735E+00 -.130E+01 0.141E+01   0.160E-03 0.144E-04 0.787E-04
   0.219E+01 -.184E-02 -.421E+01   -.290E+01 -.108E+01 0.370E+01   0.713E+00 0.109E+01 0.504E+00   -.102E-03 0.152E-05 -.398E-04
   -.231E+00 -.465E+01 -.432E+01   0.131E+01 0.393E+01 0.510E+01   -.108E+01 0.722E+00 -.774E+00   0.630E-04 -.551E-04 0.141E-04
   -.113E+01 -.616E+01 0.593E+01   0.207E+01 0.521E+01 -.503E+01   -.942E+00 0.958E+00 -.897E+00   -.195E-03 -.547E-05 -.156E-03
   -.301E+01 0.345E+00 -.576E+01   0.196E+01 -.101E+01 0.521E+01   0.105E+01 0.667E+00 0.548E+00   0.443E-04 0.139E-04 -.411E-04
   0.219E+01 -.421E+01 -.184E-02   -.290E+01 0.370E+01 -.108E+01   0.713E+00 0.504E+00 0.109E+01   -.102E-03 -.398E-04 0.152E-05
   -.231E+00 -.432E+01 -.465E+01   0.131E+01 0.510E+01 0.393E+01   -.108E+01 -.774E+00 0.722E+00   0.630E-04 0.141E-04 -.551E-04
   -.301E+01 -.576E+01 0.345E+00   0.196E+01 0.521E+01 -.101E+01   0.105E+01 0.548E+00 0.667E+00   0.443E-04 -.411E-04 0.139E-04
   -.113E+01 0.593E+01 -.616E+01   0.207E+01 -.503E+01 0.521E+01   -.942E+00 -.897E+00 0.958E+00   -.195E-03 -.156E-03 -.547E-05
   -.480E+01 -.106E+02 -.787E+01   0.369E+01 0.917E+01 0.721E+01   0.111E+01 0.147E+01 0.654E+00   -.397E-04 0.118E-03 0.169E-04
   -.263E+01 0.761E+01 -.251E+01   0.377E+01 -.819E+01 0.315E+01   -.115E+01 0.590E+00 -.641E+00   0.182E-04 -.211E-04 -.932E-04
   0.121E+01 0.897E+00 -.376E+01   -.180E+00 -.202E+01 0.410E+01   -.103E+01 0.112E+01 -.344E+00   -.121E-03 -.846E-04 0.300E-04
   0.790E+01 0.398E+00 -.491E+01   -.648E+01 0.922E+00 0.399E+01   -.143E+01 -.132E+01 0.918E+00   0.543E-04 0.219E-03 -.130E-04
   -.480E+01 -.787E+01 -.106E+02   0.369E+01 0.721E+01 0.917E+01   0.111E+01 0.654E+00 0.147E+01   -.397E-04 0.169E-04 0.118E-03
   -.263E+01 -.251E+01 0.761E+01   0.377E+01 0.315E+01 -.819E+01   -.115E+01 -.641E+00 0.590E+00   0.182E-04 -.932E-04 -.211E-04
   0.790E+01 -.491E+01 0.398E+00   -.648E+01 0.399E+01 0.922E+00   -.143E+01 0.918E+00 -.132E+01   0.543E-04 -.130E-04 0.219E-03
   0.121E+01 -.376E+01 0.897E+00   -.180E+00 0.410E+01 -.202E+01   -.103E+01 -.344E+00 0.112E+01   -.121E-03 0.300E-04 -.846E-04
   0.498E+01 0.108E+02 0.837E+01   -.568E+01 -.985E+01 -.683E+01   0.704E+00 -.961E+00 -.154E+01   -.101E-03 -.498E-05 0.566E-04
   0.498E+01 0.837E+01 0.108E+02   -.568E+01 -.683E+01 -.985E+01   0.704E+00 -.154E+01 -.961E+00   -.101E-03 0.566E-04 -.498E-05
   -.760E+01 0.156E+02 0.156E+02   0.625E+01 -.148E+02 -.148E+02   0.135E+01 -.776E+00 -.776E+00   0.206E-03 0.838E-04 0.838E-04
   0.401E+01 -.819E+00 -.819E+00   -.330E+01 0.480E+00 0.480E+00   -.703E+00 0.338E+00 0.338E+00   0.495E-04 0.252E-04 0.252E-04
   -.120E+02 -.305E+01 -.305E+01   0.122E+02 0.257E+01 0.257E+01   -.203E+00 0.474E+00 0.474E+00   0.723E-04 0.840E-04 0.840E-04
   0.129E+02 0.794E+01 0.794E+01   -.128E+02 -.787E+01 -.787E+01   -.125E+00 -.637E-01 -.637E-01   -.202E-03 -.397E-04 -.397E-04
   -.638E+01 -.184E+01 0.835E+01   0.599E+01 0.168E+01 -.843E+01   0.382E+00 0.161E+00 0.745E-01   0.321E-03 0.177E-04 -.992E-04
   -.638E+01 0.835E+01 -.184E+01   0.599E+01 -.843E+01 0.168E+01   0.382E+00 0.745E-01 0.161E+00   0.321E-03 -.992E-04 0.177E-04
   -.432E+02 0.424E+02 -.399E+02   0.464E+02 -.455E+02 0.432E+02   -.322E+01 0.305E+01 -.327E+01   0.125E-03 -.130E-03 0.319E-04
   -.531E+02 -.145E+02 0.406E+02   0.560E+02 0.173E+02 -.439E+02   -.289E+01 -.282E+01 0.323E+01   0.174E-03 0.283E-04 -.179E-04
   0.348E+02 0.410E+02 0.536E+02   -.375E+02 -.437E+02 -.575E+02   0.273E+01 0.271E+01 0.388E+01   0.248E-03 -.329E-04 0.245E-03
   0.349E+02 -.476E+02 -.456E+02   -.379E+02 0.508E+02 0.487E+02   0.298E+01 -.320E+01 -.304E+01   0.166E-03 -.641E-04 0.566E-05
   0.349E+02 -.456E+02 -.476E+02   -.379E+02 0.487E+02 0.508E+02   0.298E+01 -.304E+01 -.320E+01   0.166E-03 0.566E-05 -.641E-04
   0.348E+02 0.536E+02 0.410E+02   -.375E+02 -.575E+02 -.437E+02   0.273E+01 0.388E+01 0.271E+01   0.248E-03 0.245E-03 -.329E-04
   -.432E+02 -.399E+02 0.424E+02   0.464E+02 0.432E+02 -.455E+02   -.322E+01 -.327E+01 0.305E+01   0.125E-03 0.319E-04 -.130E-03
   -.531E+02 0.406E+02 -.145E+02   0.560E+02 -.439E+02 0.173E+02   -.289E+01 0.323E+01 -.282E+01   0.174E-03 -.179E-04 0.283E-04
   -.375E+02 -.321E+02 0.518E+02   0.404E+02 0.350E+02 -.552E+02   -.293E+01 -.293E+01 0.334E+01   -.159E-03 0.821E-04 -.184E-03
   -.375E+02 0.518E+02 -.321E+02   0.404E+02 -.552E+02 0.350E+02   -.293E+01 0.334E+01 -.293E+01   -.159E-03 -.184E-03 0.821E-04
   0.432E+02 -.487E+02 -.487E+02   -.439E+02 0.522E+02 0.522E+02   0.672E+00 -.353E+01 -.353E+01   -.234E-03 -.462E-04 -.462E-04
   0.495E+02 0.356E+02 0.356E+02   -.527E+02 -.384E+02 -.384E+02   0.318E+01 0.286E+01 0.286E+01   -.102E-03 0.342E-04 0.342E-04
   -.546E+02 -.404E+02 0.238E+02   0.576E+02 0.437E+02 -.265E+02   -.303E+01 -.334E+01 0.269E+01   -.858E-04 0.910E-04 0.118E-03
   -.546E+02 0.238E+02 -.404E+02   0.576E+02 -.265E+02 0.437E+02   -.303E+01 0.269E+01 -.334E+01   -.858E-04 0.118E-03 0.910E-04
   0.473E+02 -.377E+02 -.377E+02   -.511E+02 0.403E+02 0.403E+02   0.387E+01 -.269E+01 -.269E+01   -.224E-04 -.687E-04 -.687E-04
   0.107E+02 0.590E+02 0.590E+02   -.118E+02 -.628E+02 -.628E+02   0.105E+01 0.380E+01 0.380E+01   -.360E-03 -.546E-05 -.546E-05
   -.465E+01 0.164E+02 0.164E+02   0.488E+01 -.166E+02 -.166E+02   -.223E+00 0.234E+00 0.234E+00   -.346E-05 -.108E-03 -.108E-03
   0.929E+01 0.519E+00 0.519E+00   -.958E+01 -.720E+00 -.720E+00   0.289E+00 0.200E+00 0.200E+00   0.192E-03 0.337E-03 0.337E-03
   0.888E+00 -.728E+01 0.161E+02   -.919E+00 0.736E+01 -.163E+02   0.299E-01 -.813E-01 0.253E+00   0.639E-04 0.725E-04 -.142E-03
   0.888E+00 0.161E+02 -.728E+01   -.919E+00 -.163E+02 0.736E+01   0.299E-01 0.253E+00 -.813E-01   0.639E-04 -.142E-03 0.725E-04
   -.123E+02 -.199E+02 -.199E+02   0.123E+02 0.202E+02 0.202E+02   -.734E-01 -.303E+00 -.303E+00   0.233E-03 -.447E-03 -.447E-03
   0.359E+02 -.258E+02 -.258E+02   -.361E+02 0.263E+02 0.263E+02   0.189E+00 -.461E+00 -.461E+00   0.142E-03 -.111E-03 -.111E-03
   0.182E+02 -.437E+01 -.187E+02   -.185E+02 0.451E+01 0.191E+02   0.266E+00 -.140E+00 -.318E+00   -.283E-03 -.458E-03 0.117E-03
   0.182E+02 -.187E+02 -.437E+01   -.185E+02 0.191E+02 0.451E+01   0.266E+00 -.318E+00 -.140E+00   -.283E-03 0.117E-03 -.458E-03
 -----------------------------------------------------------------------------------------------
   0.545E+01 -.307E+01 -.307E+01   -.711E-14 -.568E-13 0.124E-13   -.544E+01 0.306E+01 0.306E+01   0.903E-03 -.496E-03 -.496E-03
 
 
 POSITION                                       TOTAL-FORCE (eV/Angst)
 -----------------------------------------------------------------------------------
      9.33800      3.24674      3.24674        -0.000448      0.000212      0.000212
      9.50782      6.52046      6.52046         0.000001      0.000071      0.000071
      0.25811      3.17927      6.86503        -0.000309     -0.000066     -0.000369
      0.25811      6.86503      3.17927        -0.000309     -0.000369     -0.000066
      2.98923      2.71820      9.54343         0.000173      0.000226      0.000144
      1.65732      7.71899      0.33403        -0.000125      0.000193      0.000200
      6.32864      2.56268      0.27825         0.000402     -0.000241     -0.000274
      8.01919      7.58227      9.43209         0.000048     -0.000028      0.000105
      2.98923      9.54343      2.71820         0.000173      0.000144      0.000226
      1.65732      0.33403      7.71899        -0.000125      0.000200      0.000193
      8.01919      9.43209      7.58227         0.000048      0.000105     -0.000028
      6.32864      0.27825      2.56268         0.000402     -0.000274     -0.000241
      3.16879      7.80819      4.64135        -0.000223     -0.000006      0.000246
      2.22332      2.89233      5.02587         0.000087      0.000072      0.000006
      6.77274      7.91675      5.05026         0.000033      0.000038     -0.000026
      6.75580      2.06067      4.52485        -0.000781     -0.000467     -0.000414
      3.16879      4.64135      7.80819        -0.000223      0.000246     -0.000006
      2.22332      5.02587      2.89233         0.000087      0.000006      0.000072
      6.75580      4.52485      2.06067        -0.000781     -0.000414     -0.000467
      6.77274      5.05026      7.91675         0.000033     -0.000026      0.000038
      4.51516      1.67899      6.50906        -0.000047      0.000318      0.000107
      4.51516      6.50906      1.67899        -0.000047      0.000107      0.000318
      9.35274      1.38052      1.38052         0.000169      0.000215      0.000215
      5.12004      7.36299      7.36299         0.000142      0.000248      0.000248
      4.94766      4.83190      4.83190         0.000607     -0.000197     -0.000197
      4.88184      9.53957      9.53957         0.000296     -0.000024     -0.000024
      0.01171      4.70282      0.07414         0.000299     -0.000053      0.000084
      0.01171      0.07414      4.70282         0.000299      0.000084     -0.000053
      1.16423      8.50410      5.86408        -0.000125      0.000149      0.000092
      1.21652      1.25607      3.51343         0.000125     -0.000020     -0.000012
      8.44148      8.67066      3.49370         0.000232     -0.000112      0.000121
      8.60349      1.33515      5.90702        -0.000140     -0.000174     -0.000074
      8.60349      5.90702      1.33515        -0.000140     -0.000074     -0.000174
      8.44148      3.49370      8.67066         0.000232      0.000121     -0.000112
      1.16423      5.86408      8.50410        -0.000125      0.000092      0.000149
      1.21652      3.51343      1.25607         0.000125     -0.000012     -0.000020
      6.03837      0.93647      8.22582        -0.000154     -0.000076     -0.000109
      6.03837      8.22582      0.93647        -0.000154     -0.000109     -0.000076
      4.14502      1.21525      1.21525        -0.000063     -0.000088     -0.000088
      3.43741      8.51168      8.51168        -0.000006      0.000148      0.000148
      6.05403      6.09707      3.65673         0.000043      0.000091      0.000087
      6.05403      3.65673      6.09707         0.000043      0.000087      0.000091
      3.71322      6.00493      6.00493         0.000379     -0.000080     -0.000080
      3.94679      3.57350      3.57350        -0.000108      0.000142      0.000142
      7.38914      7.19562      7.19562         0.000010      0.000056      0.000056
      7.41818      2.34250      2.34250        -0.000021      0.000013      0.000013
      2.45580      7.28894      2.47013        -0.000106     -0.000050      0.000214
      2.45580      2.47013      7.28894        -0.000106      0.000214     -0.000050
      9.65495      9.40924      9.40924        -0.000126     -0.000315     -0.000315
      0.43925      4.79645      4.79645         0.000056     -0.000126     -0.000126
      4.94709      9.63863      4.66800         0.000123     -0.000116     -0.000080
      4.94709      4.66800      9.63863         0.000123     -0.000080     -0.000116
 -----------------------------------------------------------------------------------
    total drift:                                0.001499     -0.009840     -0.009853


--------------------------------------------------------------------------------------------------------



  FREE ENERGIE OF THE ION-ELECTRON SYSTEM (eV)
  ---------------------------------------------------
  free  energy   TOTEN  =      -272.16041389 eV

  energy  without entropy=     -272.16041389  energy(sigma->0) =     -272.16041389
 
 d Force = 0.5629109E-06[ 0.392E-06, 0.733E-06]  d Energy = 0.1117908E-05-0.555E-06
 d Force =-0.3654844E-02[-0.366E-02,-0.365E-02]  d Ewald  =-0.3654844E-02-0.546E-11


--------------------------------------------------------------------------------------------------------


    POTLOK:  cpu time      0.4674: real time      0.4691


--------------------------------------------------------------------------------------------------------


 stress matrix after NEB project (eV)
     -1.66828     -2.03574     -2.03574
     -2.03574     -0.17155     -0.37355
     -2.03574     -0.37355     -0.17155
  FORCES: max atom, RMS     0.001000    0.000353
  FORCE total and by dimension    0.002548    0.000781
  Stress total and by dimension    4.438253    2.035743
 Conjugate gradient step on ions:
 trial-energy change:   -0.000001  1 .order   -0.000001   -0.000001   -0.000000
  (g-gl).g = 0.661E-06      g.g   = 0.638E-06  gl.gl    = 0.701E-06
 g(Force)  = 0.638E-06   g(Stress)= 0.000E+00 ortho     =-0.229E-07
 gamma     =   0.94241
 trial     =   1.19015
 opt step  =   2.55882  (harmonic =   2.55882) maximal distance =0.00008408
 next E    =  -272.160414   (d E  =  -0.00000)


--------------------------------------------------------------------------------------------------------


  
 reached required accuracy - stopping structural energy minimisation
     LOOP+:  cpu time      6.2320: real time      6.3184
    4ORBIT:  cpu time      0.0000: real time      0.0000

 total amount of memory used by VASP MPI-rank0    47031. kBytes
=======================================================================

   base      :      30000. kBytes
   nonlr-proj:       6532. kBytes
   fftplans  :       1747. kBytes
   grid      :       5278. kBytes
   one-center:         62. kBytes
   wavefun   :       3412. kBytes
 
  
  
 General timing and accounting informations for this job:
 ========================================================
  
                  Total CPU time used (sec):      101.659
                            User time (sec):      100.024
                          System time (sec):        1.635
                         Elapsed time (sec):      107.357
  
                   Maximum memory used (kb):      392416.
                   Average memory used (kb):          N/A
  
                          Minor page faults:        70255
                          Major page faults:          134
                 Voluntary context switches:         5794
