<?xml version="1.0" encoding="ISO-8859-1"?>
<modeling>
 <generator>
  <i name="program" type="string">vasp </i>
  <i name="version" type="string">6.4.1  </i>
  <i name="subversion" type="string">05Apr23 (build Jun 07 2023 15:38:11) complex                          parallel </i>
  <i name="platform" type="string">LinuxIFC </i>
  <i name="date" type="string">2023 10 16 </i>
  <i name="time" type="string">22:29:49 </i>
 </generator>
 <incar>
  <i type="string" name="PREC">Accu</i>
  <i type="string" name="ALGO">F</i>
  <i type="logical" name="LDIAG"> T  </i>
  <i type="int" name="ISPIN">     2</i>
  <i type="int" name="NELM">   100</i>
  <i type="int" name="NELMDL">   -10</i>
  <i type="int" name="IBRION">     2</i>
  <i name="EDIFF">      0.00000100</i>
  <i name="EDIFFG">     -0.00100000</i>
  <i type="int" name="NSW">  1000</i>
  <i type="int" name="ISIF">     2</i>
  <i name="ENCUT">    520.00000000</i>
  <i name="POTIM">      0.20000000</i>
  <i type="string" name="LREAL">Auto</i>
  <i type="logical" name="LPLANE"> T  </i>
  <i type="int" name="ISMEAR">     0</i>
  <i name="SIGMA">      0.03000000</i>
  <i type="int" name="LMAXMIX">     4</i>
  <i type="logical" name="LWAVE"> F  </i>
  <i type="logical" name="LCHARG"> F  </i>
  <i type="logical" name="LASPH"> T  </i>
  <i type="string" name="GGA">PE</i>
  <i type="int" name="IVDW">    12</i>
 </incar>
 <primitive_cell>
  <structure name="primitive_cell" >
   <crystal>
    <varray name="basis" >
     <v>       9.67683787       0.00000000       0.00000000 </v>
     <v>       0.00000000       9.67683787       0.00000000 </v>
     <v>       0.00000000       0.00000000       9.67683787 </v>
    </varray>
    <i name="volume">    906.15062401 </i>
    <varray name="rec_basis" >
     <v>       0.10333954       0.00000000       0.00000000 </v>
     <v>       0.00000000       0.10333954       0.00000000 </v>
     <v>       0.00000000       0.00000000       0.10333954 </v>
    </varray>
   </crystal>
   <varray name="positions" >
    <v>       0.96499430       0.33550883       0.33550883 </v>
    <v>       0.98253180       0.67381638       0.67381638 </v>
    <v>       0.02667900       0.32854769       0.70944517 </v>
    <v>       0.02667900       0.70944517       0.32854769 </v>
    <v>       0.30889802       0.28089060       0.98621601 </v>
    <v>       0.17127150       0.79767479       0.03451073 </v>
    <v>       0.65398400       0.26483774       0.02876587 </v>
    <v>       0.82869948       0.78354979       0.97470890 </v>
    <v>       0.30889802       0.98621601       0.28089060 </v>
    <v>       0.17127150       0.03451073       0.79767479 </v>
    <v>       0.82869948       0.97470890       0.78354979 </v>
    <v>       0.65398400       0.02876587       0.26483774 </v>
    <v>       0.32746976       0.80689719       0.47962702 </v>
    <v>       0.22975228       0.29889084       0.51937323 </v>
    <v>       0.69988626       0.81811175       0.52189247 </v>
    <v>       0.69816824       0.21296517       0.46760551 </v>
    <v>       0.32746976       0.47962702       0.80689719 </v>
    <v>       0.22975228       0.51937323       0.29889084 </v>
    <v>       0.69816824       0.46760551       0.21296517 </v>
    <v>       0.69988626       0.52189247       0.81811175 </v>
    <v>       0.46659674       0.17349472       0.67264083 </v>
    <v>       0.46659674       0.67264083       0.17349472 </v>
    <v>       0.96649891       0.14265713       0.14265713 </v>
    <v>       0.52909701       0.76087838       0.76087838 </v>
    <v>       0.51128246       0.49932295       0.49932295 </v>
    <v>       0.50449549       0.98581592       0.98581592 </v>
    <v>       0.00121159       0.48598743       0.00766360 </v>
    <v>       0.00121159       0.00766360       0.48598743 </v>
    <v>       0.12030719       0.87880832       0.60598115 </v>
    <v>       0.12571589       0.12979569       0.36307399 </v>
    <v>       0.87233501       0.89602348       0.36104090 </v>
    <v>       0.88908901       0.13797289       0.61044310 </v>
    <v>       0.88908901       0.61044310       0.13797289 </v>
    <v>       0.87233501       0.36104090       0.89602348 </v>
    <v>       0.12030719       0.60598115       0.87880832 </v>
    <v>       0.12571589       0.36307399       0.12979569 </v>
    <v>       0.62400383       0.09677982       0.85005815 </v>
    <v>       0.62400383       0.85005815       0.09677982 </v>
    <v>       0.42834173       0.12558253       0.12558253 </v>
    <v>       0.35522806       0.87959394       0.87959394 </v>
    <v>       0.62560768       0.63007258       0.37788877 </v>
    <v>       0.62560768       0.37788877       0.63007258 </v>
    <v>       0.38371005       0.62054348       0.62054348 </v>
    <v>       0.40784932       0.36928451       0.36928451 </v>
    <v>       0.76358784       0.74359270       0.74359270 </v>
    <v>       0.76659316       0.24208076       0.24208076 </v>
    <v>       0.25378397       0.75323539       0.25525609 </v>
    <v>       0.25378397       0.25525609       0.75323539 </v>
    <v>       0.99773925       0.97233416       0.97233416 </v>
    <v>       0.04539088       0.49565661       0.49565661 </v>
    <v>       0.51123081       0.99604404       0.48239021 </v>
    <v>       0.51123081       0.48239021       0.99604404 </v>
   </varray>
  </structure>
  <varray name="primitive_index" >
   <v type="int" >        1 </v>
   <v type="int" >        2 </v>
   <v type="int" >        3 </v>
   <v type="int" >        4 </v>
   <v type="int" >        5 </v>
   <v type="int" >        6 </v>
   <v type="int" >        7 </v>
   <v type="int" >        8 </v>
   <v type="int" >        9 </v>
   <v type="int" >       10 </v>
   <v type="int" >       11 </v>
   <v type="int" >       12 </v>
   <v type="int" >       13 </v>
   <v type="int" >       14 </v>
   <v type="int" >       15 </v>
   <v type="int" >       16 </v>
   <v type="int" >       17 </v>
   <v type="int" >       18 </v>
   <v type="int" >       19 </v>
   <v type="int" >       20 </v>
   <v type="int" >       21 </v>
   <v type="int" >       22 </v>
   <v type="int" >       23 </v>
   <v type="int" >       24 </v>
   <v type="int" >       25 </v>
   <v type="int" >       26 </v>
   <v type="int" >       27 </v>
   <v type="int" >       28 </v>
   <v type="int" >       29 </v>
   <v type="int" >       30 </v>
   <v type="int" >       31 </v>
   <v type="int" >       32 </v>
   <v type="int" >       33 </v>
   <v type="int" >       34 </v>
   <v type="int" >       35 </v>
   <v type="int" >       36 </v>
   <v type="int" >       37 </v>
   <v type="int" >       38 </v>
   <v type="int" >       39 </v>
   <v type="int" >       40 </v>
   <v type="int" >       41 </v>
   <v type="int" >       42 </v>
   <v type="int" >       43 </v>
   <v type="int" >       44 </v>
   <v type="int" >       45 </v>
   <v type="int" >       46 </v>
   <v type="int" >       47 </v>
   <v type="int" >       48 </v>
   <v type="int" >       49 </v>
   <v type="int" >       50 </v>
   <v type="int" >       51 </v>
   <v type="int" >       52 </v>
  </varray>
 </primitive_cell>
 <kpoints>
  <generation param="Monkhorst-Pack">
   <v type="int" name="divisions">       2        2        2 </v>
   <v name="usershift">      0.00000000       0.00000000       0.00000000 </v>
   <v name="genvec1">      0.50000000       0.00000000       0.00000000 </v>
   <v name="genvec2">      0.00000000       0.50000000       0.00000000 </v>
   <v name="genvec3">      0.00000000       0.00000000       0.50000000 </v>
   <v name="shift">      0.50000000       0.50000000       0.50000000 </v>
  </generation>
  <varray name="kpointlist" >
   <v>       0.25000000       0.25000000       0.25000000 </v>
   <v>      -0.25000000       0.25000000       0.25000000 </v>
   <v>      -0.25000000      -0.25000000       0.25000000 </v>
  </varray>
  <varray name="weights" >
   <v>       0.25000000 </v>
   <v>       0.25000000 </v>
   <v>       0.50000000 </v>
  </varray>
 </kpoints>
 <parameters>
  <separator name="general" >
   <i type="string" name="SYSTEM">unknown system</i>
   <i type="logical" name="LCOMPAT"> F  </i>
  </separator>
  <separator name="electronic" >
   <i type="string" name="PREC">accu</i>
   <i name="ENMAX">    520.00000000</i>
   <i name="ENAUG">   1041.69900000</i>
   <i name="EDIFF">      0.00000100</i>
   <i type="int" name="IALGO">    68</i>
   <i type="int" name="IWAVPR">    11</i>
   <i type="int" name="NBANDS">   176</i>
   <i type="int" name="NBANDSLOW">    -1</i>
   <i type="int" name="NBANDSHIGH">    -1</i>
   <i name="NELECT">    240.00000000</i>
   <i type="int" name="TURBO">     0</i>
   <i type="int" name="IRESTART">     0</i>
   <i type="int" name="NREBOOT">     0</i>
   <i type="int" name="NMIN">     0</i>
   <i name="EREF">      0.00000000</i>
   <separator name="electronic smearing" >
    <i type="int" name="ISMEAR">     0</i>
    <i name="SIGMA">      0.03000000</i>
    <i name="KSPACING">      0.50000000</i>
    <i type="logical" name="KGAMMA"> T  </i>
    <i type="logical" name="KBLOWUP"> T  </i>
   </separator>
   <separator name="electronic projectors" >
    <i type="logical" name="LREAL"> T  </i>
    <v name="ROPT">     -0.00025000     -0.00025000     -0.00025000     -0.00025000</v>
    <i type="int" name="LMAXPAW">  -100</i>
    <i type="int" name="LMAXMIX">     4</i>
    <i type="logical" name="NLSPLINE"> F  </i>
   </separator>
   <separator name="electronic startup" >
    <i type="int" name="ISTART">     0</i>
    <i type="int" name="ICHARG">     2</i>
    <i type="int" name="INIWAV">     1</i>
   </separator>
   <separator name="electronic spin" >
    <i type="int" name="ISPIN">     2</i>
    <i type="logical" name="LNONCOLLINEAR"> F  </i>
    <v name="MAGMOM">      1.00000000      1.00000000      1.00000000      1.00000000      1.00000000      1.00000000      1.00000000      1.00000000      1.00000000      1.00000000      1.00000000      1.00000000      1.00000000      1.00000000      1.00000000      1.00000000      1.00000000      1.00000000      1.00000000      1.00000000
      1.00000000      1.00000000      1.00000000      1.00000000      1.00000000      1.00000000      1.00000000      1.00000000      1.00000000      1.00000000      1.00000000      1.00000000      1.00000000      1.00000000      1.00000000      1.00000000      1.00000000      1.00000000      1.00000000      1.00000000
      1.00000000      1.00000000      1.00000000      1.00000000      1.00000000      1.00000000      1.00000000      1.00000000      1.00000000      1.00000000      1.00000000      1.00000000</v>
    <i name="NUPDOWN">     -1.00000000</i>
    <i type="logical" name="LSORBIT"> F  </i>
    <v name="SAXIS">      0.00000000      0.00000000      1.00000000</v>
    <i type="logical" name="LSPIRAL"> F  </i>
    <v name="QSPIRAL">      0.00000000      0.00000000      0.00000000</v>
    <i type="logical" name="LZEROZ"> F  </i>
   </separator>
   <separator name="electronic exchange-correlation" >
    <i type="logical" name="LASPH"> T  </i>
    <i type="logical" name="LMETAGGA"> F  </i>
   </separator>
   <separator name="electronic convergence" >
    <i type="int" name="NELM">   100</i>
    <i type="int" name="NELMDL">   -10</i>
    <i type="int" name="NELMIN">     2</i>
    <i name="ENINI">    520.00000000</i>
    <separator name="electronic convergence detail" >
     <i type="logical" name="LDIAG"> T  </i>
     <i type="logical" name="LSUBROT"> F  </i>
     <i name="WEIMIN">      0.00100000</i>
     <i name="EBREAK">      0.00000000</i>
     <i name="DEPER">      0.30000000</i>
     <i type="int" name="NRMM">     4</i>
     <i name="TIME">      0.40000000</i>
    </separator>
   </separator>
   <separator name="electronic mixer" >
    <i name="AMIX">      0.40000000</i>
    <i name="BMIX">      1.00000000</i>
    <i name="AMIN">      0.10000000</i>
    <i name="AMIX_MAG">      1.60000000</i>
    <i name="BMIX_MAG">      1.00000000</i>
    <separator name="electronic mixer details" >
     <i type="int" name="IMIX">     4</i>
     <i type="logical" name="MIXFIRST"> F  </i>
     <i type="int" name="MAXMIX">   -45</i>
     <i name="WC">    100.00000000</i>
     <i type="int" name="INIMIX">     1</i>
     <i type="int" name="MIXPRE">     1</i>
     <i type="int" name="MREMOVE">     5</i>
    </separator>
   </separator>
   <separator name="electronic dipolcorrection" >
    <i type="logical" name="LDIPOL"> F  </i>
    <i type="logical" name="LMONO"> F  </i>
    <i type="int" name="IDIPOL">     0</i>
    <i name="EPSILON">      1.00000000</i>
    <v name="DIPOL">   -100.00000000   -100.00000000   -100.00000000</v>
    <i name="EFIELD">      0.00000000</i>
   </separator>
  </separator>
  <separator name="grids" >
   <i type="int" name="NGX">    72</i>
   <i type="int" name="NGY">    72</i>
   <i type="int" name="NGZ">    72</i>
   <i type="int" name="NGXF">   144</i>
   <i type="int" name="NGYF">   144</i>
   <i type="int" name="NGZF">   144</i>
   <i type="logical" name="ADDGRID"> F  </i>
  </separator>
  <separator name="ionic" >
   <i type="int" name="NSW">  1000</i>
   <i type="int" name="IBRION">     2</i>
   <i type="int" name="MDALGO">     0</i>
   <i type="int" name="ISIF">     2</i>
   <i name="PSTRESS">      0.00000000</i>
   <i name="EDIFFG">     -0.00100000</i>
   <i type="int" name="NFREE">     1</i>
   <i name="POTIM">      0.20000000</i>
   <i name="SMASS">     -3.00000000</i>
   <i name="SCALEE">      1.00000000</i>
  </separator>
  <separator name="ionic md" >
   <i name="TEBEG">      0.00010000</i>
   <i name="TEEND">      0.00010000</i>
   <i type="int" name="NBLOCK">     1</i>
   <i type="int" name="KBLOCK">  1000</i>
   <i type="int" name="NPACO">   256</i>
   <i name="APACO">     10.00000000</i>
  </separator>
  <separator name="symmetry" >
   <i type="int" name="ISYM">     2</i>
   <i name="SYMPREC">      0.00001000</i>
  </separator>
  <separator name="dos" >
   <i type="int" name="LORBIT">     0</i>
   <v name="RWIGS">     -1.00000000     -1.00000000     -1.00000000     -1.00000000</v>
   <i type="int" name="NEDOS">   301</i>
   <i name="EMIN">     10.00000000</i>
   <i name="EMAX">    -10.00000000</i>
   <i name="EFERMI">      0.00000000</i>
  </separator>
  <separator name="writing" >
   <i type="int" name="NWRITE">     2</i>
   <i type="logical" name="LWAVE"> F  </i>
   <i type="logical" name="LDOWNSAMPLE"> F  </i>
   <i type="logical" name="LCHARG"> F  </i>
   <i type="logical" name="LPARD"> F  </i>
   <i type="logical" name="LVTOT"> F  </i>
   <i type="logical" name="LVHAR"> F  </i>
   <i type="logical" name="LELF"> F  </i>
   <i type="logical" name="LOPTICS"> F  </i>
   <v name="STM">      0.00000000      0.00000000      0.00000000      0.00000000      0.00000000      0.00000000      0.00000000</v>
  </separator>
  <separator name="performance" >
   <i type="int" name="NPAR">     4</i>
   <i type="int" name="NSIM">     4</i>
   <i type="int" name="NBLK">    -1</i>
   <i type="logical" name="LPLANE"> T  </i>
   <i type="logical" name="LSCALAPACK"> T  </i>
   <i type="logical" name="LSCAAWARE"> F  </i>
   <i type="logical" name="LSCALU"> F  </i>
   <i type="logical" name="LASYNC"> F  </i>
   <i type="logical" name="LORBITALREAL"> F  </i>
  </separator>
  <separator name="miscellaneous" >
   <i type="int" name="IDIOT">     3</i>
   <i type="int" name="PHON_NSTRUCT">    -1</i>
   <i type="logical" name="LMUSIC"> F  </i>
   <v name="POMASS">      7.01000000     30.97400000     32.06600000     35.45300000</v>
   <v name="DARWINR">      0.00000000      0.00000000      0.00000000      0.00000000</v>
   <v name="DARWINV">      1.00000000      1.00000000      1.00000000      1.00000000</v>
   <i type="logical" name="LCORR"> T  </i>
  </separator>
  <i type="logical" name="GGA_COMPAT"> T  </i>
  <i type="logical" name="LBERRY"> F  </i>
  <i type="int" name="ICORELEVEL">     0</i>
  <i type="logical" name="LDAU"> F  </i>
  <i type="int" name="I_CONSTRAINED_M">     0</i>
  <separator name="electronic exchange-correlation" >
   <i type="string" name="GGA">PE</i>
   <i type="int" name="VOSKOWN">     0</i>
   <i type="logical" name="LHFCALC"> F  </i>
   <i type="string" name="PRECFOCK"></i>
   <i type="logical" name="LSYMGRAD"> F  </i>
   <i type="logical" name="LHFONE"> F  </i>
   <i type="logical" name="LRHFCALC"> F  </i>
   <i type="logical" name="LTHOMAS"> F  </i>
   <i type="logical" name="LMODELHF"> F  </i>
   <i type="logical" name="LFOCKACE"> F  </i>
   <i name="ENCUT4O">     -1.00000000</i>
   <i type="int" name="EXXOEP">     0</i>
   <i type="int" name="FOURORBIT">     0</i>
   <i name="AEXX">      0.00000000</i>
   <i name="HFALPHA">      0.00000000</i>
   <i name="MCALPHA">      0.00000000</i>
   <i name="ALDAX">      1.00000000</i>
   <i name="AGGAX">      1.00000000</i>
   <i name="ALDAC">      1.00000000</i>
   <i name="AGGAC">      1.00000000</i>
   <i type="int" name="NKREDX">     1</i>
   <i type="int" name="NKREDY">     1</i>
   <i type="int" name="NKREDZ">     1</i>
   <i type="logical" name="SHIFTRED"> F  </i>
   <i type="logical" name="ODDONLY"> F  </i>
   <i type="logical" name="EVENONLY"> F  </i>
   <i type="int" name="LMAXFOCK">     0</i>
   <i type="int" name="NMAXFOCKAE">     0</i>
   <i type="logical" name="LFOCKAEDFT"> F  </i>
   <i name="HFSCREEN">      0.00000000</i>
   <i name="HFSCREENC">      0.00000000</i>
   <i type="int" name="NBANDSGWLOW">     0</i>
  </separator>
  <separator name="vdW DFT" >
   <i type="logical" name="LUSE_VDW"> F  </i>
   <i type="int" name="IVDW_NL">     1</i>
   <i type="logical" name="LSPIN_VDW"> F  </i>
   <i name="Zab_VDW">     -0.84910000</i>
   <i name="PARAM1">      0.12340000</i>
   <i name="PARAM2">      1.00000000</i>
   <i name="PARAM3">      0.00000000</i>
  </separator>
  <separator name="model GW" >
   <i type="int" name="MODEL_GW">     0</i>
   <i name="MODEL_EPS0">     10.45558412</i>
   <i name="MODEL_ALPHA">      1.00000000</i>
  </separator>
  <separator name="linear response parameters" >
   <i type="logical" name="LEPSILON"> F  </i>
   <i type="logical" name="LRPA"> F  </i>
   <i type="logical" name="LNABLA"> F  </i>
   <i type="logical" name="LVEL"> F  </i>
   <i name="CSHIFT">      0.10000000</i>
   <i name="OMEGAMAX">     -1.00000000</i>
   <i name="DEG_THRESHOLD">      0.00200000</i>
   <i name="RTIME">     -0.10000000</i>
   <i name="WPLASMAI">      0.00000000</i>
   <v name="DFIELD">      0.00000000      0.00000000      0.00000000</v>
   <v name="WPLASMA">      0.00000000      0.00000000      0.00000000      0.00000000      0.00000000      0.00000000      0.00000000      0.00000000      0.00000000</v>
  </separator>
  <separator name="orbital magnetization" >
   <i type="logical" name="NUCIND"> F  </i>
   <v name="MAGPOS">      0.00000000      0.00000000      0.00000000</v>
   <i type="logical" name="LNICSALL"> T  </i>
   <i type="logical" name="ORBITALMAG"> F  </i>
   <i type="logical" name="LMAGBLOCH"> F  </i>
   <i type="logical" name="LCHIMAG"> F  </i>
   <i type="logical" name="LGAUGE"> T  </i>
   <i type="int" name="MAGATOM">     0</i>
   <v name="MAGDIPOL">      0.00000000      0.00000000      0.00000000</v>
   <v name="AVECCONST">      0.00000000      0.00000000      0.00000000</v>
  </separator>
  <separator name="response functions" >
   <i type="logical" name="LALL_IN_ONE"> F  </i>
   <i type="int" name="IALL_IN_ONE">    -1</i>
   <i type="int" name="NBANDS_WAVE">    -1</i>
   <i type="logical" name="LFINITE_TEMPERATURE"> F  </i>
   <i type="logical" name="LADDER"> F  </i>
   <i type="logical" name="LRPAFORCE"> F  </i>
   <i type="logical" name="LFXC"> F  </i>
   <i type="logical" name="LHARTREE"> T  </i>
   <i type="int" name="IBSE">     0</i>
   <v type="int" name="KPOINT">    -1     0     0     0</v>
   <i type="logical" name="LTCTC"> F  </i>
   <i type="logical" name="LTCTE"> F  </i>
   <i type="logical" name="LTETE"> F  </i>
   <i type="logical" name="LTRIPLET"> F  </i>
   <i type="logical" name="LFXCEPS"> F  </i>
   <i type="logical" name="LFXHEG"> F  </i>
   <i type="int" name="NATURALO">     2</i>
   <i type="logical" name="LHOLEGF"> F  </i>
   <i type="logical" name="L2ORDER"> F  </i>
   <i type="logical" name="LDMP1"> F  </i>
   <i type="logical" name="LMP2LT"> F  </i>
   <i type="logical" name="LSMP2LT"> F  </i>
   <i type="logical" name="LGWLF"> F  </i>
   <i name="ENCUTGW">     -1.60000002</i>
   <i name="ENCUTGWSOFT">     -1.60000002</i>
   <i name="ENCUTLF">     -1.00000000</i>
   <i type="logical" name="LESF_SPLINES"> F  </i>
   <i type="int" name="LMAXMP2">    -1</i>
   <i name="SCISSOR">      0.00000000</i>
   <i type="int" name="NOMEGA">     0</i>
   <i type="int" name="NOMEGAR">     0</i>
   <i type="int" name="NBANDSGW">    -1</i>
   <i type="int" name="NBANDSO">    -1</i>
   <i type="int" name="NBANDSV">    -1</i>
   <i type="int" name="NELMGW">     1</i>
   <i type="int" name="NELMHF">     1</i>
   <i type="int" name="DIM">     3</i>
   <i type="int" name="IESPILON">     4</i>
   <i type="int" name="ANTIRES">     0</i>
   <i name="OMEGAMAX">    -30.00000000</i>
   <i name="OMEGAMIN">    -30.00000000</i>
   <i name="OMEGATL">   -200.00000000</i>
   <i type="int" name="OMEGAGRID">     0</i>
   <i name="CSHIFT">     -0.10000000</i>
   <i type="logical" name="LSELFENERGY"> F  </i>
   <i type="logical" name="LSPECTRAL"> F  </i>
   <i type="logical" name="LSPECTRALGW"> F  </i>
   <i type="logical" name="LSINGLES"> F  </i>
   <i type="logical" name="LFERMIGW"> F  </i>
   <i type="logical" name="ODDONLYGW"> F  </i>
   <i type="logical" name="EVENONLYGW"> F  </i>
   <i type="int" name="NKREDLFX">     1</i>
   <i type="int" name="NKREDLFY">     1</i>
   <i type="int" name="NKREDLFZ">     1</i>
   <i type="int" name="MAXMEM">  2800</i>
   <i type="int" name="TELESCOPE">     0</i>
   <i type="int" name="NTAUPAR">    -1</i>
   <i type="int" name="NOMEGAPAR">    -1</i>
   <i name="DAMP_NEWTON">      0.80000001</i>
   <i name="LAMBDA">      1.00000000</i>
  </separator>
  <separator name="External order field" >
   <i name="OFIELD_KAPPA">      0.00000000</i>
   <v name="OFIELD_K">      0.00000000      0.00000000      0.00000000</v>
   <i name="OFIELD_Q6_NEAR">      0.00000000</i>
   <i name="OFIELD_Q6_FAR">      0.00000000</i>
   <i name="OFIELD_A">      0.00000000</i>
  </separator>
  <separator name="optional k-points parameters" >
   <i type="int" name="KPOINTS_OPT_MODE">     1</i>
   <i type="logical" name="LKPOINTS_OPT"> F  </i>
  </separator>
 </parameters>
 <atominfo>
  <atoms>      52 </atoms>
  <types>       4 </types>
  <array name="atoms" >
   <dimension dim="1">ion</dimension>
   <field type="string">element</field>
   <field type="int">atomtype</field>
   <set>
    <rc><c>Li</c><c>   1</c></rc>
    <rc><c>Li</c><c>   1</c></rc>
    <rc><c>Li</c><c>   1</c></rc>
    <rc><c>Li</c><c>   1</c></rc>
    <rc><c>Li</c><c>   1</c></rc>
    <rc><c>Li</c><c>   1</c></rc>
    <rc><c>Li</c><c>   1</c></rc>
    <rc><c>Li</c><c>   1</c></rc>
    <rc><c>Li</c><c>   1</c></rc>
    <rc><c>Li</c><c>   1</c></rc>
    <rc><c>Li</c><c>   1</c></rc>
    <rc><c>Li</c><c>   1</c></rc>
    <rc><c>Li</c><c>   1</c></rc>
    <rc><c>Li</c><c>   1</c></rc>
    <rc><c>Li</c><c>   1</c></rc>
    <rc><c>Li</c><c>   1</c></rc>
    <rc><c>Li</c><c>   1</c></rc>
    <rc><c>Li</c><c>   1</c></rc>
    <rc><c>Li</c><c>   1</c></rc>
    <rc><c>Li</c><c>   1</c></rc>
    <rc><c>Li</c><c>   1</c></rc>
    <rc><c>Li</c><c>   1</c></rc>
    <rc><c>Li</c><c>   1</c></rc>
    <rc><c>Li</c><c>   1</c></rc>
    <rc><c>P </c><c>   2</c></rc>
    <rc><c>P </c><c>   2</c></rc>
    <rc><c>P </c><c>   2</c></rc>
    <rc><c>P </c><c>   2</c></rc>
    <rc><c>S </c><c>   3</c></rc>
    <rc><c>S </c><c>   3</c></rc>
    <rc><c>S </c><c>   3</c></rc>
    <rc><c>S </c><c>   3</c></rc>
    <rc><c>S </c><c>   3</c></rc>
    <rc><c>S </c><c>   3</c></rc>
    <rc><c>S </c><c>   3</c></rc>
    <rc><c>S </c><c>   3</c></rc>
    <rc><c>S </c><c>   3</c></rc>
    <rc><c>S </c><c>   3</c></rc>
    <rc><c>S </c><c>   3</c></rc>
    <rc><c>S </c><c>   3</c></rc>
    <rc><c>S </c><c>   3</c></rc>
    <rc><c>S </c><c>   3</c></rc>
    <rc><c>S </c><c>   3</c></rc>
    <rc><c>S </c><c>   3</c></rc>
    <rc><c>S </c><c>   3</c></rc>
    <rc><c>S </c><c>   3</c></rc>
    <rc><c>S </c><c>   3</c></rc>
    <rc><c>S </c><c>   3</c></rc>
    <rc><c>Cl</c><c>   4</c></rc>
    <rc><c>Cl</c><c>   4</c></rc>
    <rc><c>Cl</c><c>   4</c></rc>
    <rc><c>Cl</c><c>   4</c></rc>
   </set>
  </array>
  <array name="atomtypes" >
   <dimension dim="1">type</dimension>
   <field type="int">atomspertype</field>
   <field type="string">element</field>
   <field>mass</field>
   <field>valence</field>
   <field type="string">pseudopotential</field>
   <set>
    <rc><c>  24</c><c>Li</c><c>      7.01000000</c><c>      3.00000000</c><c>  PAW_PBE Li_sv_GW 25Mar2010            </c></rc>
    <rc><c>   4</c><c>P </c><c>     30.97400000</c><c>      5.00000000</c><c>  PAW_PBE P_GW 19Mar2012                </c></rc>
    <rc><c>  20</c><c>S </c><c>     32.06600000</c><c>      6.00000000</c><c>  PAW_PBE S_GW 19Mar2012                </c></rc>
    <rc><c>   4</c><c>Cl</c><c>     35.45300000</c><c>      7.00000000</c><c>  PAW_PBE Cl_GW 19Mar2012               </c></rc>
   </set>
  </array>
 </atominfo>
 <structure name="initialpos" >
  <crystal>
   <varray name="basis" >
    <v>       9.67683787       0.00000000       0.00000000 </v>
    <v>       0.00000000       9.67683787       0.00000000 </v>
    <v>       0.00000000       0.00000000       9.67683787 </v>
   </varray>
   <i name="volume">    906.15062401 </i>
   <varray name="rec_basis" >
    <v>       0.10333954       0.00000000       0.00000000 </v>
    <v>       0.00000000       0.10333954       0.00000000 </v>
    <v>       0.00000000       0.00000000       0.10333954 </v>
   </varray>
  </crystal>
  <varray name="positions" >
   <v>       0.96499430       0.33550883       0.33550883 </v>
   <v>       0.98253180       0.67381638       0.67381638 </v>
   <v>       0.02667900       0.32854769       0.70944517 </v>
   <v>       0.02667900       0.70944517       0.32854769 </v>
   <v>       0.30889802       0.28089060       0.98621601 </v>
   <v>       0.17127150       0.79767479       0.03451073 </v>
   <v>       0.65398400       0.26483774       0.02876587 </v>
   <v>       0.82869948       0.78354979       0.97470890 </v>
   <v>       0.30889802       0.98621601       0.28089060 </v>
   <v>       0.17127150       0.03451073       0.79767479 </v>
   <v>       0.82869948       0.97470890       0.78354979 </v>
   <v>       0.65398400       0.02876587       0.26483774 </v>
   <v>       0.32746976       0.80689719       0.47962702 </v>
   <v>       0.22975228       0.29889084       0.51937323 </v>
   <v>       0.69988626       0.81811175       0.52189247 </v>
   <v>       0.69816824       0.21296517       0.46760551 </v>
   <v>       0.32746976       0.47962702       0.80689719 </v>
   <v>       0.22975228       0.51937323       0.29889084 </v>
   <v>       0.69816824       0.46760551       0.21296517 </v>
   <v>       0.69988626       0.52189247       0.81811175 </v>
   <v>       0.46659674       0.17349472       0.67264083 </v>
   <v>       0.46659674       0.67264083       0.17349472 </v>
   <v>       0.96649891       0.14265713       0.14265713 </v>
   <v>       0.52909701       0.76087838       0.76087838 </v>
   <v>       0.51128246       0.49932295       0.49932295 </v>
   <v>       0.50449549       0.98581592       0.98581592 </v>
   <v>       0.00121159       0.48598743       0.00766360 </v>
   <v>       0.00121159       0.00766360       0.48598743 </v>
   <v>       0.12030719       0.87880832       0.60598115 </v>
   <v>       0.12571589       0.12979569       0.36307399 </v>
   <v>       0.87233501       0.89602348       0.36104090 </v>
   <v>       0.88908901       0.13797289       0.61044310 </v>
   <v>       0.88908901       0.61044310       0.13797289 </v>
   <v>       0.87233501       0.36104090       0.89602348 </v>
   <v>       0.12030719       0.60598115       0.87880832 </v>
   <v>       0.12571589       0.36307399       0.12979569 </v>
   <v>       0.62400383       0.09677982       0.85005815 </v>
   <v>       0.62400383       0.85005815       0.09677982 </v>
   <v>       0.42834173       0.12558253       0.12558253 </v>
   <v>       0.35522806       0.87959394       0.87959394 </v>
   <v>       0.62560768       0.63007258       0.37788877 </v>
   <v>       0.62560768       0.37788877       0.63007258 </v>
   <v>       0.38371005       0.62054348       0.62054348 </v>
   <v>       0.40784932       0.36928451       0.36928451 </v>
   <v>       0.76358784       0.74359270       0.74359270 </v>
   <v>       0.76659316       0.24208076       0.24208076 </v>
   <v>       0.25378397       0.75323539       0.25525609 </v>
   <v>       0.25378397       0.25525609       0.75323539 </v>
   <v>       0.99773925       0.97233416       0.97233416 </v>
   <v>       0.04539088       0.49565661       0.49565661 </v>
   <v>       0.51123081       0.99604404       0.48239021 </v>
   <v>       0.51123081       0.48239021       0.99604404 </v>
  </varray>
 </structure>
 <calculation>
  <scstep>
   <time name="dav">    1.66    1.87</time>
   <time name="total">    2.13    2.37</time>
   <energy>
    <i name="alphaZ">    299.57216437 </i>
    <i name="ewald">  -8798.55707328 </i>
    <i name="hartreedc">  -2120.15813993 </i>
    <i name="XCdc">    533.97405740 </i>
    <i name="pawpsdc">   8141.38806575 </i>
    <i name="pawaedc">  -8271.61346273 </i>
    <i name="eentropy">     -0.00843918 </i>
    <i name="bandstr">   -894.39324951 </i>
    <i name="atom">  12703.13999606 </i>
    <i name="e_fr_energy">   1593.34391894 </i>
    <i name="e_wo_entrp">   1593.35235812 </i>
    <i name="e_0_energy">   1593.34813853 </i>
   </energy>
  </scstep>
  <scstep>
   <time name="dav">    1.93    1.95</time>
   <time name="total">    1.93    1.95</time>
   <energy>
    <i name="e_fr_energy">    -53.47483104 </i>
    <i name="e_wo_entrp">    -53.47483104 </i>
    <i name="e_0_energy">    -53.47483104 </i>
   </energy>
  </scstep>
  <scstep>
   <time name="dav">    1.94    1.97</time>
   <time name="total">    1.94    1.97</time>
   <energy>
    <i name="e_fr_energy">   -228.25164082 </i>
    <i name="e_wo_entrp">   -228.25164082 </i>
    <i name="e_0_energy">   -228.25164082 </i>
   </energy>
  </scstep>
  <scstep>
   <time name="dav">    2.31    2.34</time>
   <time name="total">    2.31    2.34</time>
   <energy>
    <i name="e_fr_energy">   -241.56212127 </i>
    <i name="e_wo_entrp">   -241.56212127 </i>
    <i name="e_0_energy">   -241.56212127 </i>
   </energy>
  </scstep>
  <scstep>
   <time name="dav">    2.23    2.25</time>
   <time name="total">    2.23    2.25</time>
   <energy>
    <i name="e_fr_energy">   -241.79770685 </i>
    <i name="e_wo_entrp">   -241.79770685 </i>
    <i name="e_0_energy">   -241.79770685 </i>
   </energy>
  </scstep>
  <scstep>
   <time name="dav">    2.27    2.33</time>
   <time name="total">    2.27    2.33</time>
   <energy>
    <i name="e_fr_energy">   -241.80779678 </i>
    <i name="e_wo_entrp">   -241.80779678 </i>
    <i name="e_0_energy">   -241.80779678 </i>
   </energy>
  </scstep>
  <scstep>
   <time name="dav">    2.23    2.25</time>
   <time name="total">    2.23    2.25</time>
   <energy>
    <i name="e_fr_energy">   -241.80815722 </i>
    <i name="e_wo_entrp">   -241.80815722 </i>
    <i name="e_0_energy">   -241.80815722 </i>
   </energy>
  </scstep>
  <scstep>
   <time name="dav">    2.24    2.29</time>
   <time name="total">    2.24    2.29</time>
   <energy>
    <i name="e_fr_energy">   -241.80817840 </i>
    <i name="e_wo_entrp">   -241.80817840 </i>
    <i name="e_0_energy">   -241.80817840 </i>
   </energy>
  </scstep>
  <scstep>
   <time name="dav">    2.20    2.21</time>
   <time name="total">    2.20    2.21</time>
   <energy>
    <i name="e_fr_energy">   -241.80817976 </i>
    <i name="e_wo_entrp">   -241.80817976 </i>
    <i name="e_0_energy">   -241.80817976 </i>
   </energy>
  </scstep>
  <scstep>
   <time name="dav">    1.45    1.48</time>
   <time name="total">    1.62    1.75</time>
   <energy>
    <i name="e_fr_energy">   -241.80817982 </i>
    <i name="e_wo_entrp">   -241.80817982 </i>
    <i name="e_0_energy">   -241.80817982 </i>
   </energy>
  </scstep>
  <scstep>
   <time name="diag">    0.27    0.27</time>
   <time name="diis">    0.88    0.89</time>
   <time name="orth">    0.05    0.05</time>
   <time name="total">    1.88    2.08</time>
   <energy>
    <i name="e_fr_energy">   -235.60994606 </i>
    <i name="e_wo_entrp">   -235.60994606 </i>
    <i name="e_0_energy">   -235.60994606 </i>
   </energy>
  </scstep>
  <scstep>
   <time name="diag">    0.27    0.27</time>
   <time name="diis">    0.92    0.93</time>
   <time name="orth">    0.05    0.05</time>
   <time name="total">    1.83    1.89</time>
   <energy>
    <i name="e_fr_energy">   -255.97520860 </i>
    <i name="e_wo_entrp">   -255.97520860 </i>
    <i name="e_0_energy">   -255.97520860 </i>
   </energy>
  </scstep>
  <scstep>
   <time name="diag">    0.27    0.27</time>
   <time name="diis">    0.90    0.91</time>
   <time name="orth">    0.05    0.05</time>
   <time name="total">    1.80    1.85</time>
   <energy>
    <i name="e_fr_energy">   -258.45652999 </i>
    <i name="e_wo_entrp">   -258.45652999 </i>
    <i name="e_0_energy">   -258.45652999 </i>
   </energy>
  </scstep>
  <scstep>
   <time name="diag">    0.27    0.27</time>
   <time name="diis">    1.14    1.15</time>
   <time name="orth">    0.05    0.05</time>
   <time name="total">    2.04    2.07</time>
   <energy>
    <i name="e_fr_energy">   -258.65374914 </i>
    <i name="e_wo_entrp">   -258.65374914 </i>
    <i name="e_0_energy">   -258.65374914 </i>
   </energy>
  </scstep>
  <scstep>
   <time name="diag">    0.27    0.27</time>
   <time name="diis">    0.95    0.96</time>
   <time name="orth">    0.05    0.05</time>
   <time name="total">    1.84    1.88</time>
   <energy>
    <i name="e_fr_energy">   -258.63023289 </i>
    <i name="e_wo_entrp">   -258.63023289 </i>
    <i name="e_0_energy">   -258.63023289 </i>
   </energy>
  </scstep>
  <scstep>
   <time name="diag">    0.27    0.27</time>
   <time name="diis">    0.97    0.98</time>
   <time name="orth">    0.05    0.05</time>
   <time name="total">    1.86    1.90</time>
   <energy>
    <i name="e_fr_energy">   -258.65122386 </i>
    <i name="e_wo_entrp">   -258.65122386 </i>
    <i name="e_0_energy">   -258.65122386 </i>
   </energy>
  </scstep>
  <scstep>
   <time name="diag">    0.27    0.27</time>
   <time name="diis">    1.10    1.11</time>
   <time name="orth">    0.05    0.05</time>
   <time name="total">    1.98    2.02</time>
   <energy>
    <i name="e_fr_energy">   -258.65709875 </i>
    <i name="e_wo_entrp">   -258.65709875 </i>
    <i name="e_0_energy">   -258.65709875 </i>
   </energy>
  </scstep>
  <scstep>
   <time name="diag">    0.27    0.27</time>
   <time name="diis">    1.04    1.05</time>
   <time name="orth">    0.05    0.05</time>
   <time name="total">    1.93    1.95</time>
   <energy>
    <i name="e_fr_energy">   -258.65839232 </i>
    <i name="e_wo_entrp">   -258.65839232 </i>
    <i name="e_0_energy">   -258.65839232 </i>
   </energy>
  </scstep>
  <scstep>
   <time name="diag">    0.27    0.27</time>
   <time name="diis">    1.23    1.24</time>
   <time name="orth">    0.05    0.05</time>
   <time name="total">    2.11    2.14</time>
   <energy>
    <i name="e_fr_energy">   -258.65886939 </i>
    <i name="e_wo_entrp">   -258.65886939 </i>
    <i name="e_0_energy">   -258.65886939 </i>
   </energy>
  </scstep>
  <scstep>
   <time name="diag">    0.27    0.27</time>
   <time name="diis">    1.21    1.22</time>
   <time name="orth">    0.05    0.05</time>
   <time name="total">    2.09    2.11</time>
   <energy>
    <i name="e_fr_energy">   -258.65895505 </i>
    <i name="e_wo_entrp">   -258.65895505 </i>
    <i name="e_0_energy">   -258.65895505 </i>
   </energy>
  </scstep>
  <scstep>
   <time name="diag">    0.33    0.34</time>
   <time name="diis">    1.02    1.03</time>
   <time name="orth">    0.05    0.05</time>
   <time name="total">    1.95    1.99</time>
   <energy>
    <i name="e_fr_energy">   -258.65897231 </i>
    <i name="e_wo_entrp">   -258.65897231 </i>
    <i name="e_0_energy">   -258.65897231 </i>
   </energy>
  </scstep>
  <scstep>
   <time name="diag">    0.27    0.27</time>
   <time name="diis">    1.21    1.22</time>
   <time name="orth">    0.05    0.05</time>
   <time name="total">    2.09    2.11</time>
   <energy>
    <i name="e_fr_energy">   -258.65897991 </i>
    <i name="e_wo_entrp">   -258.65897991 </i>
    <i name="e_0_energy">   -258.65897991 </i>
   </energy>
  </scstep>
  <scstep>
   <time name="diag">    0.27    0.27</time>
   <time name="diis">    1.03    1.05</time>
   <time name="orth">    0.05    0.05</time>
   <time name="total">    1.91    1.94</time>
   <energy>
    <i name="e_fr_energy">   -258.65897975 </i>
    <i name="e_wo_entrp">   -258.65897975 </i>
    <i name="e_0_energy">   -258.65897975 </i>
   </energy>
  </scstep>
  <scstep>
   <time name="diag">    0.27    0.27</time>
   <time name="diis">    0.78    0.79</time>
   <time name="orth">    0.05    0.05</time>
   <time name="total">    1.56    1.58</time>
   <energy>
    <i name="alphaZ">    299.57216437 </i>
    <i name="ewald">  -8798.55707328 </i>
    <i name="hartreedc">  -2220.52362178 </i>
    <i name="XCdc">    537.66294608 </i>
    <i name="pawpsdc">   9805.61666902 </i>
    <i name="pawaedc">  -9949.58964865 </i>
    <i name="eentropy">     -0.00000000 </i>
    <i name="bandstr">  -2635.98041060 </i>
    <i name="atom">  12703.13999606 </i>
    <i name="e_fr_energy">   -258.65897877 </i>
    <i name="e_wo_entrp">   -258.65897877 </i>
    <i name="e_0_energy">   -258.65897877 </i>
   </energy>
  </scstep>
  <structure>
   <crystal>
    <varray name="basis" >
     <v>       9.67683787       0.00000000       0.00000000 </v>
     <v>       0.00000000       9.67683787       0.00000000 </v>
     <v>       0.00000000       0.00000000       9.67683787 </v>
    </varray>
    <i name="volume">    906.15062401 </i>
    <varray name="rec_basis" >
     <v>       0.10333954       0.00000000       0.00000000 </v>
     <v>       0.00000000       0.10333954       0.00000000 </v>
     <v>       0.00000000       0.00000000       0.10333954 </v>
    </varray>
   </crystal>
   <varray name="positions" >
    <v>       0.96499430       0.33550883       0.33550883 </v>
    <v>       0.98253180       0.67381638       0.67381638 </v>
    <v>       0.02667900       0.32854769       0.70944517 </v>
    <v>       0.02667900       0.70944517       0.32854769 </v>
    <v>       0.30889802       0.28089060       0.98621601 </v>
    <v>       0.17127150       0.79767479       0.03451073 </v>
    <v>       0.65398400       0.26483774       0.02876587 </v>
    <v>       0.82869948       0.78354979       0.97470890 </v>
    <v>       0.30889802       0.98621601       0.28089060 </v>
    <v>       0.17127150       0.03451073       0.79767479 </v>
    <v>       0.82869948       0.97470890       0.78354979 </v>
    <v>       0.65398400       0.02876587       0.26483774 </v>
    <v>       0.32746976       0.80689719       0.47962702 </v>
    <v>       0.22975228       0.29889084       0.51937323 </v>
    <v>       0.69988626       0.81811175       0.52189247 </v>
    <v>       0.69816824       0.21296517       0.46760551 </v>
    <v>       0.32746976       0.47962702       0.80689719 </v>
    <v>       0.22975228       0.51937323       0.29889084 </v>
    <v>       0.69816824       0.46760551       0.21296517 </v>
    <v>       0.69988626       0.52189247       0.81811175 </v>
    <v>       0.46659674       0.17349472       0.67264083 </v>
    <v>       0.46659674       0.67264083       0.17349472 </v>
    <v>       0.96649891       0.14265713       0.14265713 </v>
    <v>       0.52909701       0.76087838       0.76087838 </v>
    <v>       0.51128246       0.49932295       0.49932295 </v>
    <v>       0.50449549       0.98581592       0.98581592 </v>
    <v>       0.00121159       0.48598743       0.00766360 </v>
    <v>       0.00121159       0.00766360       0.48598743 </v>
    <v>       0.12030719       0.87880832       0.60598115 </v>
    <v>       0.12571589       0.12979569       0.36307399 </v>
    <v>       0.87233501       0.89602348       0.36104090 </v>
    <v>       0.88908901       0.13797289       0.61044310 </v>
    <v>       0.88908901       0.61044310       0.13797289 </v>
    <v>       0.87233501       0.36104090       0.89602348 </v>
    <v>       0.12030719       0.60598115       0.87880832 </v>
    <v>       0.12571589       0.36307399       0.12979569 </v>
    <v>       0.62400383       0.09677982       0.85005815 </v>
    <v>       0.62400383       0.85005815       0.09677982 </v>
    <v>       0.42834173       0.12558253       0.12558253 </v>
    <v>       0.35522806       0.87959394       0.87959394 </v>
    <v>       0.62560768       0.63007258       0.37788877 </v>
    <v>       0.62560768       0.37788877       0.63007258 </v>
    <v>       0.38371005       0.62054348       0.62054348 </v>
    <v>       0.40784932       0.36928451       0.36928451 </v>
    <v>       0.76358784       0.74359270       0.74359270 </v>
    <v>       0.76659316       0.24208076       0.24208076 </v>
    <v>       0.25378397       0.75323539       0.25525609 </v>
    <v>       0.25378397       0.25525609       0.75323539 </v>
    <v>       0.99773925       0.97233416       0.97233416 </v>
    <v>       0.04539088       0.49565661       0.49565661 </v>
    <v>       0.51123081       0.99604404       0.48239021 </v>
    <v>       0.51123081       0.48239021       0.99604404 </v>
   </varray>
  </structure>
  <varray name="forces" >
   <v>      -0.00061878       0.00046619       0.00046619 </v>
   <v>       0.00012923       0.00031209       0.00031209 </v>
   <v>      -0.00039086      -0.00022682      -0.00101858 </v>
   <v>      -0.00039086      -0.00101858      -0.00022682 </v>
   <v>       0.00049537       0.00044933      -0.00015589 </v>
   <v>      -0.00027346       0.00009398       0.00051276 </v>
   <v>       0.00095845      -0.00074629      -0.00077444 </v>
   <v>      -0.00000520      -0.00007228      -0.00006094 </v>
   <v>       0.00049537      -0.00015589       0.00044933 </v>
   <v>      -0.00027346       0.00051276       0.00009398 </v>
   <v>      -0.00000520      -0.00006094      -0.00007228 </v>
   <v>       0.00095845      -0.00077444      -0.00074629 </v>
   <v>      -0.00052283      -0.00014924       0.00047378 </v>
   <v>       0.00029498       0.00004584      -0.00010707 </v>
   <v>       0.00035387       0.00008701      -0.00003997 </v>
   <v>      -0.00169217      -0.00101598      -0.00055522 </v>
   <v>      -0.00052283       0.00047378      -0.00014924 </v>
   <v>       0.00029498      -0.00010707       0.00004584 </v>
   <v>      -0.00169217      -0.00055522      -0.00101598 </v>
   <v>       0.00035387      -0.00003997       0.00008701 </v>
   <v>      -0.00017573       0.00072944       0.00014692 </v>
   <v>      -0.00017573       0.00014692       0.00072944 </v>
   <v>       0.00055732       0.00027193       0.00027193 </v>
   <v>       0.00030656       0.00060779       0.00060779 </v>
   <v>       0.00015374       0.00033832       0.00033832 </v>
   <v>      -0.00073329      -0.00006308      -0.00006308 </v>
   <v>      -0.00037764      -0.00004581      -0.00004706 </v>
   <v>      -0.00037764      -0.00004706      -0.00004581 </v>
   <v>       0.00038821      -0.00006645       0.00078182 </v>
   <v>      -0.00004840       0.00043228       0.00006069 </v>
   <v>       0.00027616       0.00000561      -0.00023433 </v>
   <v>      -0.00048519      -0.00000021      -0.00107234 </v>
   <v>      -0.00048519      -0.00107234      -0.00000021 </v>
   <v>       0.00027616      -0.00023433       0.00000561 </v>
   <v>       0.00038821       0.00078182      -0.00006645 </v>
   <v>      -0.00004840       0.00006069       0.00043228 </v>
   <v>       0.00002780      -0.00032708      -0.00042470 </v>
   <v>       0.00002780      -0.00042470      -0.00032708 </v>
   <v>       0.00023481       0.00004490       0.00004490 </v>
   <v>      -0.00045125      -0.00006512      -0.00006512 </v>
   <v>       0.00095113      -0.00024125      -0.00034864 </v>
   <v>       0.00095113      -0.00034864      -0.00024125 </v>
   <v>       0.00083678       0.00016654       0.00016654 </v>
   <v>       0.00068372      -0.00015583      -0.00015583 </v>
   <v>       0.00016243      -0.00004682      -0.00004682 </v>
   <v>      -0.00010466      -0.00051061      -0.00051061 </v>
   <v>      -0.00019492       0.00006051       0.00037901 </v>
   <v>      -0.00019492       0.00037901       0.00006051 </v>
   <v>      -0.00003337       0.00101498       0.00101498 </v>
   <v>       0.00000488       0.00056599       0.00056599 </v>
   <v>      -0.00014362       0.00055820      -0.00003384 </v>
   <v>      -0.00014362      -0.00003384       0.00055820 </v>
  </varray>
  <varray name="stress" >
   <v>      -2.92990930      -3.59789744      -3.59789744 </v>
   <v>      -3.59789676      -0.28619160      -0.66928864 </v>
   <v>      -3.59789676      -0.66928864      -0.28619160 </v>
  </varray>
  <energy>
   <i name="e_fr_energy">   -272.16040921 </i>
   <i name="e_wo_entrp">   -272.16040921 </i>
   <i name="e_0_energy">   -272.16040921 </i>
  </energy>
  <time name="totalsc">   50.70   52.07</time>
 </calculation>
 <calculation>
  <scstep>
   <time name="dav">    1.67    1.69</time>
   <time name="total">    2.25    2.29</time>
   <energy>
    <i name="alphaZ">    299.57216437 </i>
    <i name="ewald">  -8798.56273484 </i>
    <i name="hartreedc">  -2220.52272515 </i>
    <i name="XCdc">    537.66287184 </i>
    <i name="pawpsdc">   9805.60511098 </i>
    <i name="pawaedc">  -9949.57805966 </i>
    <i name="eentropy">     -0.00000000 </i>
    <i name="bandstr">  -2635.97560299 </i>
    <i name="atom">  12703.13999606 </i>
    <i name="e_fr_energy">   -258.65897939 </i>
    <i name="e_wo_entrp">   -258.65897939 </i>
    <i name="e_0_energy">   -258.65897939 </i>
   </energy>
  </scstep>
  <scstep>
   <time name="diag">    0.27    0.27</time>
   <time name="diis">    0.62    0.62</time>
   <time name="orth">    0.05    0.05</time>
   <time name="total">    1.40    1.41</time>
   <energy>
    <i name="alphaZ">    299.57216437 </i>
    <i name="ewald">  -8798.56273484 </i>
    <i name="hartreedc">  -2220.52508055 </i>
    <i name="XCdc">    537.66275090 </i>
    <i name="pawpsdc">   9805.58396308 </i>
    <i name="pawaedc">  -9949.55652700 </i>
    <i name="eentropy">     -0.00000000 </i>
    <i name="bandstr">  -2635.97351164 </i>
    <i name="atom">  12703.13999606 </i>
    <i name="e_fr_energy">   -258.65897962 </i>
    <i name="e_wo_entrp">   -258.65897962 </i>
    <i name="e_0_energy">   -258.65897962 </i>
   </energy>
  </scstep>
  <structure>
   <crystal>
    <varray name="basis" >
     <v>       9.67683787       0.00000000       0.00000000 </v>
     <v>       0.00000000       9.67683787       0.00000000 </v>
     <v>       0.00000000       0.00000000       9.67683787 </v>
    </varray>
    <i name="volume">    906.15062401 </i>
    <varray name="rec_basis" >
     <v>       0.10333954       0.00000000       0.00000000 </v>
     <v>       0.00000000       0.10333954       0.00000000 </v>
     <v>       0.00000000       0.00000000       0.10333954 </v>
    </varray>
   </crystal>
   <varray name="positions" >
    <v>       0.96499307       0.33550976       0.33550976 </v>
    <v>       0.98253206       0.67381701       0.67381701 </v>
    <v>       0.02667822       0.32854724       0.70944314 </v>
    <v>       0.02667822       0.70944314       0.32854724 </v>
    <v>       0.30889901       0.28089150       0.98621570 </v>
    <v>       0.17127096       0.79767498       0.03451176 </v>
    <v>       0.65398591       0.26483625       0.02876432 </v>
    <v>       0.82869947       0.78354965       0.97470878 </v>
    <v>       0.30889901       0.98621570       0.28089150 </v>
    <v>       0.17127096       0.03451176       0.79767498 </v>
    <v>       0.82869947       0.97470878       0.78354965 </v>
    <v>       0.65398591       0.02876432       0.26483625 </v>
    <v>       0.32746872       0.80689689       0.47962796 </v>
    <v>       0.22975287       0.29889093       0.51937301 </v>
    <v>       0.69988697       0.81811192       0.52189239 </v>
    <v>       0.69816487       0.21296314       0.46760441 </v>
    <v>       0.32746872       0.47962796       0.80689689 </v>
    <v>       0.22975287       0.51937301       0.29889093 </v>
    <v>       0.69816487       0.46760441       0.21296314 </v>
    <v>       0.69988697       0.52189239       0.81811192 </v>
    <v>       0.46659639       0.17349618       0.67264112 </v>
    <v>       0.46659639       0.67264112       0.17349618 </v>
    <v>       0.96650002       0.14265768       0.14265768 </v>
    <v>       0.52909762       0.76087959       0.76087959 </v>
    <v>       0.51128277       0.49932362       0.49932362 </v>
    <v>       0.50449402       0.98581580       0.98581580 </v>
    <v>       0.00121083       0.48598734       0.00766350 </v>
    <v>       0.00121083       0.00766350       0.48598734 </v>
    <v>       0.12030797       0.87880819       0.60598271 </v>
    <v>       0.12571579       0.12979656       0.36307411 </v>
    <v>       0.87233557       0.89602349       0.36104044 </v>
    <v>       0.88908804       0.13797289       0.61044097 </v>
    <v>       0.88908804       0.61044097       0.13797289 </v>
    <v>       0.87233557       0.36104044       0.89602349 </v>
    <v>       0.12030797       0.60598271       0.87880819 </v>
    <v>       0.12571579       0.36307411       0.12979656 </v>
    <v>       0.62400389       0.09677917       0.85005731 </v>
    <v>       0.62400389       0.85005731       0.09677917 </v>
    <v>       0.42834220       0.12558262       0.12558262 </v>
    <v>       0.35522716       0.87959381       0.87959381 </v>
    <v>       0.62560957       0.63007210       0.37788808 </v>
    <v>       0.62560957       0.37788808       0.63007210 </v>
    <v>       0.38371172       0.62054381       0.62054381 </v>
    <v>       0.40785069       0.36928420       0.36928420 </v>
    <v>       0.76358816       0.74359261       0.74359261 </v>
    <v>       0.76659295       0.24207974       0.24207974 </v>
    <v>       0.25378358       0.75323551       0.25525685 </v>
    <v>       0.25378358       0.25525685       0.75323551 </v>
    <v>       0.99773918       0.97233618       0.97233618 </v>
    <v>       0.04539089       0.49565774       0.49565774 </v>
    <v>       0.51123052       0.99604516       0.48239015 </v>
    <v>       0.51123052       0.48239015       0.99604516 </v>
   </varray>
  </structure>
  <varray name="forces" >
   <v>      -0.00038054       0.00035832       0.00035832 </v>
   <v>       0.00006468       0.00024397       0.00024397 </v>
   <v>      -0.00024654      -0.00007021      -0.00057565 </v>
   <v>      -0.00024654      -0.00057565      -0.00007021 </v>
   <v>       0.00027865       0.00030474      -0.00001863 </v>
   <v>      -0.00021632       0.00013707       0.00034790 </v>
   <v>       0.00053614      -0.00040268      -0.00043407 </v>
   <v>       0.00001521      -0.00000285       0.00000939 </v>
   <v>       0.00027865      -0.00001863       0.00030474 </v>
   <v>      -0.00021632       0.00034790       0.00013707 </v>
   <v>       0.00001521       0.00000939      -0.00000285 </v>
   <v>       0.00053614      -0.00043407      -0.00040268 </v>
   <v>      -0.00031514      -0.00002106       0.00031914 </v>
   <v>       0.00016829       0.00011454      -0.00003036 </v>
   <v>       0.00014555       0.00010414       0.00000192 </v>
   <v>      -0.00108106      -0.00056786      -0.00035449 </v>
   <v>      -0.00031514       0.00031914      -0.00002106 </v>
   <v>       0.00016829      -0.00003036       0.00011454 </v>
   <v>      -0.00108106      -0.00035449      -0.00056786 </v>
   <v>       0.00014555       0.00000192       0.00010414 </v>
   <v>      -0.00010584       0.00049364       0.00014123 </v>
   <v>      -0.00010584       0.00014123       0.00049364 </v>
   <v>       0.00031363       0.00023256       0.00023256 </v>
   <v>       0.00022225       0.00043964       0.00043964 </v>
   <v>       0.00022179       0.00021076       0.00021076 </v>
   <v>      -0.00041563       0.00002430       0.00002430 </v>
   <v>      -0.00005677       0.00007867      -0.00006321 </v>
   <v>      -0.00005677      -0.00006321       0.00007867 </v>
   <v>       0.00009282       0.00013818       0.00046873 </v>
   <v>      -0.00004963       0.00036217       0.00014773 </v>
   <v>       0.00004446      -0.00008960      -0.00007775 </v>
   <v>      -0.00037585       0.00005457      -0.00048851 </v>
   <v>      -0.00037585      -0.00048851       0.00005457 </v>
   <v>       0.00004446      -0.00007775      -0.00008960 </v>
   <v>       0.00009282       0.00046873       0.00013818 </v>
   <v>      -0.00004963       0.00014773       0.00036217 </v>
   <v>      -0.00007033      -0.00016675      -0.00005615 </v>
   <v>      -0.00007033      -0.00005615      -0.00016675 </v>
   <v>       0.00021034       0.00002645       0.00002645 </v>
   <v>      -0.00033221      -0.00009493      -0.00009493 </v>
   <v>       0.00042125      -0.00003793      -0.00016997 </v>
   <v>       0.00042125      -0.00016997      -0.00003793 </v>
   <v>       0.00044858       0.00020312       0.00020312 </v>
   <v>       0.00019022       0.00016923       0.00016923 </v>
   <v>       0.00002155       0.00015065       0.00015065 </v>
   <v>      -0.00004218      -0.00015173      -0.00015173 </v>
   <v>      -0.00007713      -0.00003634       0.00033419 </v>
   <v>      -0.00007713       0.00033419      -0.00003634 </v>
   <v>      -0.00010910      -0.00063735      -0.00063735 </v>
   <v>       0.00054815      -0.00057619      -0.00057619 </v>
   <v>       0.00041151      -0.00013078      -0.00036190 </v>
   <v>       0.00041151      -0.00036190      -0.00013078 </v>
  </varray>
  <varray name="stress" >
   <v>      -2.93841834      -3.59872755      -3.59872755 </v>
   <v>      -3.59872684      -0.29431250      -0.66655908 </v>
   <v>      -3.59872684      -0.66655908      -0.29431250 </v>
  </varray>
  <energy>
   <i name="e_fr_energy">   -272.16041034 </i>
   <i name="e_wo_entrp">   -272.16041034 </i>
   <i name="e_0_energy">   -272.16041034 </i>
  </energy>
  <time name="totalsc">    6.44    6.58</time>
 </calculation>
 <calculation>
  <scstep>
   <time name="dav">    1.58    1.60</time>
   <time name="total">    2.16    2.20</time>
   <energy>
    <i name="alphaZ">    299.57216437 </i>
    <i name="ewald">  -8798.56742304 </i>
    <i name="hartreedc">  -2220.52232280 </i>
    <i name="XCdc">    537.66254696 </i>
    <i name="pawpsdc">   9805.56750630 </i>
    <i name="pawaedc">  -9949.53969329 </i>
    <i name="eentropy">     -0.00000000 </i>
    <i name="bandstr">  -2635.97175438 </i>
    <i name="atom">  12703.13999606 </i>
    <i name="e_fr_energy">   -258.65897981 </i>
    <i name="e_wo_entrp">   -258.65897981 </i>
    <i name="e_0_energy">   -258.65897981 </i>
   </energy>
  </scstep>
  <scstep>
   <time name="diag">    0.27    0.27</time>
   <time name="diis">    0.61    0.61</time>
   <time name="orth">    0.05    0.05</time>
   <time name="total">    1.39    1.40</time>
   <energy>
    <i name="alphaZ">    299.57216437 </i>
    <i name="ewald">  -8798.56742304 </i>
    <i name="hartreedc">  -2220.52206439 </i>
    <i name="XCdc">    537.66243226 </i>
    <i name="pawpsdc">   9805.55232764 </i>
    <i name="pawaedc">  -9949.52433359 </i>
    <i name="eentropy">     -0.00000000 </i>
    <i name="bandstr">  -2635.97207919 </i>
    <i name="atom">  12703.13999606 </i>
    <i name="e_fr_energy">   -258.65897987 </i>
    <i name="e_wo_entrp">   -258.65897987 </i>
    <i name="e_0_energy">   -258.65897987 </i>
   </energy>
  </scstep>
  <structure>
   <crystal>
    <varray name="basis" >
     <v>       9.67683787       0.00000000       0.00000000 </v>
     <v>       0.00000000       9.67683787       0.00000000 </v>
     <v>       0.00000000       0.00000000       9.67683787 </v>
    </varray>
    <i name="volume">    906.15062401 </i>
    <varray name="rec_basis" >
     <v>       0.10333954       0.00000000       0.00000000 </v>
     <v>       0.00000000       0.10333954       0.00000000 </v>
     <v>       0.00000000       0.00000000       0.10333954 </v>
    </varray>
   </crystal>
   <varray name="positions" >
    <v>       0.96499205       0.33551053       0.33551053 </v>
    <v>       0.98253227       0.67381752       0.67381752 </v>
    <v>       0.02667758       0.32854687       0.70944146 </v>
    <v>       0.02667758       0.70944146       0.32854687 </v>
    <v>       0.30889983       0.28089224       0.98621544 </v>
    <v>       0.17127051       0.79767514       0.03451260 </v>
    <v>       0.65398749       0.26483502       0.02876304 </v>
    <v>       0.82869947       0.78354953       0.97470868 </v>
    <v>       0.30889983       0.98621544       0.28089224 </v>
    <v>       0.17127051       0.03451260       0.79767514 </v>
    <v>       0.82869947       0.97470868       0.78354953 </v>
    <v>       0.65398749       0.02876304       0.26483502 </v>
    <v>       0.32746786       0.80689664       0.47962875 </v>
    <v>       0.22975336       0.29889101       0.51937284 </v>
    <v>       0.69988755       0.81811207       0.52189233 </v>
    <v>       0.69816207       0.21296147       0.46760349 </v>
    <v>       0.32746786       0.47962875       0.80689664 </v>
    <v>       0.22975336       0.51937284       0.29889101 </v>
    <v>       0.69816207       0.46760349       0.21296147 </v>
    <v>       0.69988755       0.52189233       0.81811207 </v>
    <v>       0.46659610       0.17349738       0.67264136 </v>
    <v>       0.46659610       0.67264136       0.17349738 </v>
    <v>       0.96650094       0.14265813       0.14265813 </v>
    <v>       0.52909813       0.76088059       0.76088059 </v>
    <v>       0.51128302       0.49932418       0.49932418 </v>
    <v>       0.50449281       0.98581569       0.98581569 </v>
    <v>       0.00121021       0.48598726       0.00766342 </v>
    <v>       0.00121021       0.00766342       0.48598726 </v>
    <v>       0.12030861       0.87880808       0.60598400 </v>
    <v>       0.12571571       0.12979727       0.36307421 </v>
    <v>       0.87233602       0.89602350       0.36104005 </v>
    <v>       0.88908724       0.13797289       0.61043919 </v>
    <v>       0.88908724       0.61043919       0.13797289 </v>
    <v>       0.87233602       0.36104005       0.89602350 </v>
    <v>       0.12030861       0.60598400       0.87880808 </v>
    <v>       0.12571571       0.36307421       0.12979727 </v>
    <v>       0.62400393       0.09677863       0.85005661 </v>
    <v>       0.62400393       0.85005661       0.09677863 </v>
    <v>       0.42834258       0.12558270       0.12558270 </v>
    <v>       0.35522642       0.87959370       0.87959370 </v>
    <v>       0.62561114       0.63007170       0.37788750 </v>
    <v>       0.62561114       0.37788750       0.63007170 </v>
    <v>       0.38371310       0.62054408       0.62054408 </v>
    <v>       0.40785182       0.36928394       0.36928394 </v>
    <v>       0.76358843       0.74359253       0.74359253 </v>
    <v>       0.76659278       0.24207890       0.24207890 </v>
    <v>       0.25378326       0.75323561       0.25525747 </v>
    <v>       0.25378326       0.25525747       0.75323561 </v>
    <v>       0.99773912       0.97233786       0.97233786 </v>
    <v>       0.04539090       0.49565868       0.49565868 </v>
    <v>       0.51123029       0.99604608       0.48239009 </v>
    <v>       0.51123029       0.48239009       0.99604608 </v>
   </varray>
  </structure>
  <varray name="forces" >
   <v>      -0.00042020       0.00037425       0.00037425 </v>
   <v>       0.00008183       0.00023656       0.00023656 </v>
   <v>      -0.00030106      -0.00006857      -0.00066434 </v>
   <v>      -0.00030106      -0.00066434      -0.00006857 </v>
   <v>       0.00028503       0.00034215       0.00000809 </v>
   <v>      -0.00022360       0.00016316       0.00036244 </v>
   <v>       0.00066147      -0.00049102      -0.00052080 </v>
   <v>       0.00002137       0.00001001       0.00005097 </v>
   <v>       0.00028503       0.00000809       0.00034215 </v>
   <v>      -0.00022360       0.00036244       0.00016316 </v>
   <v>       0.00002137       0.00005097       0.00001001 </v>
   <v>       0.00066147      -0.00052080      -0.00049102 </v>
   <v>      -0.00035100       0.00000041       0.00035567 </v>
   <v>       0.00017529       0.00010298      -0.00003593 </v>
   <v>       0.00016962       0.00009786      -0.00000155 </v>
   <v>      -0.00131673      -0.00070186      -0.00044017 </v>
   <v>      -0.00035100       0.00035567       0.00000041 </v>
   <v>       0.00017529      -0.00003593       0.00010298 </v>
   <v>      -0.00131673      -0.00044017      -0.00070186 </v>
   <v>       0.00016962      -0.00000155       0.00009786 </v>
   <v>      -0.00009264       0.00051377       0.00014598 </v>
   <v>      -0.00009264       0.00014598       0.00051377 </v>
   <v>       0.00035491       0.00025419       0.00025419 </v>
   <v>       0.00025480       0.00046383       0.00046383 </v>
   <v>       0.00044801       0.00002721       0.00002721 </v>
   <v>      -0.00013158       0.00001554       0.00001554 </v>
   <v>       0.00024495       0.00007733      -0.00010845 </v>
   <v>       0.00024495      -0.00010845       0.00007733 </v>
   <v>      -0.00005413       0.00029712       0.00034531 </v>
   <v>      -0.00007225       0.00022490       0.00019612 </v>
   <v>       0.00006179      -0.00014791      -0.00011831 </v>
   <v>      -0.00044300       0.00008734      -0.00040092 </v>
   <v>      -0.00044300      -0.00040092       0.00008734 </v>
   <v>       0.00006179      -0.00011831      -0.00014791 </v>
   <v>      -0.00005413       0.00034531       0.00029712 </v>
   <v>      -0.00007225       0.00019612       0.00022490 </v>
   <v>      -0.00017026      -0.00023525      -0.00000478 </v>
   <v>      -0.00017026      -0.00000478      -0.00023525 </v>
   <v>       0.00015337       0.00002105       0.00002105 </v>
   <v>      -0.00033752      -0.00007207      -0.00007207 </v>
   <v>       0.00038435      -0.00011670      -0.00004546 </v>
   <v>       0.00038435      -0.00004546      -0.00011670 </v>
   <v>       0.00042623       0.00025560       0.00025560 </v>
   <v>       0.00026319       0.00021716       0.00021716 </v>
   <v>       0.00005512       0.00011455       0.00011455 </v>
   <v>      -0.00005221      -0.00019456      -0.00019456 </v>
   <v>      -0.00010674      -0.00000945       0.00035223 </v>
   <v>      -0.00010674       0.00035223      -0.00000945 </v>
   <v>      -0.00007897      -0.00049245      -0.00049245 </v>
   <v>       0.00048163      -0.00045547      -0.00045547 </v>
   <v>       0.00037825      -0.00004414      -0.00034362 </v>
   <v>       0.00037825      -0.00034362      -0.00004414 </v>
  </varray>
  <varray name="stress" >
   <v>      -2.94387216      -3.59893085      -3.59893085 </v>
   <v>      -3.59893024      -0.29955179      -0.66482201 </v>
   <v>      -3.59893024      -0.66482201      -0.29955179 </v>
  </varray>
  <energy>
   <i name="e_fr_energy">   -272.16041083 </i>
   <i name="e_wo_entrp">   -272.16041083 </i>
   <i name="e_0_energy">   -272.16041083 </i>
  </energy>
  <time name="totalsc">    6.29    6.38</time>
 </calculation>
 <calculation>
  <scstep>
   <time name="dav">    1.75    1.76</time>
   <time name="total">    2.32    2.34</time>
   <energy>
    <i name="alphaZ">    299.57216437 </i>
    <i name="ewald">  -8798.57679872 </i>
    <i name="hartreedc">  -2220.51434301 </i>
    <i name="XCdc">    537.66220848 </i>
    <i name="pawpsdc">   9805.54408164 </i>
    <i name="pawaedc">  -9949.51601798 </i>
    <i name="eentropy">     -0.00000000 </i>
    <i name="bandstr">  -2635.97027072 </i>
    <i name="atom">  12703.13999606 </i>
    <i name="e_fr_energy">   -258.65897987 </i>
    <i name="e_wo_entrp">   -258.65897987 </i>
    <i name="e_0_energy">   -258.65897987 </i>
   </energy>
  </scstep>
  <scstep>
   <time name="diag">    0.27    0.27</time>
   <time name="diis">    0.63    0.64</time>
   <time name="orth">    0.05    0.05</time>
   <time name="total">    1.41    1.42</time>
   <energy>
    <i name="alphaZ">    299.57216437 </i>
    <i name="ewald">  -8798.57679872 </i>
    <i name="hartreedc">  -2220.51379545 </i>
    <i name="XCdc">    537.66215351 </i>
    <i name="pawpsdc">   9805.53277283 </i>
    <i name="pawaedc">  -9949.50465771 </i>
    <i name="eentropy">     -0.00000000 </i>
    <i name="bandstr">  -2635.97081503 </i>
    <i name="atom">  12703.13999606 </i>
    <i name="e_fr_energy">   -258.65898014 </i>
    <i name="e_wo_entrp">   -258.65898014 </i>
    <i name="e_0_energy">   -258.65898014 </i>
   </energy>
  </scstep>
  <structure>
   <crystal>
    <varray name="basis" >
     <v>       9.67683787       0.00000000       0.00000000 </v>
     <v>       0.00000000       9.67683787       0.00000000 </v>
     <v>       0.00000000       0.00000000       9.67683787 </v>
    </varray>
    <i name="volume">    906.15062401 </i>
    <varray name="rec_basis" >
     <v>       0.10333954       0.00000000       0.00000000 </v>
     <v>       0.00000000       0.10333954       0.00000000 </v>
     <v>       0.00000000       0.00000000       0.10333954 </v>
    </varray>
   </crystal>
   <varray name="positions" >
    <v>       0.96499001       0.33551207       0.33551207 </v>
    <v>       0.98253270       0.67381855       0.67381855 </v>
    <v>       0.02667629       0.32854612       0.70943809 </v>
    <v>       0.02667629       0.70943809       0.32854612 </v>
    <v>       0.30890147       0.28089373       0.98621493 </v>
    <v>       0.17126960       0.79767545       0.03451430 </v>
    <v>       0.65399066       0.26483255       0.02876048 </v>
    <v>       0.82869945       0.78354929       0.97470848 </v>
    <v>       0.30890147       0.98621493       0.28089373 </v>
    <v>       0.17126960       0.03451430       0.79767545 </v>
    <v>       0.82869945       0.97470848       0.78354929 </v>
    <v>       0.65399066       0.02876048       0.26483255 </v>
    <v>       0.32746613       0.80689615       0.47963031 </v>
    <v>       0.22975433       0.29889116       0.51937248 </v>
    <v>       0.69988872       0.81811235       0.52189220 </v>
    <v>       0.69815649       0.21295811       0.46760165 </v>
    <v>       0.32746613       0.47963031       0.80689615 </v>
    <v>       0.22975433       0.51937248       0.29889116 </v>
    <v>       0.69815649       0.46760165       0.21295811 </v>
    <v>       0.69988872       0.52189220       0.81811235 </v>
    <v>       0.46659552       0.17349979       0.67264185 </v>
    <v>       0.46659552       0.67264185       0.17349979 </v>
    <v>       0.96650278       0.14265902       0.14265902 </v>
    <v>       0.52909914       0.76088260       0.76088260 </v>
    <v>       0.51128353       0.49932530       0.49932530 </v>
    <v>       0.50449039       0.98581549       0.98581549 </v>
    <v>       0.00120896       0.48598711       0.00766327 </v>
    <v>       0.00120896       0.00766327       0.48598711 </v>
    <v>       0.12030989       0.87880786       0.60598659 </v>
    <v>       0.12571555       0.12979870       0.36307441 </v>
    <v>       0.87233693       0.89602352       0.36103927 </v>
    <v>       0.88908564       0.13797289       0.61043565 </v>
    <v>       0.88908564       0.61043565       0.13797289 </v>
    <v>       0.87233693       0.36103927       0.89602352 </v>
    <v>       0.12030989       0.60598659       0.87880786 </v>
    <v>       0.12571555       0.36307441       0.12979870 </v>
    <v>       0.62400403       0.09677755       0.85005520 </v>
    <v>       0.62400403       0.85005520       0.09677755 </v>
    <v>       0.42834336       0.12558285       0.12558285 </v>
    <v>       0.35522493       0.87959349       0.87959349 </v>
    <v>       0.62561429       0.63007090       0.37788635 </v>
    <v>       0.62561429       0.37788635       0.63007090 </v>
    <v>       0.38371586       0.62054463       0.62054463 </v>
    <v>       0.40785407       0.36928343       0.36928343 </v>
    <v>       0.76358897       0.74359238       0.74359238 </v>
    <v>       0.76659243       0.24207721       0.24207721 </v>
    <v>       0.25378261       0.75323581       0.25525872 </v>
    <v>       0.25378261       0.25525872       0.75323581 </v>
    <v>       0.99773901       0.97234121       0.97234121 </v>
    <v>       0.04539092       0.49566054       0.49566054 </v>
    <v>       0.51122981       0.99604792       0.48238998 </v>
    <v>       0.51122981       0.48238998       0.99604792 </v>
   </varray>
  </structure>
  <varray name="forces" >
   <v>      -0.00026334       0.00023399       0.00023399 </v>
   <v>       0.00008268       0.00014767       0.00014767 </v>
   <v>      -0.00016510       0.00003246      -0.00027194 </v>
   <v>      -0.00016510      -0.00027194       0.00003246 </v>
   <v>       0.00013206       0.00022201       0.00011332 </v>
   <v>      -0.00014704       0.00016184       0.00020448 </v>
   <v>       0.00034235      -0.00022236      -0.00024634 </v>
   <v>       0.00005846       0.00003943       0.00009794 </v>
   <v>       0.00013206       0.00011332       0.00022201 </v>
   <v>      -0.00014704       0.00020448       0.00016184 </v>
   <v>       0.00005846       0.00009794       0.00003943 </v>
   <v>       0.00034235      -0.00024634      -0.00022236 </v>
   <v>      -0.00022060       0.00007166       0.00021646 </v>
   <v>       0.00012239       0.00008544      -0.00002228 </v>
   <v>       0.00005755       0.00006346      -0.00001087 </v>
   <v>      -0.00075805      -0.00036033      -0.00032084 </v>
   <v>      -0.00022060       0.00021646       0.00007166 </v>
   <v>       0.00012239      -0.00002228       0.00008544 </v>
   <v>      -0.00075805      -0.00032084      -0.00036033 </v>
   <v>       0.00005755      -0.00001087       0.00006346 </v>
   <v>      -0.00000347       0.00030338       0.00011293 </v>
   <v>      -0.00000347       0.00011293       0.00030338 </v>
   <v>       0.00018796       0.00021679       0.00021679 </v>
   <v>       0.00021105       0.00028245       0.00028245 </v>
   <v>       0.00084226      -0.00026554      -0.00026554 </v>
   <v>       0.00037880       0.00000637       0.00000637 </v>
   <v>       0.00085485       0.00011844      -0.00023048 </v>
   <v>       0.00085485      -0.00023048       0.00011844 </v>
   <v>      -0.00043909       0.00057818      -0.00011344 </v>
   <v>      -0.00009072      -0.00008256       0.00027045 </v>
   <v>      -0.00007664      -0.00029602      -0.00012524 </v>
   <v>      -0.00039610       0.00015643       0.00014523 </v>
   <v>      -0.00039610       0.00014523       0.00015643 </v>
   <v>      -0.00007664      -0.00012524      -0.00029602 </v>
   <v>      -0.00043909      -0.00011344       0.00057818 </v>
   <v>      -0.00009072       0.00027045      -0.00008256 </v>
   <v>      -0.00034547      -0.00022084       0.00027787 </v>
   <v>      -0.00034547       0.00027787      -0.00022084 </v>
   <v>       0.00002522       0.00001543       0.00001543 </v>
   <v>      -0.00024631      -0.00005949      -0.00005949 </v>
   <v>      -0.00004087      -0.00010392       0.00022084 </v>
   <v>      -0.00004087       0.00022084      -0.00010392 </v>
   <v>       0.00002749       0.00029405       0.00029405 </v>
   <v>       0.00007204       0.00040901       0.00040901 </v>
   <v>       0.00003190       0.00013456       0.00013456 </v>
   <v>      -0.00000232      -0.00001604      -0.00001604 </v>
   <v>      -0.00003212      -0.00005057       0.00022018 </v>
   <v>      -0.00003212       0.00022018      -0.00005057 </v>
   <v>      -0.00043201      -0.00107946      -0.00107946 </v>
   <v>       0.00047464      -0.00071928      -0.00071928 </v>
   <v>       0.00045259      -0.00029309      -0.00034182 </v>
   <v>       0.00045259      -0.00034182      -0.00029309 </v>
  </varray>
  <varray name="stress" >
   <v>      -2.94578877      -3.59940969      -3.59940969 </v>
   <v>      -3.59940910      -0.30173914      -0.66082631 </v>
   <v>      -3.59940910      -0.66082631      -0.30173914 </v>
  </varray>
  <energy>
   <i name="e_fr_energy">   -272.16041157 </i>
   <i name="e_wo_entrp">   -272.16041157 </i>
   <i name="e_0_energy">   -272.16041157 </i>
  </energy>
  <time name="totalsc">    6.46    6.54</time>
 </calculation>
 <calculation>
  <scstep>
   <time name="dav">    1.49    1.51</time>
   <time name="total">    2.06    2.10</time>
   <energy>
    <i name="alphaZ">    299.57216437 </i>
    <i name="ewald">  -8798.57910216 </i>
    <i name="hartreedc">  -2220.51166209 </i>
    <i name="XCdc">    537.66207326 </i>
    <i name="pawpsdc">   9805.52577715 </i>
    <i name="pawaedc">  -9949.49761632 </i>
    <i name="eentropy">     -0.00000000 </i>
    <i name="bandstr">  -2635.97061049 </i>
    <i name="atom">  12703.13999606 </i>
    <i name="e_fr_energy">   -258.65898023 </i>
    <i name="e_wo_entrp">   -258.65898023 </i>
    <i name="e_0_energy">   -258.65898023 </i>
   </energy>
  </scstep>
  <scstep>
   <time name="diag">    0.27    0.27</time>
   <time name="diis">    0.56    0.56</time>
   <time name="orth">    0.05    0.05</time>
   <time name="total">    1.34    1.35</time>
   <energy>
    <i name="alphaZ">    299.57216437 </i>
    <i name="ewald">  -8798.57910216 </i>
    <i name="hartreedc">  -2220.51149751 </i>
    <i name="XCdc">    537.66205982 </i>
    <i name="pawpsdc">   9805.52182396 </i>
    <i name="pawaedc">  -9949.49363919 </i>
    <i name="eentropy">     -0.00000000 </i>
    <i name="bandstr">  -2635.97078563 </i>
    <i name="atom">  12703.13999606 </i>
    <i name="e_fr_energy">   -258.65898028 </i>
    <i name="e_wo_entrp">   -258.65898028 </i>
    <i name="e_0_energy">   -258.65898028 </i>
   </energy>
  </scstep>
  <structure>
   <crystal>
    <varray name="basis" >
     <v>       9.67683787       0.00000000       0.00000000 </v>
     <v>       0.00000000       9.67683787       0.00000000 </v>
     <v>       0.00000000       0.00000000       9.67683787 </v>
    </varray>
    <i name="volume">    906.15062401 </i>
    <varray name="rec_basis" >
     <v>       0.10333954       0.00000000       0.00000000 </v>
     <v>       0.00000000       0.10333954       0.00000000 </v>
     <v>       0.00000000       0.00000000       0.10333954 </v>
    </varray>
   </crystal>
   <varray name="positions" >
    <v>       0.96498950       0.33551245       0.33551245 </v>
    <v>       0.98253280       0.67381881       0.67381881 </v>
    <v>       0.02667597       0.32854593       0.70943727 </v>
    <v>       0.02667597       0.70943727       0.32854593 </v>
    <v>       0.30890187       0.28089409       0.98621480 </v>
    <v>       0.17126938       0.79767552       0.03451471 </v>
    <v>       0.65399144       0.26483195       0.02875986 </v>
    <v>       0.82869944       0.78354923       0.97470843 </v>
    <v>       0.30890187       0.98621480       0.28089409 </v>
    <v>       0.17126938       0.03451471       0.79767552 </v>
    <v>       0.82869944       0.97470843       0.78354923 </v>
    <v>       0.65399144       0.02875986       0.26483195 </v>
    <v>       0.32746571       0.80689603       0.47963069 </v>
    <v>       0.22975457       0.29889120       0.51937240 </v>
    <v>       0.69988901       0.81811242       0.52189216 </v>
    <v>       0.69815511       0.21295729       0.46760120 </v>
    <v>       0.32746571       0.47963069       0.80689603 </v>
    <v>       0.22975457       0.51937240       0.29889120 </v>
    <v>       0.69815511       0.46760120       0.21295729 </v>
    <v>       0.69988901       0.52189216       0.81811242 </v>
    <v>       0.46659537       0.17350038       0.67264197 </v>
    <v>       0.46659537       0.67264197       0.17350038 </v>
    <v>       0.96650323       0.14265924       0.14265924 </v>
    <v>       0.52909939       0.76088309       0.76088309 </v>
    <v>       0.51128365       0.49932557       0.49932557 </v>
    <v>       0.50448980       0.98581544       0.98581544 </v>
    <v>       0.00120865       0.48598708       0.00766323 </v>
    <v>       0.00120865       0.00766323       0.48598708 </v>
    <v>       0.12031021       0.87880780       0.60598722 </v>
    <v>       0.12571551       0.12979905       0.36307446 </v>
    <v>       0.87233716       0.89602352       0.36103908 </v>
    <v>       0.88908524       0.13797289       0.61043478 </v>
    <v>       0.88908524       0.61043478       0.13797289 </v>
    <v>       0.87233716       0.36103908       0.89602352 </v>
    <v>       0.12031021       0.60598722       0.87880780 </v>
    <v>       0.12571551       0.36307446       0.12979905 </v>
    <v>       0.62400405       0.09677728       0.85005486 </v>
    <v>       0.62400405       0.85005486       0.09677728 </v>
    <v>       0.42834355       0.12558288       0.12558288 </v>
    <v>       0.35522456       0.87959344       0.87959344 </v>
    <v>       0.62561506       0.63007071       0.37788607 </v>
    <v>       0.62561506       0.37788607       0.63007071 </v>
    <v>       0.38371654       0.62054477       0.62054477 </v>
    <v>       0.40785463       0.36928330       0.36928330 </v>
    <v>       0.76358910       0.74359234       0.74359234 </v>
    <v>       0.76659235       0.24207680       0.24207680 </v>
    <v>       0.25378246       0.75323586       0.25525903 </v>
    <v>       0.25378246       0.25525903       0.75323586 </v>
    <v>       0.99773899       0.97234203       0.97234203 </v>
    <v>       0.04539092       0.49566100       0.49566100 </v>
    <v>       0.51122970       0.99604837       0.48238995 </v>
    <v>       0.51122970       0.48238995       0.99604837 </v>
   </varray>
  </structure>
  <varray name="forces" >
   <v>      -0.00059276       0.00043929       0.00043929 </v>
   <v>       0.00015307       0.00021872       0.00021872 </v>
   <v>      -0.00033164      -0.00010124      -0.00078499 </v>
   <v>      -0.00033164      -0.00078499      -0.00010124 </v>
   <v>       0.00040292       0.00043730       0.00002807 </v>
   <v>      -0.00020562       0.00018247       0.00036196 </v>
   <v>       0.00081046      -0.00059588      -0.00064981 </v>
   <v>       0.00009971      -0.00001864       0.00007349 </v>
   <v>       0.00040292       0.00002807       0.00043730 </v>
   <v>      -0.00020562       0.00036196       0.00018247 </v>
   <v>       0.00009971       0.00007349      -0.00001864 </v>
   <v>       0.00081046      -0.00064981      -0.00059588 </v>
   <v>      -0.00043988      -0.00001822       0.00042181 </v>
   <v>       0.00024829       0.00008210      -0.00008173 </v>
   <v>       0.00019022       0.00006364      -0.00004740 </v>
   <v>      -0.00157125      -0.00089184      -0.00065391 </v>
   <v>      -0.00043988       0.00042181      -0.00001822 </v>
   <v>       0.00024829      -0.00008173       0.00008210 </v>
   <v>      -0.00157125      -0.00065391      -0.00089184 </v>
   <v>       0.00019022      -0.00004740       0.00006364 </v>
   <v>      -0.00006554       0.00064321       0.00016612 </v>
[...]
       <r>     7.9529    10.7993   144.4628 </r>
       <r>     8.1456    15.6297   147.4743 </r>
       <r>     8.3383    13.4221   150.0623 </r>
       <r>     8.5310    16.4516   153.2325 </r>
       <r>     8.7236    12.0809   155.5612 </r>
       <r>     8.9163    17.3609   158.9091 </r>
       <r>     9.1090    15.1706   161.8341 </r>
       <r>     9.3017    22.2771   166.1272 </r>
       <r>     9.4943    14.9342   169.0070 </r>
       <r>     9.6870    17.0662   172.2961 </r>
       <r>     9.8797    14.8410   175.1655 </r>
       <r>    10.0724     4.3274   176.0000 </r>
       <r>    10.2651     0.0000   176.0000 </r>
       <r>    10.4577     0.0000   176.0000 </r>
       <r>    10.6504     0.0000   176.0000 </r>
       <r>    10.8431     0.0000   176.0000 </r>
       <r>    11.0358     0.0000   176.0000 </r>
       <r>    11.2284     0.0000   176.0000 </r>
       <r>    11.4211     0.0000   176.0000 </r>
       <r>    11.6138     0.0000   176.0000 </r>
       <r>    11.8065     0.0000   176.0000 </r>
       <r>    11.9991     0.0000   176.0000 </r>
       <r>    12.1918     0.0000   176.0000 </r>
       <r>    12.3845     0.0000   176.0000 </r>
       <r>    12.5772     0.0000   176.0000 </r>
      </set>
      <set comment="spin 2">
       <r>   -45.2258     0.0000     0.0000 </r>
       <r>   -45.0331     0.0000     0.0000 </r>
       <r>   -44.8405     0.0000     0.0000 </r>
       <r>   -44.6478     0.0000     0.0000 </r>
       <r>   -44.4551     0.0000     0.0000 </r>
       <r>   -44.2624     0.0000     0.0000 </r>
       <r>   -44.0697     0.0000     0.0000 </r>
       <r>   -43.8771     0.0000     0.0000 </r>
       <r>   -43.6844     0.0000     0.0000 </r>
       <r>   -43.4917     0.0000     0.0000 </r>
       <r>   -43.2990     0.0000     0.0000 </r>
       <r>   -43.1064     0.0000     0.0000 </r>
       <r>   -42.9137     0.0000     0.0000 </r>
       <r>   -42.7210     0.0000     0.0000 </r>
       <r>   -42.5283    11.8394     2.2812 </r>
       <r>   -42.3357    94.3803    20.4665 </r>
       <r>   -42.1430    18.3383    24.0000 </r>
       <r>   -41.9503     0.0000    24.0000 </r>
       <r>   -41.7576     0.0000    24.0000 </r>
       <r>   -41.5650     0.0000    24.0000 </r>
       <r>   -41.3723     0.0000    24.0000 </r>
       <r>   -41.1796     0.0000    24.0000 </r>
       <r>   -40.9869     0.0000    24.0000 </r>
       <r>   -40.7942     0.0000    24.0000 </r>
       <r>   -40.6016     0.0000    24.0000 </r>
       <r>   -40.4089     0.0000    24.0000 </r>
       <r>   -40.2162     0.0000    24.0000 </r>
       <r>   -40.0235     0.0000    24.0000 </r>
       <r>   -39.8309     0.0000    24.0000 </r>
       <r>   -39.6382     0.0000    24.0000 </r>
       <r>   -39.4455     0.0000    24.0000 </r>
       <r>   -39.2528     0.0000    24.0000 </r>
       <r>   -39.0602     0.0000    24.0000 </r>
       <r>   -38.8675     0.0000    24.0000 </r>
       <r>   -38.6748     0.0000    24.0000 </r>
       <r>   -38.4821     0.0000    24.0000 </r>
       <r>   -38.2894     0.0000    24.0000 </r>
       <r>   -38.0968     0.0000    24.0000 </r>
       <r>   -37.9041     0.0000    24.0000 </r>
       <r>   -37.7114     0.0000    24.0000 </r>
       <r>   -37.5187     0.0000    24.0000 </r>
       <r>   -37.3261     0.0000    24.0000 </r>
       <r>   -37.1334     0.0000    24.0000 </r>
       <r>   -36.9407     0.0000    24.0000 </r>
       <r>   -36.7480     0.0000    24.0000 </r>
       <r>   -36.5554     0.0000    24.0000 </r>
       <r>   -36.3627     0.0000    24.0000 </r>
       <r>   -36.1700     0.0000    24.0000 </r>
       <r>   -35.9773     0.0000    24.0000 </r>
       <r>   -35.7847     0.0000    24.0000 </r>
       <r>   -35.5920     0.0000    24.0000 </r>
       <r>   -35.3993     0.0000    24.0000 </r>
       <r>   -35.2066     0.0000    24.0000 </r>
       <r>   -35.0139     0.0000    24.0000 </r>
       <r>   -34.8213     0.0000    24.0000 </r>
       <r>   -34.6286     0.0000    24.0000 </r>
       <r>   -34.4359     0.0000    24.0000 </r>
       <r>   -34.2432     0.0000    24.0000 </r>
       <r>   -34.0506     0.0000    24.0000 </r>
       <r>   -33.8579     0.0000    24.0000 </r>
       <r>   -33.6652     0.0000    24.0000 </r>
       <r>   -33.4725     0.0000    24.0000 </r>
       <r>   -33.2799     0.0000    24.0000 </r>
       <r>   -33.0872     0.0000    24.0000 </r>
       <r>   -32.8945     0.0000    24.0000 </r>
       <r>   -32.7018     0.0000    24.0000 </r>
       <r>   -32.5092     0.0000    24.0000 </r>
       <r>   -32.3165     0.0000    24.0000 </r>
       <r>   -32.1238     0.0000    24.0000 </r>
       <r>   -31.9311     0.0000    24.0000 </r>
       <r>   -31.7384     0.0000    24.0000 </r>
       <r>   -31.5458     0.0000    24.0000 </r>
       <r>   -31.3531     0.0000    24.0000 </r>
       <r>   -31.1604     0.0000    24.0000 </r>
       <r>   -30.9677     0.0000    24.0000 </r>
       <r>   -30.7751     0.0000    24.0000 </r>
       <r>   -30.5824     0.0000    24.0000 </r>
       <r>   -30.3897     0.0000    24.0000 </r>
       <r>   -30.1970     0.0000    24.0000 </r>
       <r>   -30.0044     0.0000    24.0000 </r>
       <r>   -29.8117     0.0000    24.0000 </r>
       <r>   -29.6190     0.0000    24.0000 </r>
       <r>   -29.4263     0.0000    24.0000 </r>
       <r>   -29.2336     0.0000    24.0000 </r>
       <r>   -29.0410     0.0000    24.0000 </r>
       <r>   -28.8483     0.0000    24.0000 </r>
       <r>   -28.6556     0.0000    24.0000 </r>
       <r>   -28.4629     0.0000    24.0000 </r>
       <r>   -28.2703     0.0000    24.0000 </r>
       <r>   -28.0776     0.0000    24.0000 </r>
       <r>   -27.8849     0.0000    24.0000 </r>
       <r>   -27.6922     0.0000    24.0000 </r>
       <r>   -27.4996     0.0000    24.0000 </r>
       <r>   -27.3069     0.0000    24.0000 </r>
       <r>   -27.1142     0.0000    24.0000 </r>
       <r>   -26.9215     0.0000    24.0000 </r>
       <r>   -26.7289     0.0000    24.0000 </r>
       <r>   -26.5362     0.0000    24.0000 </r>
       <r>   -26.3435     0.0000    24.0000 </r>
       <r>   -26.1508     0.0000    24.0000 </r>
       <r>   -25.9581     0.0000    24.0000 </r>
       <r>   -25.7655     0.0000    24.0000 </r>
       <r>   -25.5728     0.0000    24.0000 </r>
       <r>   -25.3801     0.0000    24.0000 </r>
       <r>   -25.1874     0.0000    24.0000 </r>
       <r>   -24.9948     0.0000    24.0000 </r>
       <r>   -24.8021     0.0000    24.0000 </r>
       <r>   -24.6094     0.0000    24.0000 </r>
       <r>   -24.4167     0.0000    24.0000 </r>
       <r>   -24.2241     0.0000    24.0000 </r>
       <r>   -24.0314     0.0000    24.0000 </r>
       <r>   -23.8387     0.0000    24.0000 </r>
       <r>   -23.6460     0.0000    24.0000 </r>
       <r>   -23.4534     0.0000    24.0000 </r>
       <r>   -23.2607     0.0000    24.0000 </r>
       <r>   -23.0680     0.0000    24.0000 </r>
       <r>   -22.8753     0.0000    24.0000 </r>
       <r>   -22.6826     0.0000    24.0000 </r>
       <r>   -22.4900     0.0000    24.0000 </r>
       <r>   -22.2973     0.0000    24.0000 </r>
       <r>   -22.1046     0.0000    24.0000 </r>
       <r>   -21.9119     0.0000    24.0000 </r>
       <r>   -21.7193     0.0000    24.0000 </r>
       <r>   -21.5266     0.0000    24.0000 </r>
       <r>   -21.3339     0.0000    24.0000 </r>
       <r>   -21.1412     0.0000    24.0000 </r>
       <r>   -20.9486     0.0000    24.0000 </r>
       <r>   -20.7559     0.0000    24.0000 </r>
       <r>   -20.5632     0.0000    24.0000 </r>
       <r>   -20.3705     0.0000    24.0000 </r>
       <r>   -20.1778     0.0000    24.0000 </r>
       <r>   -19.9852     0.0000    24.0000 </r>
       <r>   -19.7925     0.0000    24.0000 </r>
       <r>   -19.5998     0.0000    24.0000 </r>
       <r>   -19.4071     0.0000    24.0000 </r>
       <r>   -19.2145     0.0000    24.0000 </r>
       <r>   -19.0218     0.0000    24.0000 </r>
       <r>   -18.8291     0.0000    24.0000 </r>
       <r>   -18.6364     0.0000    24.0000 </r>
       <r>   -18.4438     0.0000    24.0000 </r>
       <r>   -18.2511     0.0000    24.0000 </r>
       <r>   -18.0584     0.0000    24.0000 </r>
       <r>   -17.8657     0.0000    24.0000 </r>
       <r>   -17.6731     0.0000    24.0000 </r>
       <r>   -17.4804     0.0000    24.0000 </r>
       <r>   -17.2877     0.0000    24.0000 </r>
       <r>   -17.0950     0.0000    24.0000 </r>
       <r>   -16.9023     0.0000    24.0000 </r>
       <r>   -16.7097     0.0000    24.0000 </r>
       <r>   -16.5170     0.0000    24.0000 </r>
       <r>   -16.3243     0.0000    24.0000 </r>
       <r>   -16.1316     0.0000    24.0000 </r>
       <r>   -15.9390     0.0000    24.0000 </r>
       <r>   -15.7463     0.0000    24.0000 </r>
       <r>   -15.5536     0.0000    24.0000 </r>
       <r>   -15.3609     0.0000    24.0000 </r>
       <r>   -15.1683     0.0000    24.0000 </r>
       <r>   -14.9756     0.0000    24.0000 </r>
       <r>   -14.7829     0.0000    24.0000 </r>
       <r>   -14.5902     0.0000    24.0000 </r>
       <r>   -14.3975     0.0000    24.0000 </r>
       <r>   -14.2049     0.0000    24.0000 </r>
       <r>   -14.0122     0.0000    24.0000 </r>
       <r>   -13.8195     0.0000    24.0000 </r>
       <r>   -13.6268     0.0000    24.0000 </r>
       <r>   -13.4342     0.0000    24.0000 </r>
       <r>   -13.2415     0.0000    24.0000 </r>
       <r>   -13.0488     8.3440    25.6077 </r>
       <r>   -12.8561    12.4157    27.9999 </r>
       <r>   -12.6635     5.3536    29.0315 </r>
       <r>   -12.4708    15.2029    31.9705 </r>
       <r>   -12.2781     0.0966    32.0000 </r>
       <r>   -12.0854     0.0000    32.0000 </r>
       <r>   -11.8928     0.0000    32.0000 </r>
       <r>   -11.7001     0.0000    32.0000 </r>
       <r>   -11.5074     0.0000    32.0000 </r>
       <r>   -11.3147     0.0000    32.0000 </r>
       <r>   -11.1220     0.0000    32.0000 </r>
       <r>   -10.9294     0.0000    32.0000 </r>
       <r>   -10.7367     0.0000    32.0000 </r>
       <r>   -10.5440     0.0000    32.0000 </r>
       <r>   -10.3513     0.7245    32.1396 </r>
       <r>   -10.1587    16.6499    35.3476 </r>
       <r>    -9.9660    32.6790    41.6441 </r>
       <r>    -9.7733    11.5461    43.8810 </r>
       <r>    -9.5806     0.6177    44.0000 </r>
       <r>    -9.3880     0.0000    44.0000 </r>
       <r>    -9.1953     0.0000    44.0000 </r>
       <r>    -9.0026     0.0000    44.0000 </r>
       <r>    -8.8099     0.0000    44.0000 </r>
       <r>    -8.6173     0.0000    44.0000 </r>
       <r>    -8.4246     0.4476    44.0862 </r>
       <r>    -8.2319    16.6887    47.3018 </r>
       <r>    -8.0392     3.6239    48.0000 </r>
       <r>    -7.8465     0.0000    48.0000 </r>
       <r>    -7.6539     0.0000    48.0000 </r>
       <r>    -7.4612     0.0000    48.0000 </r>
       <r>    -7.2685     0.0000    48.0000 </r>
       <r>    -7.0758     0.0000    48.0000 </r>
       <r>    -6.8832     0.0000    48.0000 </r>
       <r>    -6.6905     0.0000    48.0000 </r>
       <r>    -6.4978     0.0000    48.0000 </r>
       <r>    -6.3051     0.0000    48.0000 </r>
       <r>    -6.1125     3.9228    48.7558 </r>
       <r>    -5.9198     1.2672    49.0000 </r>
       <r>    -5.7271     4.2063    49.8105 </r>
       <r>    -5.5344    11.3404    51.9992 </r>
       <r>    -5.3417     0.0000    52.0000 </r>
       <r>    -5.1491     0.0000    52.0000 </r>
       <r>    -4.9564     0.0000    52.0000 </r>
       <r>    -4.7637     0.0000    52.0000 </r>
       <r>    -4.5710     0.0000    52.0000 </r>
       <r>    -4.3784     0.0000    52.0000 </r>
       <r>    -4.1857     0.0000    52.0000 </r>
       <r>    -3.9930     0.0000    52.0000 </r>
       <r>    -3.8003     0.0000    52.0000 </r>
       <r>    -3.6077     0.0000    52.0000 </r>
       <r>    -3.4150     0.0000    52.0000 </r>
       <r>    -3.2223     5.4210    53.0445 </r>
       <r>    -3.0296    10.1492    55.0000 </r>
       <r>    -2.8370     4.4418    55.8558 </r>
       <r>    -2.6443    10.6134    57.9008 </r>
       <r>    -2.4516    14.6450    60.7230 </r>
       <r>    -2.2589    16.3892    63.8838 </r>
       <r>    -2.0662     0.6029    64.0000 </r>
       <r>    -1.8736     0.0000    64.0000 </r>
       <r>    -1.6809     0.0021    64.0004 </r>
       <r>    -1.4882    10.3696    65.9984 </r>
       <r>    -1.2955    20.2890    69.9093 </r>
       <r>    -1.1029    22.6187    74.2684 </r>
       <r>    -0.9102     8.9510    76.0000 </r>
       <r>    -0.7175     0.0000    76.0000 </r>
       <r>    -0.5248    11.3212    78.1813 </r>
       <r>    -0.3322    10.1513    80.1380 </r>
       <r>    -0.1395    13.1826    82.6836 </r>
       <r>     0.0532    28.4614    88.1698 </r>
       <r>     0.2459    22.3425    92.4802 </r>
       <r>     0.4385    16.8780    95.7348 </r>
       <r>     0.6312     1.3476    96.0000 </r>
       <r>     0.8239    15.8166    99.0475 </r>
       <r>     1.0166    20.4965   102.9981 </r>
       <r>     1.2093    22.4565   107.3264 </r>
       <r>     1.4019    25.0656   112.1572 </r>
       <r>     1.5946    24.3316   116.8453 </r>
       <r>     1.7873    15.2981   119.7933 </r>
       <r>     1.9800     1.0705   120.0000 </r>
       <r>     2.1726     0.0000   120.0000 </r>
       <r>     2.3653     0.0000   120.0000 </r>
       <r>     2.5580     0.0000   120.0000 </r>
       <r>     2.7507     0.0000   120.0000 </r>
       <r>     2.9433     0.0000   120.0000 </r>
       <r>     3.1360     0.0000   120.0000 </r>
       <r>     3.3287     0.0000   120.0000 </r>
       <r>     3.5214     0.0000   120.0000 </r>
       <r>     3.7141     0.0000   120.0000 </r>
       <r>     3.9067     0.0000   120.0000 </r>
       <r>     4.0994     0.0000   120.0000 </r>
       <r>     4.2921     0.0005   120.0001 </r>
       <r>     4.4848     5.0056   120.9646 </r>
       <r>     4.6774     0.1838   121.0000 </r>
       <r>     4.8701     0.0000   121.0000 </r>
       <r>     5.0628     0.0059   121.0011 </r>
       <r>     5.2555     5.2069   122.0044 </r>
       <r>     5.4481    10.3537   124.0000 </r>
       <r>     5.6408     0.0000   124.0000 </r>
       <r>     5.8335     0.8728   124.1682 </r>
       <r>     6.0262    13.8434   126.8355 </r>
       <r>     6.2188    12.7753   129.2979 </r>
       <r>     6.4115     5.0127   130.2640 </r>
       <r>     6.6042    10.5728   132.3012 </r>
       <r>     6.7969    10.4228   134.3094 </r>
       <r>     6.9896     8.8536   136.0175 </r>
       <r>     7.1822     5.0975   137.0000 </r>
       <r>     7.3749     5.3052   138.0222 </r>
       <r>     7.5676    11.3766   140.2166 </r>
       <r>     7.7603    11.2025   142.3763 </r>
       <r>     7.9529    10.7993   144.4628 </r>
       <r>     8.1456    15.6297   147.4743 </r>
       <r>     8.3383    13.4221   150.0623 </r>
       <r>     8.5310    16.4516   153.2325 </r>
       <r>     8.7236    12.0809   155.5612 </r>
       <r>     8.9163    17.3609   158.9091 </r>
       <r>     9.1090    15.1706   161.8341 </r>
       <r>     9.3017    22.2774   166.1272 </r>
       <r>     9.4943    14.9325   169.0067 </r>
       <r>     9.6870    17.5025   172.3799 </r>
       <r>     9.8797    15.1866   175.3102 </r>
       <r>    10.0724     3.5773   176.0000 </r>
       <r>    10.2651     0.0000   176.0000 </r>
       <r>    10.4577     0.0000   176.0000 </r>
       <r>    10.6504     0.0000   176.0000 </r>
       <r>    10.8431     0.0000   176.0000 </r>
       <r>    11.0358     0.0000   176.0000 </r>
       <r>    11.2284     0.0000   176.0000 </r>
       <r>    11.4211     0.0000   176.0000 </r>
       <r>    11.6138     0.0000   176.0000 </r>
       <r>    11.8065     0.0000   176.0000 </r>
       <r>    11.9991     0.0000   176.0000 </r>
       <r>    12.1918     0.0000   176.0000 </r>
       <r>    12.3845     0.0000   176.0000 </r>
       <r>    12.5772     0.0000   176.0000 </r>
      </set>
     </set>
    </array>
   </total>
  </dos>
 </calculation>
 <structure name="finalpos" >
  <crystal>
   <varray name="basis" >
    <v>       9.67683787       0.00000000       0.00000000 </v>
    <v>       0.00000000       9.67683787       0.00000000 </v>
    <v>       0.00000000       0.00000000       9.67683787 </v>
   </varray>
   <i name="volume">    906.15062401 </i>
   <varray name="rec_basis" >
    <v>       0.10333954       0.00000000       0.00000000 </v>
    <v>       0.00000000       0.10333954       0.00000000 </v>
    <v>       0.00000000       0.00000000       0.10333954 </v>
   </varray>
  </crystal>
  <varray name="positions" >
   <v>       0.96498435       0.33551623       0.33551623 </v>
   <v>       0.98253401       0.67382136       0.67382136 </v>
   <v>       0.02667276       0.32854446       0.70942953 </v>
   <v>       0.02667276       0.70942953       0.32854446 </v>
   <v>       0.30890561       0.28089785       0.98621420 </v>
   <v>       0.17126706       0.79767668       0.03451877 </v>
   <v>       0.65399903       0.26482616       0.02875379 </v>
   <v>       0.82869968       0.78354878       0.97470835 </v>
   <v>       0.30890561       0.98621420       0.28089785 </v>
   <v>       0.17126706       0.03451877       0.79767668 </v>
   <v>       0.82869968       0.97470835       0.78354878 </v>
   <v>       0.65399903       0.02875379       0.26482616 </v>
   <v>       0.32746146       0.80689525       0.47963449 </v>
   <v>       0.22975701       0.29889170       0.51937151 </v>
   <v>       0.69989153       0.81811311       0.52189176 </v>
   <v>       0.69814124       0.21294918       0.46759620 </v>
   <v>       0.32746146       0.47963449       0.80689525 </v>
   <v>       0.22975701       0.51937151       0.29889170 </v>
   <v>       0.69814124       0.46759620       0.21294918 </v>
   <v>       0.69989153       0.52189176       0.81811311 </v>
   <v>       0.46659423       0.17350624       0.67264330 </v>
   <v>       0.46659423       0.67264330       0.17350624 </v>
   <v>       0.96650763       0.14266189       0.14266189 </v>
   <v>       0.52910218       0.76088803       0.76088803 </v>
   <v>       0.51128844       0.49932604       0.49932604 </v>
   <v>       0.50448751       0.98581495       0.98581495 </v>
   <v>       0.00121032       0.48598708       0.00766191 </v>
   <v>       0.00121032       0.00766191       0.48598708 </v>
   <v>       0.12031071       0.87880983       0.60599155 </v>
   <v>       0.12571476       0.12980124       0.36307591 </v>
   <v>       0.87233878       0.89602226       0.36103690 </v>
   <v>       0.88908032       0.13797353       0.61042840 </v>
   <v>       0.88908032       0.61042840       0.13797353 </v>
   <v>       0.87233878       0.36103690       0.89602226 </v>
   <v>       0.12031071       0.60599155       0.87880983 </v>
   <v>       0.12571476       0.36307591       0.12980124 </v>
   <v>       0.62400265       0.09677399       0.85005292 </v>
   <v>       0.62400265       0.85005292       0.09677399 </v>
   <v>       0.42834497       0.12558319       0.12558319 </v>
   <v>       0.35522049       0.87959289       0.87959289 </v>
   <v>       0.62562105       0.63006848       0.37788489 </v>
   <v>       0.62562105       0.37788489       0.63006848 </v>
   <v>       0.38372211       0.62054704       0.62054704 </v>
   <v>       0.40785955       0.36928375       0.36928375 </v>
   <v>       0.76359033       0.74359234       0.74359234 </v>
   <v>       0.76659164       0.24207334       0.24207334 </v>
   <v>       0.25378092       0.75323607       0.25526233 </v>
   <v>       0.25378092       0.25526233       0.75323607 </v>
   <v>       0.99773776       0.97234649       0.97234649 </v>
   <v>       0.04539210       0.49566332       0.49566332 </v>
   <v>       0.51122977       0.99605169       0.48238881 </v>
   <v>       0.51122977       0.48238881       0.99605169 </v>
  </varray>
 </structure>
</modeling>
