unknown system                          
           1
     9.676838    0.000000    0.000000
     0.000000    9.676838    0.000000
     0.000000    0.000000    9.676838
   Li   P    S    Cl
    24     4    20     4
Direct configuration=     1
   0.96499430  0.33550883  0.33550883
   0.98253180  0.67381638  0.67381638
   0.02667900  0.32854769  0.70944517
   0.02667900  0.70944517  0.32854769
   0.30889802  0.28089060  0.98621601
   0.17127150  0.79767479  0.03451073
   0.65398400  0.26483774  0.02876587
   0.82869948  0.78354979  0.97470890
   0.30889802  0.98621601  0.28089060
   0.17127150  0.03451073  0.79767479
   0.82869948  0.97470890  0.78354979
   0.65398400  0.02876587  0.26483774
   0.32746976  0.80689719  0.47962702
   0.22975228  0.29889084  0.51937323
   0.69988626  0.81811175  0.52189247
   0.69816824  0.21296517  0.46760551
   0.32746976  0.47962702  0.80689719
   0.22975228  0.51937323  0.29889084
   0.69816824  0.46760551  0.21296517
   0.69988626  0.52189247  0.81811175
   0.46659674  0.17349472  0.67264083
   0.46659674  0.67264083  0.17349472
   0.96649891  0.14265713  0.14265713
   0.52909701  0.76087838  0.76087838
   0.51128246  0.49932295  0.49932295
   0.50449549  0.98581592  0.98581592
   0.00121159  0.48598743  0.00766360
   0.00121159  0.00766360  0.48598743
   0.12030719  0.87880832  0.60598115
   0.12571589  0.12979569  0.36307399
   0.87233501  0.89602348  0.36104090
   0.88908901  0.13797289  0.61044310
   0.88908901  0.61044310  0.13797289
   0.87233501  0.36104090  0.89602348
   0.12030719  0.60598115  0.87880832
   0.12571589  0.36307399  0.12979569
   0.62400383  0.09677982  0.85005815
   0.62400383  0.85005815  0.09677982
   0.42834173  0.12558253  0.12558253
   0.35522806  0.87959394  0.87959394
   0.62560768  0.63007258  0.37788877
   0.62560768  0.37788877  0.63007258
   0.38371005  0.62054348  0.62054348
   0.40784932  0.36928451  0.36928451
   0.76358784  0.74359270  0.74359270
   0.76659316  0.24208076  0.24208076
   0.25378397  0.75323539  0.25525609
   0.25378397  0.25525609  0.75323539
   0.99773925  0.97233416  0.97233416
   0.04539088  0.49565661  0.49565661
   0.51123081  0.99604404  0.48239021
   0.51123081  0.48239021  0.99604404
Direct configuration=     2
   0.96499307  0.33550976  0.33550976
   0.98253206  0.67381701  0.67381701
   0.02667822  0.32854724  0.70944314
   0.02667822  0.70944314  0.32854724
   0.30889901  0.28089150  0.98621570
   0.17127096  0.79767498  0.03451176
   0.65398591  0.26483625  0.02876432
   0.82869947  0.78354965  0.97470878
   0.30889901  0.98621570  0.28089150
   0.17127096  0.03451176  0.79767498
   0.82869947  0.97470878  0.78354965
   0.65398591  0.02876432  0.26483625
   0.32746872  0.80689689  0.47962796
   0.22975287  0.29889093  0.51937301
   0.69988697  0.81811192  0.52189239
   0.69816487  0.21296314  0.46760441
   0.32746872  0.47962796  0.80689689
   0.22975287  0.51937301  0.29889093
   0.69816487  0.46760441  0.21296314
   0.69988697  0.52189239  0.81811192
   0.46659639  0.17349618  0.67264112
   0.46659639  0.67264112  0.17349618
   0.96650002  0.14265768  0.14265768
   0.52909762  0.76087959  0.76087959
   0.51128277  0.49932362  0.49932362
   0.50449402  0.98581580  0.98581580
   0.00121083  0.48598734  0.00766350
   0.00121083  0.00766350  0.48598734
   0.12030797  0.87880819  0.60598271
   0.12571579  0.12979656  0.36307411
   0.87233557  0.89602349  0.36104044
   0.88908804  0.13797289  0.61044097
   0.88908804  0.61044097  0.13797289
   0.87233557  0.36104044  0.89602349
   0.12030797  0.60598271  0.87880819
   0.12571579  0.36307411  0.12979656
   0.62400389  0.09677917  0.85005731
   0.62400389  0.85005731  0.09677917
   0.42834220  0.12558262  0.12558262
   0.35522716  0.87959381  0.87959381
   0.62560957  0.63007210  0.37788808
   0.62560957  0.37788808  0.63007210
   0.38371172  0.62054381  0.62054381
   0.40785069  0.36928420  0.36928420
   0.76358816  0.74359261  0.74359261
   0.76659295  0.24207974  0.24207974
   0.25378358  0.75323551  0.25525685
   0.25378358  0.25525685  0.75323551
   0.99773918  0.97233618  0.97233618
   0.04539089  0.49565774  0.49565774
   0.51123052  0.99604516  0.48239015
   0.51123052  0.48239015  0.99604516
Direct configuration=     3
   0.96499205  0.33551053  0.33551053
   0.98253227  0.67381752  0.67381752
   0.02667758  0.32854687  0.70944146
   0.02667758  0.70944146  0.32854687
   0.30889983  0.28089224  0.98621544
   0.17127051  0.79767514  0.03451260
   0.65398749  0.26483502  0.02876304
   0.82869947  0.78354953  0.97470868
   0.30889983  0.98621544  0.28089224
   0.17127051  0.03451260  0.79767514
   0.82869947  0.97470868  0.78354953
   0.65398749  0.02876304  0.26483502
   0.32746786  0.80689664  0.47962875
   0.22975336  0.29889101  0.51937284
   0.69988755  0.81811207  0.52189233
   0.69816207  0.21296147  0.46760349
   0.32746786  0.47962875  0.80689664
   0.22975336  0.51937284  0.29889101
   0.69816207  0.46760349  0.21296147
   0.69988755  0.52189233  0.81811207
   0.46659610  0.17349738  0.67264136
   0.46659610  0.67264136  0.17349738
   0.96650094  0.14265813  0.14265813
   0.52909813  0.76088059  0.76088059
   0.51128302  0.49932418  0.49932418
   0.50449281  0.98581569  0.98581569
   0.00121021  0.48598726  0.00766342
   0.00121021  0.00766342  0.48598726
   0.12030861  0.87880808  0.60598400
   0.12571571  0.12979727  0.36307421
   0.87233602  0.89602350  0.36104005
   0.88908724  0.13797289  0.61043919
   0.88908724  0.61043919  0.13797289
   0.87233602  0.36104005  0.89602350
   0.12030861  0.60598400  0.87880808
   0.12571571  0.36307421  0.12979727
   0.62400393  0.09677863  0.85005661
   0.62400393  0.85005661  0.09677863
   0.42834258  0.12558270  0.12558270
   0.35522642  0.87959370  0.87959370
   0.62561114  0.63007170  0.37788750
   0.62561114  0.37788750  0.63007170
   0.38371310  0.62054408  0.62054408
   0.40785182  0.36928394  0.36928394
   0.76358843  0.74359253  0.74359253
   0.76659278  0.24207890  0.24207890
   0.25378326  0.75323561  0.25525747
   0.25378326  0.25525747  0.75323561
   0.99773912  0.97233786  0.97233786
   0.04539090  0.49565868  0.49565868
   0.51123029  0.99604608  0.48239009
   0.51123029  0.48239009  0.99604608
Direct configuration=     4
   0.96499001  0.33551207  0.33551207
   0.98253270  0.67381855  0.67381855
   0.02667629  0.32854612  0.70943809
   0.02667629  0.70943809  0.32854612
   0.30890147  0.28089373  0.98621493
   0.17126960  0.79767545  0.03451430
   0.65399066  0.26483255  0.02876048
   0.82869945  0.78354929  0.97470848
   0.30890147  0.98621493  0.28089373
   0.17126960  0.03451430  0.79767545
   0.82869945  0.97470848  0.78354929
   0.65399066  0.02876048  0.26483255
   0.32746613  0.80689615  0.47963031
   0.22975433  0.29889116  0.51937248
   0.69988872  0.81811235  0.52189220
   0.69815649  0.21295811  0.46760165
   0.32746613  0.47963031  0.80689615
   0.22975433  0.51937248  0.29889116
   0.69815649  0.46760165  0.21295811
   0.69988872  0.52189220  0.81811235
   0.46659552  0.17349979  0.67264185
   0.46659552  0.67264185  0.17349979
   0.96650278  0.14265902  0.14265902
   0.52909914  0.76088260  0.76088260
   0.51128353  0.49932530  0.49932530
   0.50449039  0.98581549  0.98581549
   0.00120896  0.48598711  0.00766327
   0.00120896  0.00766327  0.48598711
   0.12030989  0.87880786  0.60598659
   0.12571555  0.12979870  0.36307441
   0.87233693  0.89602352  0.36103927
   0.88908564  0.13797289  0.61043565
   0.88908564  0.61043565  0.13797289
   0.87233693  0.36103927  0.89602352
   0.12030989  0.60598659  0.87880786
   0.12571555  0.36307441  0.12979870
   0.62400403  0.09677755  0.85005520
   0.62400403  0.85005520  0.09677755
   0.42834336  0.12558285  0.12558285
   0.35522493  0.87959349  0.87959349
   0.62561429  0.63007090  0.37788635
   0.62561429  0.37788635  0.63007090
   0.38371586  0.62054463  0.62054463
   0.40785407  0.36928343  0.36928343
   0.76358897  0.74359238  0.74359238
   0.76659243  0.24207721  0.24207721
   0.25378261  0.75323581  0.25525872
   0.25378261  0.25525872  0.75323581
   0.99773901  0.97234121  0.97234121
   0.04539092  0.49566054  0.49566054
   0.51122981  0.99604792  0.48238998
   0.51122981  0.48238998  0.99604792
Direct configuration=     5
   0.96498950  0.33551245  0.33551245
   0.98253280  0.67381881  0.67381881
   0.02667597  0.32854593  0.70943727
   0.02667597  0.70943727  0.32854593
   0.30890187  0.28089409  0.98621480
   0.17126938  0.79767552  0.03451471
   0.65399144  0.26483195  0.02875986
   0.82869944  0.78354923  0.97470843
   0.30890187  0.98621480  0.28089409
   0.17126938  0.03451471  0.79767552
   0.82869944  0.97470843  0.78354923
   0.65399144  0.02875986  0.26483195
   0.32746571  0.80689603  0.47963069
   0.22975457  0.29889120  0.51937240
   0.69988901  0.81811242  0.52189216
   0.69815511  0.21295729  0.46760120
   0.32746571  0.47963069  0.80689603
   0.22975457  0.51937240  0.29889120
   0.69815511  0.46760120  0.21295729
   0.69988901  0.52189216  0.81811242
   0.46659537  0.17350038  0.67264197
   0.46659537  0.67264197  0.17350038
   0.96650323  0.14265924  0.14265924
   0.52909939  0.76088309  0.76088309
   0.51128365  0.49932557  0.49932557
   0.50448980  0.98581544  0.98581544
   0.00120865  0.48598708  0.00766323
   0.00120865  0.00766323  0.48598708
   0.12031021  0.87880780  0.60598722
   0.12571551  0.12979905  0.36307446
   0.87233716  0.89602352  0.36103908
   0.88908524  0.13797289  0.61043478
   0.88908524  0.61043478  0.13797289
   0.87233716  0.36103908  0.89602352
   0.12031021  0.60598722  0.87880780
   0.12571551  0.36307446  0.12979905
   0.62400405  0.09677728  0.85005486
   0.62400405  0.85005486  0.09677728
   0.42834355  0.12558288  0.12558288
   0.35522456  0.87959344  0.87959344
   0.62561506  0.63007071  0.37788607
   0.62561506  0.37788607  0.63007071
   0.38371654  0.62054477  0.62054477
   0.40785463  0.36928330  0.36928330
   0.76358910  0.74359234  0.74359234
   0.76659235  0.24207680  0.24207680
   0.25378246  0.75323586  0.25525903
   0.25378246  0.25525903  0.75323586
   0.99773899  0.97234203  0.97234203
   0.04539092  0.49566100  0.49566100
   0.51122970  0.99604837  0.48238995
   0.51122970  0.48238995  0.99604837
Direct configuration=     6
   0.96498850  0.33551321  0.33551321
   0.98253301  0.67381931  0.67381931
   0.02667534  0.32854556  0.70943561
   0.02667534  0.70943561  0.32854556
   0.30890267  0.28089482  0.98621455
   0.17126894  0.79767567  0.03451554
   0.65399299  0.26483073  0.02875860
   0.82869944  0.78354911  0.97470833
   0.30890267  0.98621455  0.28089482
   0.17126894  0.03451554  0.79767567
   0.82869944  0.97470833  0.78354911
   0.65399299  0.02875860  0.26483073
   0.32746486  0.80689579  0.47963146
   0.22975505  0.29889127  0.51937222
   0.69988959  0.81811257  0.52189210
   0.69815237  0.21295564  0.46760030
   0.32746486  0.47963146  0.80689579
   0.22975505  0.51937222  0.29889127
   0.69815237  0.46760030  0.21295564
   0.69988959  0.52189210  0.81811257
   0.46659509  0.17350157  0.67264221
   0.46659509  0.67264221  0.17350157
   0.96650414  0.14265969  0.14265969
   0.52909989  0.76088408  0.76088408
   0.51128390  0.49932612  0.49932612
   0.50448861  0.98581533  0.98581533
   0.00120804  0.48598700  0.00766315
   0.00120804  0.00766315  0.48598700
   0.12031084  0.87880770  0.60598849
   0.12571543  0.12979975  0.36307456
   0.87233761  0.89602353  0.36103870
   0.88908446  0.13797289  0.61043304
   0.88908446  0.61043304  0.13797289
   0.87233761  0.36103870  0.89602353
   0.12031084  0.60598849  0.87880770
   0.12571543  0.36307456  0.12979975
   0.62400409  0.09677675  0.85005417
   0.62400409  0.85005417  0.09677675
   0.42834393  0.12558296  0.12558296
   0.35522383  0.87959333  0.87959333
   0.62561660  0.63007031  0.37788550
   0.62561660  0.37788550  0.63007031
   0.38371790  0.62054504  0.62054504
   0.40785574  0.36928305  0.36928305
   0.76358936  0.74359226  0.74359226
   0.76659218  0.24207597  0.24207597
   0.25378214  0.75323596  0.25525965
   0.25378214  0.25525965  0.75323596
   0.99773893  0.97234368  0.97234368
   0.04539093  0.49566192  0.49566192
   0.51122946  0.99604928  0.48238990
   0.51122946  0.48238990  0.99604928
Direct configuration=     7
   0.96498649  0.33551472  0.33551472
   0.98253343  0.67382033  0.67382033
   0.02667407  0.32854483  0.70943231
   0.02667407  0.70943231  0.32854483
   0.30890428  0.28089628  0.98621404
   0.17126805  0.79767598  0.03451721
   0.65399610  0.26482831  0.02875609
   0.82869942  0.78354888  0.97470813
   0.30890428  0.98621404  0.28089628
   0.17126805  0.03451721  0.79767598
   0.82869942  0.97470813  0.78354888
   0.65399610  0.02875609  0.26482831
   0.32746316  0.80689530  0.47963300
   0.22975601  0.29889142  0.51937187
   0.69989073  0.81811285  0.52189197
   0.69814687  0.21295234  0.46759850
   0.32746316  0.47963300  0.80689530
   0.22975601  0.51937187  0.29889142
   0.69814687  0.46759850  0.21295234
   0.69989073  0.52189197  0.81811285
   0.46659452  0.17350393  0.67264268
   0.46659452  0.67264268  0.17350393
   0.96650595  0.14266057  0.14266057
   0.52910088  0.76088605  0.76088605
   0.51128440  0.49932722  0.49932722
   0.50448623  0.98581513  0.98581513
   0.00120682  0.48598685  0.00766300
   0.00120682  0.00766300  0.48598685
   0.12031210  0.87880748  0.60599103
   0.12571527  0.12980115  0.36307476
   0.87233850  0.89602355  0.36103794
   0.88908288  0.13797289  0.61042956
   0.88908288  0.61042956  0.13797289
   0.87233850  0.36103794  0.89602355
   0.12031210  0.60599103  0.87880748
   0.12571527  0.36307476  0.12980115
   0.62400418  0.09677569  0.85005279
   0.62400418  0.85005279  0.09677569
   0.42834469  0.12558310  0.12558310
   0.35522236  0.87959312  0.87959312
   0.62561969  0.63006953  0.37788437
   0.62561969  0.37788437  0.63006953
   0.38372062  0.62054558  0.62054558
   0.40785796  0.36928255  0.36928255
   0.76358989  0.74359211  0.74359211
   0.76659184  0.24207431  0.24207431
   0.25378151  0.75323616  0.25526088
   0.25378151  0.25526088  0.75323616
   0.99773882  0.97234697  0.97234697
   0.04539094  0.49566376  0.49566376
   0.51122900  0.99605109  0.48238979
   0.51122900  0.48238979  0.99605109
Direct configuration=     8
   0.96498435  0.33551623  0.33551623
   0.98253401  0.67382136  0.67382136
   0.02667276  0.32854446  0.70942953
   0.02667276  0.70942953  0.32854446
   0.30890561  0.28089785  0.98621420
   0.17126706  0.79767668  0.03451877
   0.65399903  0.26482616  0.02875379
   0.82869968  0.78354878  0.97470835
   0.30890561  0.98621420  0.28089785
   0.17126706  0.03451877  0.79767668
   0.82869968  0.97470835  0.78354878
   0.65399903  0.02875379  0.26482616
   0.32746146  0.80689525  0.47963449
   0.22975701  0.29889170  0.51937151
   0.69989153  0.81811311  0.52189176
   0.69814124  0.21294918  0.46759620
   0.32746146  0.47963449  0.80689525
   0.22975701  0.51937151  0.29889170
   0.69814124  0.46759620  0.21294918
   0.69989153  0.52189176  0.81811311
   0.46659423  0.17350624  0.67264330
   0.46659423  0.67264330  0.17350624
   0.96650763  0.14266189  0.14266189
   0.52910218  0.76088803  0.76088803
   0.51128844  0.49932604  0.49932604
   0.50448751  0.98581495  0.98581495
   0.00121032  0.48598708  0.00766191
   0.00121032  0.00766191  0.48598708
   0.12031071  0.87880983  0.60599155
   0.12571476  0.12980124  0.36307591
   0.87233878  0.89602226  0.36103690
   0.88908032  0.13797353  0.61042840
   0.88908032  0.61042840  0.13797353
   0.87233878  0.36103690  0.89602226
   0.12031071  0.60599155  0.87880983
   0.12571476  0.36307591  0.12980124
   0.62400265  0.09677399  0.85005292
   0.62400265  0.85005292  0.09677399
   0.42834497  0.12558319  0.12558319
   0.35522049  0.87959289  0.87959289
   0.62562105  0.63006848  0.37788489
   0.62562105  0.37788489  0.63006848
   0.38372211  0.62054704  0.62054704
   0.40785955  0.36928375  0.36928375
   0.76359033  0.74359234  0.74359234
   0.76659164  0.24207334  0.24207334
   0.25378092  0.75323607  0.25526233
   0.25378092  0.25526233  0.75323607
   0.99773776  0.97234649  0.97234649
   0.04539210  0.49566332  0.49566332
   0.51122977  0.99605169  0.48238881
   0.51122977  0.48238881  0.99605169
