  52  52   0  16
  0.1749453E+02  0.9689512E-09  0.9689512E-09  0.9689512E-09  0.2000000E-15
  1.000000000000000E-004
  CAR 
 unknown system                          
     12.48641332    -45.25692558  301      1.94825397      1.00000000
    -45.257  0.0000E+00  0.0000E+00  0.0000E+00  0.0000E+00
    -45.064  0.0000E+00  0.0000E+00  0.0000E+00  0.0000E+00
    -44.872  0.0000E+00  0.0000E+00  0.0000E+00  0.0000E+00
    -44.679  0.0000E+00  0.0000E+00  0.0000E+00  0.0000E+00
    -44.487  0.0000E+00  0.0000E+00  0.0000E+00  0.0000E+00
    -44.295  0.0000E+00  0.0000E+00  0.0000E+00  0.0000E+00
    -44.102  0.0000E+00  0.0000E+00  0.0000E+00  0.0000E+00
    -43.910  0.0000E+00  0.0000E+00  0.0000E+00  0.0000E+00
    -43.717  0.0000E+00  0.0000E+00  0.0000E+00  0.0000E+00
    -43.525  0.0000E+00  0.0000E+00  0.0000E+00  0.0000E+00
    -43.332  0.0000E+00  0.0000E+00  0.0000E+00  0.0000E+00
    -43.140  0.0000E+00  0.0000E+00  0.0000E+00  0.0000E+00
    -42.947  0.0000E+00  0.0000E+00  0.0000E+00  0.0000E+00
    -42.755  0.2010E-10  0.2010E-10  0.3870E-11  0.3869E-11
    -42.562  0.2122E-01  0.2122E-01  0.4084E-02  0.4084E-02
    -42.370  0.8882E-01  0.8882E-01  0.2118E-01  0.2118E-01
    -42.177  0.1464E-01  0.1464E-01  0.2400E-01  0.2400E-01
    -41.985  0.0000E+00  0.0000E+00  0.2400E-01  0.2400E-01
    -41.792  0.0000E+00  0.0000E+00  0.2400E-01  0.2400E-01
    -41.600  0.0000E+00  0.0000E+00  0.2400E-01  0.2400E-01
    -41.407  0.0000E+00  0.0000E+00  0.2400E-01  0.2400E-01
    -41.215  0.0000E+00  0.0000E+00  0.2400E-01  0.2400E-01
    -41.022  0.0000E+00  0.0000E+00  0.2400E-01  0.2400E-01
    -40.830  0.0000E+00  0.0000E+00  0.2400E-01  0.2400E-01
    -40.637  0.0000E+00  0.0000E+00  0.2400E-01  0.2400E-01
    -40.445  0.0000E+00  0.0000E+00  0.2400E-01  0.2400E-01
    -40.253  0.0000E+00  0.0000E+00  0.2400E-01  0.2400E-01
    -40.060  0.0000E+00  0.0000E+00  0.2400E-01  0.2400E-01
    -39.868  0.0000E+00  0.0000E+00  0.2400E-01  0.2400E-01
    -39.675  0.0000E+00  0.0000E+00  0.2400E-01  0.2400E-01
    -39.483  0.0000E+00  0.0000E+00  0.2400E-01  0.2400E-01
    -39.290  0.0000E+00  0.0000E+00  0.2400E-01  0.2400E-01
    -39.098  0.0000E+00  0.0000E+00  0.2400E-01  0.2400E-01
    -38.905  0.0000E+00  0.0000E+00  0.2400E-01  0.2400E-01
    -38.713  0.0000E+00  0.0000E+00  0.2400E-01  0.2400E-01
    -38.520  0.0000E+00  0.0000E+00  0.2400E-01  0.2400E-01
    -38.328  0.0000E+00  0.0000E+00  0.2400E-01  0.2400E-01
    -38.135  0.0000E+00  0.0000E+00  0.2400E-01  0.2400E-01
    -37.943  0.0000E+00  0.0000E+00  0.2400E-01  0.2400E-01
    -37.750  0.0000E+00  0.0000E+00  0.2400E-01  0.2400E-01
    -37.558  0.0000E+00  0.0000E+00  0.2400E-01  0.2400E-01
    -37.365  0.0000E+00  0.0000E+00  0.2400E-01  0.2400E-01
    -37.173  0.0000E+00  0.0000E+00  0.2400E-01  0.2400E-01
    -36.980  0.0000E+00  0.0000E+00  0.2400E-01  0.2400E-01
    -36.788  0.0000E+00  0.0000E+00  0.2400E-01  0.2400E-01
    -36.595  0.0000E+00  0.0000E+00  0.2400E-01  0.2400E-01
    -36.403  0.0000E+00  0.0000E+00  0.2400E-01  0.2400E-01
    -36.210  0.0000E+00  0.0000E+00  0.2400E-01  0.2400E-01
    -36.018  0.0000E+00  0.0000E+00  0.2400E-01  0.2400E-01
    -35.826  0.0000E+00  0.0000E+00  0.2400E-01  0.2400E-01
    -35.633  0.0000E+00  0.0000E+00  0.2400E-01  0.2400E-01
    -35.441  0.0000E+00  0.0000E+00  0.2400E-01  0.2400E-01
    -35.248  0.0000E+00  0.0000E+00  0.2400E-01  0.2400E-01
    -35.056  0.0000E+00  0.0000E+00  0.2400E-01  0.2400E-01
    -34.863  0.0000E+00  0.0000E+00  0.2400E-01  0.2400E-01
    -34.671  0.0000E+00  0.0000E+00  0.2400E-01  0.2400E-01
    -34.478  0.0000E+00  0.0000E+00  0.2400E-01  0.2400E-01
    -34.286  0.0000E+00  0.0000E+00  0.2400E-01  0.2400E-01
    -34.093  0.0000E+00  0.0000E+00  0.2400E-01  0.2400E-01
    -33.901  0.0000E+00  0.0000E+00  0.2400E-01  0.2400E-01
    -33.708  0.0000E+00  0.0000E+00  0.2400E-01  0.2400E-01
    -33.516  0.0000E+00  0.0000E+00  0.2400E-01  0.2400E-01
    -33.323  0.0000E+00  0.0000E+00  0.2400E-01  0.2400E-01
    -33.131  0.0000E+00  0.0000E+00  0.2400E-01  0.2400E-01
    -32.938  0.0000E+00  0.0000E+00  0.2400E-01  0.2400E-01
    -32.746  0.0000E+00  0.0000E+00  0.2400E-01  0.2400E-01
    -32.553  0.0000E+00  0.0000E+00  0.2400E-01  0.2400E-01
    -32.361  0.0000E+00  0.0000E+00  0.2400E-01  0.2400E-01
    -32.168  0.0000E+00  0.0000E+00  0.2400E-01  0.2400E-01
    -31.976  0.0000E+00  0.0000E+00  0.2400E-01  0.2400E-01
    -31.783  0.0000E+00  0.0000E+00  0.2400E-01  0.2400E-01
    -31.591  0.0000E+00  0.0000E+00  0.2400E-01  0.2400E-01
    -31.399  0.0000E+00  0.0000E+00  0.2400E-01  0.2400E-01
    -31.206  0.0000E+00  0.0000E+00  0.2400E-01  0.2400E-01
    -31.014  0.0000E+00  0.0000E+00  0.2400E-01  0.2400E-01
    -30.821  0.0000E+00  0.0000E+00  0.2400E-01  0.2400E-01
    -30.629  0.0000E+00  0.0000E+00  0.2400E-01  0.2400E-01
    -30.436  0.0000E+00  0.0000E+00  0.2400E-01  0.2400E-01
    -30.244  0.0000E+00  0.0000E+00  0.2400E-01  0.2400E-01
    -30.051  0.0000E+00  0.0000E+00  0.2400E-01  0.2400E-01
    -29.859  0.0000E+00  0.0000E+00  0.2400E-01  0.2400E-01
    -29.666  0.0000E+00  0.0000E+00  0.2400E-01  0.2400E-01
    -29.474  0.0000E+00  0.0000E+00  0.2400E-01  0.2400E-01
    -29.281  0.0000E+00  0.0000E+00  0.2400E-01  0.2400E-01
    -29.089  0.0000E+00  0.0000E+00  0.2400E-01  0.2400E-01
    -28.896  0.0000E+00  0.0000E+00  0.2400E-01  0.2400E-01
    -28.704  0.0000E+00  0.0000E+00  0.2400E-01  0.2400E-01
    -28.511  0.0000E+00  0.0000E+00  0.2400E-01  0.2400E-01
    -28.319  0.0000E+00  0.0000E+00  0.2400E-01  0.2400E-01
    -28.126  0.0000E+00  0.0000E+00  0.2400E-01  0.2400E-01
    -27.934  0.0000E+00  0.0000E+00  0.2400E-01  0.2400E-01
    -27.741  0.0000E+00  0.0000E+00  0.2400E-01  0.2400E-01
    -27.549  0.0000E+00  0.0000E+00  0.2400E-01  0.2400E-01
    -27.356  0.0000E+00  0.0000E+00  0.2400E-01  0.2400E-01
    -27.164  0.0000E+00  0.0000E+00  0.2400E-01  0.2400E-01
    -26.972  0.0000E+00  0.0000E+00  0.2400E-01  0.2400E-01
    -26.779  0.0000E+00  0.0000E+00  0.2400E-01  0.2400E-01
    -26.587  0.0000E+00  0.0000E+00  0.2400E-01  0.2400E-01
    -26.394  0.0000E+00  0.0000E+00  0.2400E-01  0.2400E-01
    -26.202  0.0000E+00  0.0000E+00  0.2400E-01  0.2400E-01
    -26.009  0.0000E+00  0.0000E+00  0.2400E-01  0.2400E-01
    -25.817  0.0000E+00  0.0000E+00  0.2400E-01  0.2400E-01
    -25.624  0.0000E+00  0.0000E+00  0.2400E-01  0.2400E-01
    -25.432  0.0000E+00  0.0000E+00  0.2400E-01  0.2400E-01
    -25.239  0.0000E+00  0.0000E+00  0.2400E-01  0.2400E-01
    -25.047  0.0000E+00  0.0000E+00  0.2400E-01  0.2400E-01
    -24.854  0.0000E+00  0.0000E+00  0.2400E-01  0.2400E-01
    -24.662  0.0000E+00  0.0000E+00  0.2400E-01  0.2400E-01
    -24.469  0.0000E+00  0.0000E+00  0.2400E-01  0.2400E-01
    -24.277  0.0000E+00  0.0000E+00  0.2400E-01  0.2400E-01
    -24.084  0.0000E+00  0.0000E+00  0.2400E-01  0.2400E-01
    -23.892  0.0000E+00  0.0000E+00  0.2400E-01  0.2400E-01
    -23.699  0.0000E+00  0.0000E+00  0.2400E-01  0.2400E-01
    -23.507  0.0000E+00  0.0000E+00  0.2400E-01  0.2400E-01
    -23.314  0.0000E+00  0.0000E+00  0.2400E-01  0.2400E-01
    -23.122  0.0000E+00  0.0000E+00  0.2400E-01  0.2400E-01
    -22.930  0.0000E+00  0.0000E+00  0.2400E-01  0.2400E-01
    -22.737  0.0000E+00  0.0000E+00  0.2400E-01  0.2400E-01
    -22.545  0.0000E+00  0.0000E+00  0.2400E-01  0.2400E-01
    -22.352  0.0000E+00  0.0000E+00  0.2400E-01  0.2400E-01
    -22.160  0.0000E+00  0.0000E+00  0.2400E-01  0.2400E-01
    -21.967  0.0000E+00  0.0000E+00  0.2400E-01  0.2400E-01
    -21.775  0.0000E+00  0.0000E+00  0.2400E-01  0.2400E-01
    -21.582  0.0000E+00  0.0000E+00  0.2400E-01  0.2400E-01
    -21.390  0.0000E+00  0.0000E+00  0.2400E-01  0.2400E-01
    -21.197  0.0000E+00  0.0000E+00  0.2400E-01  0.2400E-01
    -21.005  0.0000E+00  0.0000E+00  0.2400E-01  0.2400E-01
    -20.812  0.0000E+00  0.0000E+00  0.2400E-01  0.2400E-01
    -20.620  0.0000E+00  0.0000E+00  0.2400E-01  0.2400E-01
    -20.427  0.0000E+00  0.0000E+00  0.2400E-01  0.2400E-01
    -20.235  0.0000E+00  0.0000E+00  0.2400E-01  0.2400E-01
    -20.042  0.0000E+00  0.0000E+00  0.2400E-01  0.2400E-01
    -19.850  0.0000E+00  0.0000E+00  0.2400E-01  0.2400E-01
    -19.657  0.0000E+00  0.0000E+00  0.2400E-01  0.2400E-01
    -19.465  0.0000E+00  0.0000E+00  0.2400E-01  0.2400E-01
    -19.272  0.0000E+00  0.0000E+00  0.2400E-01  0.2400E-01
    -19.080  0.0000E+00  0.0000E+00  0.2400E-01  0.2400E-01
    -18.887  0.0000E+00  0.0000E+00  0.2400E-01  0.2400E-01
    -18.695  0.0000E+00  0.0000E+00  0.2400E-01  0.2400E-01
    -18.503  0.0000E+00  0.0000E+00  0.2400E-01  0.2400E-01
    -18.310  0.0000E+00  0.0000E+00  0.2400E-01  0.2400E-01
    -18.118  0.0000E+00  0.0000E+00  0.2400E-01  0.2400E-01
    -17.925  0.0000E+00  0.0000E+00  0.2400E-01  0.2400E-01
    -17.733  0.0000E+00  0.0000E+00  0.2400E-01  0.2400E-01
    -17.540  0.0000E+00  0.0000E+00  0.2400E-01  0.2400E-01
    -17.348  0.0000E+00  0.0000E+00  0.2400E-01  0.2400E-01
    -17.155  0.0000E+00  0.0000E+00  0.2400E-01  0.2400E-01
    -16.963  0.0000E+00  0.0000E+00  0.2400E-01  0.2400E-01
    -16.770  0.0000E+00  0.0000E+00  0.2400E-01  0.2400E-01
    -16.578  0.0000E+00  0.0000E+00  0.2400E-01  0.2400E-01
    -16.385  0.0000E+00  0.0000E+00  0.2400E-01  0.2400E-01
    -16.193  0.0000E+00  0.0000E+00  0.2400E-01  0.2400E-01
    -16.000  0.0000E+00  0.0000E+00  0.2400E-01  0.2400E-01
    -15.808  0.0000E+00  0.0000E+00  0.2400E-01  0.2400E-01
    -15.615  0.0000E+00  0.0000E+00  0.2400E-01  0.2400E-01
    -15.423  0.0000E+00  0.0000E+00  0.2400E-01  0.2400E-01
    -15.230  0.0000E+00  0.0000E+00  0.2400E-01  0.2400E-01
    -15.038  0.0000E+00  0.0000E+00  0.2400E-01  0.2400E-01
    -14.845  0.0000E+00  0.0000E+00  0.2400E-01  0.2400E-01
    -14.653  0.0000E+00  0.0000E+00  0.2400E-01  0.2400E-01
    -14.460  0.0000E+00  0.0000E+00  0.2400E-01  0.2400E-01
    -14.268  0.0000E+00  0.0000E+00  0.2400E-01  0.2400E-01
    -14.076  0.0000E+00  0.0000E+00  0.2400E-01  0.2400E-01
    -13.883  0.0000E+00  0.0000E+00  0.2400E-01  0.2400E-01
    -13.691  0.0000E+00  0.0000E+00  0.2400E-01  0.2400E-01
    -13.498  0.0000E+00  0.0000E+00  0.2400E-01  0.2400E-01
    -13.306  0.0000E+00  0.0000E+00  0.2400E-01  0.2400E-01
    -13.113  0.2690E-02  0.2690E-02  0.2452E-01  0.2452E-01
    -12.921  0.1809E-01  0.1809E-01  0.2800E-01  0.2800E-01
    -12.728  0.2628E-03  0.2628E-03  0.2805E-01  0.2805E-01
    -12.536  0.1013E-01  0.1013E-01  0.3000E-01  0.3000E-01
    -12.343  0.1039E-01  0.1039E-01  0.3200E-01  0.3200E-01
    -12.151  0.0000E+00  0.0000E+00  0.3200E-01  0.3200E-01
    -11.958  0.0000E+00  0.0000E+00  0.3200E-01  0.3200E-01
    -11.766  0.0000E+00  0.0000E+00  0.3200E-01  0.3200E-01
    -11.573  0.0000E+00  0.0000E+00  0.3200E-01  0.3200E-01
    -11.381  0.0000E+00  0.0000E+00  0.3200E-01  0.3200E-01
    -11.188  0.0000E+00  0.0000E+00  0.3200E-01  0.3200E-01
    -10.996  0.0000E+00  0.0000E+00  0.3200E-01  0.3200E-01
    -10.803  0.0000E+00  0.0000E+00  0.3200E-01  0.3200E-01
    -10.611  0.0000E+00  0.0000E+00  0.3200E-01  0.3200E-01
    -10.418  0.4575E-04  0.4575E-04  0.3201E-01  0.3201E-01
    -10.226  0.1644E-01  0.1644E-01  0.3517E-01  0.3517E-01
    -10.033  0.2619E-01  0.2619E-01  0.4021E-01  0.4021E-01
     -9.841  0.1967E-01  0.1967E-01  0.4400E-01  0.4400E-01
     -9.649  0.0000E+00  0.0000E+00  0.4400E-01  0.4400E-01
     -9.456  0.0000E+00  0.0000E+00  0.4400E-01  0.4400E-01
     -9.264  0.0000E+00  0.0000E+00  0.4400E-01  0.4400E-01
     -9.071  0.0000E+00  0.0000E+00  0.4400E-01  0.4400E-01
     -8.879  0.0000E+00  0.0000E+00  0.4400E-01  0.4400E-01
     -8.686  0.0000E+00  0.0000E+00  0.4400E-01  0.4400E-01
     -8.494  0.2507E-02  0.2507E-02  0.4448E-01  0.4448E-01
     -8.301  0.1826E-01  0.1826E-01  0.4800E-01  0.4800E-01
     -8.109  0.0000E+00  0.0000E+00  0.4800E-01  0.4800E-01
     -7.916  0.0000E+00  0.0000E+00  0.4800E-01  0.4800E-01
     -7.724  0.0000E+00  0.0000E+00  0.4800E-01  0.4800E-01
     -7.531  0.0000E+00  0.0000E+00  0.4800E-01  0.4800E-01
     -7.339  0.0000E+00  0.0000E+00  0.4800E-01  0.4800E-01
     -7.146  0.0000E+00  0.0000E+00  0.4800E-01  0.4800E-01
     -6.954  0.0000E+00  0.0000E+00  0.4800E-01  0.4800E-01
     -6.761  0.0000E+00  0.0000E+00  0.4800E-01  0.4800E-01
     -6.569  0.0000E+00  0.0000E+00  0.4800E-01  0.4800E-01
     -6.376  0.1276E-16  0.1276E-16  0.4800E-01  0.4800E-01
     -6.184  0.3878E-02  0.3878E-02  0.4875E-01  0.4875E-01
     -5.991  0.1318E-02  0.1318E-02  0.4900E-01  0.4900E-01
     -5.799  0.2444E-02  0.2444E-02  0.4947E-01  0.4947E-01
     -5.606  0.1314E-01  0.1314E-01  0.5200E-01  0.5200E-01
     -5.414  0.0000E+00  0.0000E+00  0.5200E-01  0.5200E-01
     -5.222  0.0000E+00  0.0000E+00  0.5200E-01  0.5200E-01
     -5.029  0.0000E+00  0.0000E+00  0.5200E-01  0.5200E-01
     -4.837  0.0000E+00  0.0000E+00  0.5200E-01  0.5200E-01
     -4.644  0.0000E+00  0.0000E+00  0.5200E-01  0.5200E-01
     -4.452  0.0000E+00  0.0000E+00  0.5200E-01  0.5200E-01
     -4.259  0.0000E+00  0.0000E+00  0.5200E-01  0.5200E-01
     -4.067  0.0000E+00  0.0000E+00  0.5200E-01  0.5200E-01
     -3.874  0.0000E+00  0.0000E+00  0.5200E-01  0.5200E-01
     -3.682  0.0000E+00  0.0000E+00  0.5200E-01  0.5200E-01
     -3.489  0.1082E-17  0.1082E-17  0.5200E-01  0.5200E-01
     -3.297  0.4037E-02  0.4037E-02  0.5278E-01  0.5278E-01
     -3.104  0.1155E-01  0.1155E-01  0.5500E-01  0.5500E-01
     -2.912  0.3128E-02  0.3128E-02  0.5560E-01  0.5560E-01
     -2.719  0.1034E-01  0.1034E-01  0.5759E-01  0.5759E-01
     -2.527  0.1255E-01  0.1255E-01  0.6001E-01  0.6001E-01
     -2.334  0.2070E-01  0.2070E-01  0.6399E-01  0.6399E-01
     -2.142  0.3293E-04  0.3293E-04  0.6400E-01  0.6400E-01
     -1.949  0.0000E+00  0.0000E+00  0.6400E-01  0.6400E-01
     -1.757  0.6960E-10  0.6960E-10  0.6400E-01  0.6400E-01
     -1.564  0.5427E-02  0.5427E-02  0.6504E-01  0.6504E-01
     -1.372  0.1709E-01  0.1709E-01  0.6833E-01  0.6833E-01
     -1.180  0.1805E-01  0.1805E-01  0.7181E-01  0.7181E-01
     -0.987  0.1605E-01  0.1605E-01  0.7490E-01  0.7490E-01
     -0.795  0.5717E-02  0.5717E-02  0.7600E-01  0.7600E-01
     -0.602  0.5025E-02  0.5025E-02  0.7697E-01  0.7697E-01
     -0.410  0.1189E-01  0.1189E-01  0.7925E-01  0.7925E-01
     -0.217  0.1079E-01  0.1079E-01  0.8133E-01  0.8133E-01
     -0.025  0.3089E-01  0.3089E-01  0.8728E-01  0.8728E-01
      0.168  0.2450E-01  0.2450E-01  0.9200E-01  0.9200E-01
      0.360  0.1606E-01  0.1606E-01  0.9509E-01  0.9509E-01
      0.553  0.4728E-02  0.4728E-02  0.9600E-01  0.9600E-01
      0.745  0.8275E-02  0.8275E-02  0.9759E-01  0.9759E-01
      0.938  0.2361E-01  0.2361E-01  0.1021E+00  0.1021E+00
      1.130  0.2300E-01  0.2300E-01  0.1066E+00  0.1066E+00
      1.323  0.3216E-01  0.3216E-01  0.1128E+00  0.1128E+00
      1.515  0.2860E-01  0.2860E-01  0.1183E+00  0.1183E+00
      1.708  0.8530E-02  0.8530E-02  0.1199E+00  0.1199E+00
      1.900  0.4243E-03  0.4243E-03  0.1200E+00  0.1200E+00
      2.093  0.0000E+00  0.0000E+00  0.1200E+00  0.1200E+00
      2.285  0.0000E+00  0.0000E+00  0.1200E+00  0.1200E+00
      2.478  0.0000E+00  0.0000E+00  0.1200E+00  0.1200E+00
      2.670  0.0000E+00  0.0000E+00  0.1200E+00  0.1200E+00
      2.863  0.0000E+00  0.0000E+00  0.1200E+00  0.1200E+00
      3.055  0.0000E+00  0.0000E+00  0.1200E+00  0.1200E+00
      3.247  0.0000E+00  0.0000E+00  0.1200E+00  0.1200E+00
      3.440  0.0000E+00  0.0000E+00  0.1200E+00  0.1200E+00
      3.632  0.0000E+00  0.0000E+00  0.1200E+00  0.1200E+00
      3.825  0.0000E+00  0.0000E+00  0.1200E+00  0.1200E+00
      4.017  0.0000E+00  0.0000E+00  0.1200E+00  0.1200E+00
      4.210  0.1374E-07  0.1374E-07  0.1200E+00  0.1200E+00
      4.402  0.5175E-02  0.5175E-02  0.1210E+00  0.1210E+00
      4.595  0.0000E+00  0.0000E+00  0.1210E+00  0.1210E+00
      4.787  0.0000E+00  0.0000E+00  0.1210E+00  0.1210E+00
      4.980  0.1551E-13  0.1551E-13  0.1210E+00  0.1210E+00
      5.172  0.4088E-02  0.4088E-02  0.1218E+00  0.1218E+00
      5.365  0.1149E-01  0.1149E-01  0.1240E+00  0.1240E+00
      5.557  0.0000E+00  0.0000E+00  0.1240E+00  0.1240E+00
      5.750  0.2017E-04  0.2017E-04  0.1240E+00  0.1240E+00
      5.942  0.1034E-01  0.1034E-01  0.1260E+00  0.1260E+00
      6.135  0.1684E-01  0.1684E-01  0.1292E+00  0.1292E+00
      6.327  0.4062E-02  0.4062E-02  0.1300E+00  0.1300E+00
      6.520  0.1128E-01  0.1128E-01  0.1322E+00  0.1322E+00
      6.712  0.7035E-02  0.7035E-02  0.1335E+00  0.1335E+00
      6.905  0.1275E-01  0.1275E-01  0.1360E+00  0.1360E+00
      7.097  0.5098E-02  0.5098E-02  0.1370E+00  0.1370E+00
      7.290  0.2738E-02  0.2738E-02  0.1375E+00  0.1375E+00
      7.482  0.1024E-01  0.1024E-01  0.1395E+00  0.1395E+00
      7.674  0.1282E-01  0.1282E-01  0.1420E+00  0.1420E+00
      7.867  0.9912E-02  0.9912E-02  0.1439E+00  0.1439E+00
      8.059  0.1455E-01  0.1455E-01  0.1467E+00  0.1467E+00
      8.252  0.1518E-01  0.1518E-01  0.1496E+00  0.1496E+00
      8.444  0.1521E-01  0.1521E-01  0.1525E+00  0.1525E+00
      8.637  0.1260E-01  0.1260E-01  0.1549E+00  0.1549E+00
      8.829  0.1528E-01  0.1528E-01  0.1579E+00  0.1579E+00
      9.022  0.2082E-01  0.2082E-01  0.1619E+00  0.1619E+00
      9.214  0.1694E-01  0.1694E-01  0.1652E+00  0.1652E+00
      9.407  0.1808E-01  0.1808E-01  0.1686E+00  0.1686E+00
      9.599  0.1747E-01  0.1755E-01  0.1720E+00  0.1720E+00
      9.792  0.1600E-01  0.1608E-01  0.1751E+00  0.1751E+00
      9.984  0.4768E-02  0.4598E-02  0.1760E+00  0.1760E+00
     10.177  0.0000E+00  0.0000E+00  0.1760E+00  0.1760E+00
     10.369  0.0000E+00  0.0000E+00  0.1760E+00  0.1760E+00
     10.562  0.0000E+00  0.0000E+00  0.1760E+00  0.1760E+00
     10.754  0.0000E+00  0.0000E+00  0.1760E+00  0.1760E+00
     10.947  0.0000E+00  0.0000E+00  0.1760E+00  0.1760E+00
     11.139  0.0000E+00  0.0000E+00  0.1760E+00  0.1760E+00
     11.332  0.0000E+00  0.0000E+00  0.1760E+00  0.1760E+00
     11.524  0.0000E+00  0.0000E+00  0.1760E+00  0.1760E+00
     11.717  0.0000E+00  0.0000E+00  0.1760E+00  0.1760E+00
     11.909  0.0000E+00  0.0000E+00  0.1760E+00  0.1760E+00
     12.101  0.0000E+00  0.0000E+00  0.1760E+00  0.1760E+00
     12.294  0.0000E+00  0.0000E+00  0.1760E+00  0.1760E+00
     12.486  0.0000E+00  0.0000E+00  0.1760E+00  0.1760E+00
