       N       E                     dE             d eps       ncg     rms          rms(c)
DAV:   1     0.158257420224E+04    0.15826E+04   -0.11364E+05  2336   0.126E+03
DAV:   2    -0.562749492256E+02   -0.16388E+04   -0.15403E+04  2904   0.357E+02
DAV:   3    -0.228705757817E+03   -0.17243E+03   -0.17041E+03  2856   0.116E+02
DAV:   4    -0.241666846089E+03   -0.12961E+02   -0.12935E+02  3504   0.328E+01
DAV:   5    -0.241973488847E+03   -0.30664E+00   -0.30652E+00  3416   0.491E+00
DAV:   6    -0.241984450896E+03   -0.10962E-01   -0.10961E-01  3464   0.108E+00
DAV:   7    -0.241984881517E+03   -0.43062E-03   -0.43060E-03  3472   0.221E-01
DAV:   8    -0.241984907182E+03   -0.25665E-04   -0.25665E-04  3416   0.616E-02
DAV:   9    -0.241984908856E+03   -0.16739E-05   -0.16735E-05  3400   0.141E-02
DAV:  10    -0.241984908934E+03   -0.77509E-07   -0.77971E-07  1960   0.430E-03    0.647E+01
RMM:  11    -0.235197972926E+03    0.67869E+01   -0.48840E+01  2112   0.195E+01    0.332E+01
RMM:  12    -0.255862076690E+03   -0.20664E+02   -0.22982E+01  2213   0.137E+01    0.206E+01
RMM:  13    -0.258359228052E+03   -0.24972E+01   -0.87628E+00  2185   0.536E+00    0.708E+00
RMM:  14    -0.258547207875E+03   -0.18798E+00   -0.20003E+00  2777   0.336E+00    0.321E+00
RMM:  15    -0.258516419603E+03    0.30788E-01   -0.34714E-01  2293   0.165E+00    0.664E-01
RMM:  16    -0.258536813687E+03   -0.20394E-01   -0.10571E-01  2321   0.885E-01    0.307E-01
RMM:  17    -0.258542759330E+03   -0.59456E-02   -0.25931E-02  2597   0.454E-01    0.174E-01
RMM:  18    -0.258544059269E+03   -0.12999E-02   -0.68439E-03  2523   0.208E-01    0.887E-02
RMM:  19    -0.258544544850E+03   -0.48558E-03   -0.20205E-03  2950   0.112E-01    0.435E-02
RMM:  20    -0.258544637238E+03   -0.92388E-04   -0.48077E-04  2850   0.480E-02    0.245E-02
RMM:  21    -0.258544655851E+03   -0.18613E-04   -0.14572E-04  2549   0.276E-02    0.992E-03
RMM:  22    -0.258544662088E+03   -0.62370E-05   -0.49772E-05  2837   0.154E-02    0.594E-03
RMM:  23    -0.258544661886E+03    0.20214E-06   -0.14140E-05  2223   0.816E-03    0.268E-03
RMM:  24    -0.258544661275E+03    0.61041E-06   -0.49919E-06  1662   0.604E-03
   1 F= -.27199004E+03 E0= -.27199004E+03  d E =-.271990E+03  mag=    -0.0004
       N       E                     dE             d eps       ncg     rms          rms(c)
DAV:   1    -0.258544662572E+03   -0.68662E-06   -0.50678E-05  2360   0.142E-02    0.177E-03
RMM:   2    -0.258544662745E+03   -0.17284E-06   -0.18045E-06  1471   0.521E-03
   2 F= -.27199004E+03 E0= -.27199004E+03  d E =-.123484E-05  mag=    -0.0001
       N       E                     dE             d eps       ncg     rms          rms(c)
DAV:   1    -0.258544663503E+03   -0.93083E-06   -0.39981E-05  2320   0.125E-02    0.920E-04
RMM:   2    -0.258544663544E+03   -0.40955E-07   -0.15259E-06  1435   0.492E-03
   3 F= -.27199004E+03 E0= -.27199004E+03  d E =-.182156E-05  mag=    -0.0000
       N       E                     dE             d eps       ncg     rms          rms(c)
DAV:   1    -0.258544664257E+03   -0.75370E-06   -0.15010E-04  2544   0.232E-02    0.157E-03
RMM:   2    -0.258544664599E+03   -0.34173E-06   -0.53019E-06  1689   0.881E-03
   4 F= -.27199004E+03 E0= -.27199004E+03  d E =-.245963E-05  mag=    -0.0000
       N       E                     dE             d eps       ncg     rms          rms(c)
DAV:   1    -0.258544664870E+03   -0.61263E-06   -0.69939E-06  2176   0.687E-03    0.680E-04
RMM:   2    -0.258544664891E+03   -0.21681E-07   -0.62647E-07  1250   0.386E-03
   5 F= -.27199004E+03 E0= -.27199004E+03  d E =-.267918E-05  mag=    -0.0000
       N       E                     dE             d eps       ncg     rms          rms(c)
DAV:   1    -0.258544665337E+03   -0.46707E-06   -0.18060E-05  2288   0.832E-03    0.499E-04
RMM:   2    -0.258544665350E+03   -0.13362E-07   -0.66608E-07  1229   0.337E-03
   6 F= -.27199004E+03 E0= -.27199004E+03  d E =-.299189E-05  mag=    -0.0000
       N       E                     dE             d eps       ncg     rms          rms(c)
DAV:   1    -0.258544666022E+03   -0.68498E-06   -0.71108E-05  2360   0.159E-02    0.107E-03
RMM:   2    -0.258544666132E+03   -0.11008E-06   -0.22496E-06  1385   0.619E-03
   7 F= -.27199004E+03 E0= -.27199004E+03  d E =-.348149E-05  mag=    -0.0000
       N       E                     dE             d eps       ncg     rms          rms(c)
DAV:   1    -0.258544666489E+03   -0.46716E-06   -0.15134E-05  2144   0.827E-03    0.550E-04
RMM:   2    -0.258544666517E+03   -0.27858E-07   -0.76982E-07  1168   0.389E-03
   8 F= -.27199004E+03 E0= -.27199004E+03  d E =-.374707E-05  mag=    -0.0000
       N       E                     dE             d eps       ncg     rms          rms(c)
DAV:   1    -0.258544667033E+03   -0.54380E-06   -0.52227E-05  2304   0.139E-02    0.896E-04
RMM:   2    -0.258544667101E+03   -0.68050E-07   -0.16666E-06  1290   0.540E-03
   9 F= -.27199004E+03 E0= -.27199004E+03  d E =-.408076E-05  mag=    -0.0000
       N       E                     dE             d eps       ncg     rms          rms(c)
DAV:   1    -0.258544671580E+03   -0.45476E-05   -0.18294E-04  2352   0.253E-02    0.187E-03
RMM:   2    -0.258544672263E+03   -0.68315E-06   -0.58367E-06  1714   0.904E-03
  10 F= -.27199004E+03 E0= -.27199004E+03  d E =-.154754E-05  mag=    -0.0000
